<event>
 9    1  0.1612788E-005  0.1145596E+03  0.7546771E-02  0.1252686E+00
         -2   -1    0    0    0  501 -0.00000000000E+00  0.00000000000E+00  0.33726837001E+03  0.33726837001E+03  0.00000000000E+00 0.  1.
          2   -1    0    0  502    0  0.00000000000E+00 -0.00000000000E+00 -0.16720437447E+03  0.16720437447E+03  0.00000000000E+00 0. -1.
         23    2    1    2    0    0  0.67661665881E+01  0.46942821061E+02  0.15486049641E+03  0.18571319229E+03  0.90874677350E+02 0.  0.
         23    2    1    2    0    0  0.99192294105E+01 -0.72223403857E+02 -0.12788900673E+03  0.17249617490E+03  0.89915077360E+02 0.  0.
        -13    1    4    4    0    0  0.23026802635E+02 -0.13489903375E+02 -0.10462926398E+03  0.10797913694E+03  0.00000000000E+00 0.  1.
         13    1    4    4    0    0 -0.13107573224E+02 -0.58733500482E+02 -0.23259742745E+02  0.64517037961E+02  0.00000000000E+00 0. -1.
        -13    1    3    3    0    0 -0.14978488202E+02  0.66212628842E+02  0.13310330347E+03  0.14941538315E+03  0.00000000000E+00 0.  1.
         13    1    3    3    0    0  0.21744654790E+02 -0.19269807781E+02  0.21757192936E+02  0.36297809139E+02  0.00000000000E+00 0. -1.
         21    1    1    2  502  501 -0.16685395999E+02  0.25280582797E+02  0.14309250585E+03  0.14626337729E+03  0.00000000000E+00 0. -1.
<scales pt_clust_5="13000.00000" pt_clust_6="13000.00000" pt_clust_7="13000.00000" pt_clust_8="13000.00000" pt_clust_9="30.29043"></scales>
<clustering>
<clus scale="   30.290">  1  9  2 -1</clus>
<clus scale="   89.915">  5  6 -1 -1</clus>
<clus scale="   90.875">  7  8 -1 -1</clus>
<clus scale="  113.800">  2  5  1 -1</clus>
<clus scale="  113.800">  2  5  1 -1</clus>
</clustering>
</event>
<event>
 9    1  0.1612788E-005  0.1235650E+03  0.7546771E-02  0.1238953E+00
         -1   -1    0    0    0  501 -0.00000000000E+00  0.00000000000E+00  0.19173275043E+03  0.19173275043E+03  0.00000000000E+00 0.  1.
          1   -1    0    0  502    0  0.00000000000E+00 -0.00000000000E+00 -0.10669638566E+03  0.10669638566E+03  0.00000000000E+00 0. -1.
         23    2    1    2    0    0 -0.24433265948E+02 -0.56319244307E+02  0.61669735357E+02  0.12982649157E+03  0.96347910671E+02 0.  0.
         23    2    1    2    0    0  0.31090803714E+02  0.81381880665E+02 -0.98520149476E+01  0.12646077836E+03  0.91135161653E+02 0.  0.
        -13    1    3    3    0    0 -0.59510214881E+02 -0.40650083321E+02  0.23838889365E+02  0.75909074526E+02  0.00000000000E+00 0.  1.
         13    1    3    3    0    0  0.35076948933E+02 -0.15669160986E+02  0.37830845992E+02  0.53917417046E+02  0.00000000000E+00 0. -1.
        -13    1    4    4    0    0 -0.29537829599E+02  0.48928485316E+02 -0.13498137879E+01  0.57169065499E+02  0.00000000000E+00 0.  1.
         13    1    4    4    0    0  0.60628633313E+02  0.32453395349E+02 -0.85022011597E+01  0.69291712864E+02  0.00000000000E+00 0. -1.
         21    1    1    2  502  501 -0.66575377656E+01 -0.25062636358E+02  0.33218644354E+02  0.42141866155E+02  0.00000000000E+00 0.  1.
<scales pt_clust_5="13000.00000" pt_clust_6="13000.00000" pt_clust_7="13000.00000" pt_clust_8="13000.00000" pt_clust_9="25.93181"></scales>
<clustering>
<clus scale="   25.932">  1  9  2 -1</clus>
<clus scale="   91.135">  7  8 -1 -1</clus>
<clus scale="   96.348">  5  6 -1 -1</clus>
<clus scale="  119.545">  2  7  1 -1</clus>
<clus scale="  119.545">  2  5  1 -1</clus>
</clustering>
</event>
<event>
 9    1  0.1612788E-005  0.1896691E+03  0.7546771E-02  0.1158802E+00
         -2   -1    0    0    0  501 -0.00000000000E+00  0.00000000000E+00  0.24531709301E+03  0.24531709301E+03  0.00000000000E+00 0.  1.
          2   -1    0    0  502    0  0.00000000000E+00 -0.00000000000E+00 -0.25692538590E+03  0.25692538590E+03  0.00000000000E+00 0. -1.
         23    2    1    2    0    0  0.95791557615E+02  0.16039780735E+03  0.99190244752E+02  0.23065374185E+03  0.91972631059E+02 0.  0.
         23    2    1    2    0    0 -0.77082941912E+02 -0.14030829008E+03 -0.13996703707E+03  0.23153374531E+03  0.91590979659E+02 0.  0.
        -11    1    3    3    0    0  0.97950966361E+02  0.85342163176E+02  0.81987254081E+02  0.15362156899E+03  0.00000000000E+00 0. -1.
         11    1    3    3    0    0 -0.21594087460E+01  0.75055644170E+02  0.17202990670E+02  0.77032172862E+02  0.00000000000E+00 0.  1.
        -13    1    4    4    0    0 -0.24127576900E+02  0.92002912718E+01 -0.18995104875E+02  0.32056190287E+02  0.00000000000E+00 0.  1.
         13    1    4    4    0    0 -0.52955365013E+02 -0.14950858135E+03 -0.12097193219E+03  0.19947755502E+03  0.00000000000E+00 0. -1.
         21    1    1    2  502  501 -0.18708615702E+02 -0.20089517270E+02  0.29168499421E+02  0.40054991750E+02  0.00000000000E+00 0.  1.
<scales pt_clust_5="13000.00000" pt_clust_6="13000.00000" pt_clust_7="13000.00000" pt_clust_8="13000.00000" pt_clust_9="27.45179"></scales>
<clustering>
<clus scale="   27.452">  1  9  2 -1</clus>
<clus scale="   91.591">  7  8 -1 -1</clus>
<clus scale="   91.973">  5  6 -1 -1</clus>
<clus scale="  189.484">  2  7  1 -1</clus>
<clus scale="  189.484">  2  5  1 -1</clus>
</clustering>
</event>
<event>
 9    1  0.1612788E-005  0.1162130E+03  0.7546771E-02  0.1250663E+00
          3   -1    0    0  502    0  0.00000000000E+00  0.00000000000E+00  0.13013688790E+03  0.13013688790E+03  0.00000000000E+00 0. -1.
         -3   -1    0    0    0  501 -0.00000000000E+00 -0.00000000000E+00 -0.26817931494E+03  0.26817931494E+03  0.00000000000E+00 0.  1.
         23    2    1    2    0    0  0.58304609401E+02  0.18325617548E+01 -0.11529452167E+03  0.15905282656E+03  0.92747987320E+02 0.  0.
         23    2    1    2    0    0 -0.97683859131E+02  0.74701694513E+02 -0.18178941982E+02  0.15307118916E+03  0.89318729967E+02 0.  0.
        -11    1    3    3    0    0  0.27769932096E+02  0.40591638770E+02 -0.22777134216E+02  0.54200074813E+02  0.00000000000E+00 0.  1.
         11    1    3    3    0    0  0.30534677305E+02 -0.38759077015E+02 -0.92517387451E+02  0.10485275175E+03  0.00000000000E+00 0. -1.
        -13    1    4    4    0    0 -0.66980058086E+02  0.94141083549E+02 -0.16310763043E+02  0.11668295841E+03  0.00000000000E+00 0.  1.
         13    1    4    4    0    0 -0.30703801045E+02 -0.19439389036E+02 -0.18681789394E+01  0.36388230752E+02  0.00000000000E+00 0. -1.
         21    1    1    2  502  501  0.39379249730E+02 -0.76534256267E+02 -0.45689633930E+01  0.86192187106E+02  0.00000000000E+00 0. -1.
<scales pt_clust_5="13000.00000" pt_clust_6="13000.00000" pt_clust_7="13000.00000" pt_clust_8="13000.00000" pt_clust_9="86.07100"></scales>
<clustering>
<clus scale="   86.071">  1  9  2 -1</clus>
<clus scale="   89.319">  7  8 -1 -1</clus>
<clus scale="   92.748">  5  6 -1 -1</clus>
<clus scale="  113.495">  1  7  2 -1</clus>
<clus scale="   86.071">  1  5  2 -1</clus>
</clustering>
</event>
<event>
 9    1  0.1612788E-005  0.2347942E+03  0.7546771E-02  0.1123484E+00
          2   -1    0    0  502    0  0.00000000000E+00  0.00000000000E+00  0.10780549021E+04  0.10780549021E+04  0.00000000000E+00 0. -1.
         -2   -1    0    0    0  501 -0.00000000000E+00 -0.00000000000E+00 -0.13749128183E+03  0.13749128183E+03  0.00000000000E+00 0.  1.
         23    2    1    2    0    0  0.61358936663E+02 -0.15140350679E+03  0.73443829424E+01  0.18844909289E+03  0.93654576362E+02 0.  0.
         23    2    1    2    0    0 -0.50154728643E+02  0.21888422659E+03  0.92729566503E+03  0.95843654535E+03  0.91090941508E+02 0.  0.
        -11    1    4    4    0    0 -0.12132016916E+02  0.18932637987E+03  0.80373907079E+03  0.82582574304E+03  0.00000000000E+00 0. -1.
         11    1    4    4    0    0 -0.38022711728E+02  0.29557846724E+02  0.12355659423E+03  0.13261080231E+03  0.00000000000E+00 0.  1.
        -13    1    3    3    0    0  0.40354015008E+02 -0.10854770453E+03  0.48380958288E+02  0.12550604691E+03  0.00000000000E+00 0. -1.
         13    1    3    3    0    0  0.21004921655E+02 -0.42855802256E+02 -0.41036575346E+02  0.62943045977E+02  0.00000000000E+00 0.  1.
         21    1    1    2  502  501 -0.11204208020E+02 -0.67480719802E+02  0.59235722802E+01  0.68660545664E+02  0.00000000000E+00 0.  1.
<scales pt_clust_5="13000.00000" pt_clust_6="13000.00000" pt_clust_7="13000.00000" pt_clust_8="13000.00000" pt_clust_9="68.40455"></scales>
<clustering>
<clus scale="   68.405">  2  9  1 -1</clus>
<clus scale="   91.091">  5  6 -1 -1</clus>
<clus scale="   93.655">  7  8 -1 -1</clus>
<clus scale="  233.783">  1  5  2 -1</clus>
<clus scale="  233.783">  1  5  2 -1</clus>
</clustering>
</event>
<event>
 9    1  0.1612788E-005  0.1255834E+03  0.7546771E-02  0.1235012E+00
          2   -1    0    0  502    0  0.00000000000E+00  0.00000000000E+00  0.34921385715E+02  0.34921385715E+02  0.00000000000E+00 0. -1.
         -2   -1    0    0    0  501 -0.00000000000E+00 -0.00000000000E+00 -0.56400521571E+03  0.56400521571E+03  0.00000000000E+00 0.  1.
         23    2    1    2    0    0  0.52458630256E+02  0.59083408680E+02 -0.21706401254E+03  0.24808515784E+03  0.90480400828E+02 0.  0.
         23    2    1    2    0    0 -0.74693929675E+02 -0.50578628785E+02 -0.21705974303E+03  0.25294274309E+03  0.93422258699E+02 0.  0.
        -11    1    4    4    0    0 -0.60901197890E+02 -0.75003113191E+02 -0.13344312068E+03  0.16474674306E+03  0.00000000000E+00 0.  1.
         11    1    4    4    0    0 -0.13792731785E+02  0.24424484407E+02 -0.83616622350E+02  0.88196000033E+02  0.00000000000E+00 0. -1.
        -11    1    3    3    0    0  0.48102109531E+02  0.30305370760E+02 -0.42168392327E+02  0.70784191383E+02  0.00000000000E+00 0. -1.
         11    1    3    3    0    0  0.43565207247E+01  0.28778037920E+02 -0.17489562021E+03  0.17730096646E+03  0.00000000000E+00 0.  1.
         21    1    1    2  502  501  0.22235299419E+02 -0.85047798950E+01 -0.94960074431E+02  0.97898700488E+02  0.00000000000E+00 0.  1.
<scales pt_clust_5="13000.00000" pt_clust_6="13000.00000" pt_clust_7="13000.00000" pt_clust_8="13000.00000" pt_clust_9="23.80630"></scales>
<clustering>
<clus scale="   23.806">  2  9  1 -1</clus>
<clus scale="   90.480">  7  8 -1 -1</clus>
<clus scale="   93.422">  5  6 -1 -1</clus>
<clus scale="  123.411">  2  7  1 -1</clus>
<clus scale="  125.583">  1  5  2 -1</clus>
</clustering>
</event>
<event>
 9    1  0.1612788E-005  0.1179460E+03  0.7546771E-02  0.1247163E+00
         -2   -1    0    0    0  501 -0.00000000000E+00  0.00000000000E+00  0.29073326422E+03  0.29073326422E+03  0.00000000000E+00 0.  1.
          2   -1    0    0  502    0  0.00000000000E+00 -0.00000000000E+00 -0.26732037832E+03  0.26732037832E+03  0.00000000000E+00 0. -1.
         23    2    1    2    0    0  0.85869140672E+01 -0.91178379618E+02  0.23485939097E+03  0.26894471098E+03  0.93728821782E+02 0.  0.
         23    2    1    2    0    0  0.12997893163E+02  0.69469000910E+02 -0.22692895483E+03  0.25480284933E+03  0.91830573189E+02 0.  0.
        -11    1    3    3    0    0 -0.14856297672E+02 -0.45911862175E+02  0.20339138982E+03  0.20903747540E+03  0.00000000000E+00 0.  1.
         11    1    3    3    0    0  0.23443211739E+02 -0.45266517443E+02  0.31468001152E+02  0.59907235578E+02  0.00000000000E+00 0. -1.
        -11    1    4    4    0    0  0.23808722380E+02  0.88842801472E+02 -0.19822120945E+03  0.21852127244E+03  0.00000000000E+00 0. -1.
         11    1    4    4    0    0 -0.10810829217E+02 -0.19373800562E+02 -0.28707745385E+02  0.36281576891E+02  0.00000000000E+00 0.  1.
         21    1    1    2  502  501 -0.21584807230E+02  0.21709378708E+02  0.15482449758E+02  0.34306082224E+02  0.00000000000E+00 0. -1.
<scales pt_clust_5="13000.00000" pt_clust_6="13000.00000" pt_clust_7="13000.00000" pt_clust_8="13000.00000" pt_clust_9="30.61374"></scales>
<clustering>
<clus scale="   30.614">  1  9  2 -1</clus>
<clus scale="   91.831">  7  8 -1 -1</clus>
<clus scale="   93.729">  5  6 -1 -1</clus>
<clus scale="  116.443">  2  7  1 -1</clus>
<clus scale="  116.443">  2  5  1 -1</clus>
</clustering>
</event>
<event>
 9    1  0.1612788E-005  0.1665330E+03  0.7546771E-02  0.1181830E+00
          1   -1    0    0  502    0  0.00000000000E+00  0.00000000000E+00  0.47804371701E+03  0.47804371701E+03  0.00000000000E+00 0. -1.
         -1   -1    0    0    0  501 -0.00000000000E+00 -0.00000000000E+00 -0.87104419956E+02  0.87104419956E+02  0.00000000000E+00 0.  1.
         23    2    1    2    0    0  0.15127478154E+03 -0.76268451204E+01  0.10644621583E+03  0.20746571013E+03  0.93642916002E+02 0.  0.
         23    2    1    2    0    0 -0.13081163481E+03  0.19609663146E+02  0.29151753968E+03  0.33295043704E+03  0.91527563588E+02 0.  0.
        -13    1    4    4    0    0 -0.78388556856E+02  0.42725143821E+02  0.23937863456E+03  0.25548450920E+03  0.00000000000E+00 0. -1.
         13    1    4    4    0    0 -0.52423077950E+02 -0.23115480675E+02  0.52138905124E+02  0.77465927840E+02  0.00000000000E+00 0.  1.
        -13    1    3    3    0    0  0.12920414625E+03 -0.14056758818E+02  0.38218592727E+02  0.13546942351E+03  0.00000000000E+00 0.  1.
         13    1    3    3    0    0  0.22070635293E+02  0.64299136979E+01  0.68227623100E+02  0.71996286614E+02  0.00000000000E+00 0. -1.
         21    1    1    2  502  501 -0.20463146739E+02 -0.11982818025E+02 -0.70244584589E+01  0.24731989790E+02  0.00000000000E+00 0. -1.
<scales pt_clust_5="13000.00000" pt_clust_6="13000.00000" pt_clust_7="13000.00000" pt_clust_8="13000.00000" pt_clust_9="23.71346"></scales>
<clustering>
<clus scale="   23.713">  2  9  1 -1</clus>
<clus scale="   91.528">  5  6 -1 -1</clus>
<clus scale="   93.643">  7  8 -1 -1</clus>
<clus scale="  165.353">  1  5  2 -1</clus>
<clus scale="  165.353">  1  5  2 -1</clus>
</clustering>
</event>
<event>
 9    1  0.1612788E-005  0.1076427E+03  0.7546771E-02  0.1266131E+00
          1   -1    0    0  502    0  0.00000000000E+00  0.00000000000E+00  0.89807510893E+02  0.89807510893E+02  0.00000000000E+00 0. -1.
         -1   -1    0    0    0  501 -0.00000000000E+00 -0.00000000000E+00 -0.18665127423E+03  0.18665127423E+03  0.00000000000E+00 0.  1.
         23    2    1    2    0    0  0.15950752369E+02 -0.35950348070E+02 -0.78584354263E+02  0.12648539630E+03  0.90973626480E+02 0.  0.
         23    2    1    2    0    0 -0.22919563306E+02  0.54964077317E+02  0.13997527685E+02  0.11188669568E+03  0.93682152573E+02 0.  0.
        -13    1    3    3    0    0  0.39387891515E+02  0.13323789738E+02 -0.49524630632E+02  0.64665434431E+02  0.00000000000E+00 0.  1.
         13    1    3    3    0    0 -0.23437139146E+02 -0.49274137807E+02 -0.29059723631E+02  0.61819961869E+02  0.00000000000E+00 0. -1.
        -13    1    4    4    0    0  0.10657738100E+02 -0.19216855960E+02  0.20695005327E+02  0.30185396799E+02  0.00000000000E+00 0.  1.
         13    1    4    4    0    0 -0.33577301407E+02  0.74180933277E+02 -0.66974776423E+01  0.81701298878E+02  0.00000000000E+00 0. -1.
         21    1    1    2  502  501  0.69688109371E+01 -0.19013729247E+02 -0.32256936764E+02  0.38086693151E+02  0.00000000000E+00 0. -1.
<scales pt_clust_5="13000.00000" pt_clust_6="13000.00000" pt_clust_7="13000.00000" pt_clust_8="13000.00000" pt_clust_9="20.25059"></scales>
<clustering>
<clus scale="   20.251">  2  9  1 -1</clus>
<clus scale="   90.974">  5  6 -1 -1</clus>
<clus scale="   93.682">  7  8 -1 -1</clus>
<clus scale="  105.294">  2  5  1 -1</clus>
<clus scale="  107.643">  1  5  2 -1</clus>
</clustering>
</event>
<event>
 9    1  0.1612788E-005  0.9906651E+02  0.7546771E-02  0.1283558E+00
         -2   -1    0    0    0  501 -0.00000000000E+00  0.00000000000E+00  0.65817954638E+02  0.65817954638E+02  0.00000000000E+00 0.  1.
          2   -1    0    0  502    0  0.00000000000E+00 -0.00000000000E+00 -0.43701616591E+03  0.43701616591E+03  0.00000000000E+00 0. -1.
         23    2    1    2    0    0 -0.71311876174E+01 -0.10985020526E+02 -0.23831625407E+02  0.95440997268E+02  0.91485042915E+02 0.  0.
         23    2    1    2    0    0  0.21581148843E+02  0.27176536650E+02 -0.36557841122E+03  0.37906227161E+03  0.94001706784E+02 0.  0.
        -11    1    4    4    0    0  0.47154617321E+02  0.34439508306E+02 -0.32723692222E+03  0.33240583769E+03  0.00000000000E+00 0. -1.
         11    1    4    4    0    0 -0.25573468478E+02 -0.72629716563E+01 -0.38341488997E+02  0.46656433916E+02  0.00000000000E+00 0.  1.
        -13    1    3    3    0    0 -0.17852718581E+02 -0.28927535305E+02  0.25084488955E+02  0.42246342394E+02  0.00000000000E+00 0.  1.
         13    1    3    3    0    0  0.10721530964E+02  0.17942514779E+02 -0.48916114362E+02  0.53194654873E+02  0.00000000000E+00 0. -1.
         21    1    1    2  502  501 -0.14449961226E+02 -0.16191516123E+02  0.18211825353E+02  0.28330851672E+02  0.00000000000E+00 0.  1.
<scales pt_clust_5="13000.00000" pt_clust_6="13000.00000" pt_clust_7="13000.00000" pt_clust_8="13000.00000" pt_clust_9="21.70176"></scales>
<clustering>
<clus scale="   21.702">  1  9  2 -1</clus>
<clus scale="   91.485">  7  8 -1 -1</clus>
<clus scale="   94.002">  5  6 -1 -1</clus>
<clus scale="   96.682">  1  7  2 -1</clus>
<clus scale="   99.067">  2  5  1 -1</clus>
</clustering>
</event>
<event>
 9    1  0.1612788E-005  0.9808300E+02  0.7546771E-02  0.1287310E+00
          1   -1    0    0  502    0  0.00000000000E+00  0.00000000000E+00  0.28749215600E+03  0.28749215600E+03  0.00000000000E+00 0. -1.
         -1   -1    0    0    0  501 -0.00000000000E+00 -0.00000000000E+00 -0.70577546072E+02  0.70577546072E+02  0.00000000000E+00 0.  1.
         23    2    1    2    0    0  0.17744732814E+02 -0.37542977987E+02  0.11035096477E+03  0.15239167483E+03  0.96548104044E+02 0.  0.
         23    2    1    2    0    0  0.15359125873E+02  0.23629191844E+01  0.12366525775E+03  0.15443383586E+03  0.91187869523E+02 0.  0.
        -11    1    3    3    0    0 -0.24606433938E+02 -0.29138074022E+01 -0.44939427086E+01  0.25182581000E+02  0.00000000000E+00 0.  1.
         11    1    3    3    0    0  0.42351166752E+02 -0.34629170585E+02  0.11484490748E+03  0.12720909383E+03  0.00000000000E+00 0. -1.
        -13    1    4    4    0    0 -0.86798057740E+01 -0.23125231698E+02  0.11595881459E+03  0.11856037301E+03  0.00000000000E+00 0.  1.
         13    1    4    4    0    0  0.24038931647E+02  0.25488150882E+02  0.77064431688E+01  0.35873462844E+02  0.00000000000E+00 0. -1.
         21    1    1    2  502  501 -0.33103858687E+02  0.35180058802E+02 -0.17101612591E+02  0.51244191383E+02  0.00000000000E+00 0.  1.
<scales pt_clust_5="13000.00000" pt_clust_6="13000.00000" pt_clust_7="13000.00000" pt_clust_8="13000.00000" pt_clust_9="48.30633"></scales>
<clustering>
<clus scale="   48.306">  2  9  1 -1</clus>
<clus scale="   91.188">  7  8 -1 -1</clus>
<clus scale="   92.811">  1  7  2 -1</clus>
<clus scale="   96.548">  5  6 -1 -1</clus>
<clus scale="   92.811">  1  5  2 -1</clus>
</clustering>
</event>
<event>
 9    1  0.1612788E-005  0.1835592E+03  0.7546771E-02  0.1164668E+00
          1   -1    0    0  502    0  0.00000000000E+00  0.00000000000E+00  0.12938582770E+04  0.12938582770E+04  0.00000000000E+00 0. -1.
         -1   -1    0    0    0  501 -0.00000000000E+00 -0.00000000000E+00 -0.82339500743E+02  0.82339500743E+02  0.00000000000E+00 0.  1.
         23    2    1    2    0    0 -0.13401435623E+03  0.18966321702E+02  0.17724762600E+03  0.24098403077E+03  0.91307245775E+02 0.  0.
         23    2    1    2    0    0  0.16343610933E+03 -0.11756441782E+02  0.10710642850E+04  0.10875549945E+04  0.93528539494E+02 0.  0.
        -11    1    3    3    0    0 -0.29729459366E+02 -0.30333318620E+02  0.77996961337E+02  0.88811468575E+02  0.00000000000E+00 0. -1.
         11    1    3    3    0    0 -0.10428489687E+03  0.49299640322E+02  0.99250664660E+02  0.15217256220E+03  0.00000000000E+00 0.  1.
        -13    1    4    4    0    0  0.36748327122E+02 -0.44386922800E+02  0.30356779001E+03  0.30898874023E+03  0.00000000000E+00 0.  1.
         13    1    4    4    0    0  0.12668778221E+03  0.32630481018E+02  0.76749649504E+03  0.77856625431E+03  0.00000000000E+00 0. -1.
         21    1    1    2  502  501 -0.29421753095E+02 -0.72098799201E+01 -0.36793134737E+02  0.47658752474E+02  0.00000000000E+00 0.  1.
<scales pt_clust_5="13000.00000" pt_clust_6="13000.00000" pt_clust_7="13000.00000" pt_clust_8="13000.00000" pt_clust_9="30.29227"></scales>
<clustering>
<clus scale="   30.292">  2  9  1 -1</clus>
<clus scale="   91.307">  5  6 -1 -1</clus>
<clus scale="   93.529">  7  8 -1 -1</clus>
<clus scale="  182.437">  2  5  1 -1</clus>
<clus scale="  183.559">  1  5  2 -1</clus>
</clustering>
</event>
<event>
 9    1  0.1612788E-005  0.9694884E+02  0.7546771E-02  0.1287571E+00
          1   -1    0    0  502    0  0.00000000000E+00  0.00000000000E+00  0.17705072315E+03  0.17705072315E+03  0.00000000000E+00 0. -1.
         -1   -1    0    0    0  501 -0.00000000000E+00 -0.00000000000E+00 -0.24397239500E+03  0.24397239500E+03  0.00000000000E+00 0.  1.
         23    2    1    2    0    0 -0.22026685073E+02  0.16046097759E+02 -0.16937354740E+03  0.19375200299E+03  0.90054361330E+02 0.  0.
         23    2    1    2    0    0 -0.59646447946E+01 -0.33272844639E+02  0.14424432837E+03  0.17410266147E+03  0.91447532978E+02 0.  0.
        -11    1    3    3    0    0 -0.21457508841E+02  0.47197273023E+02 -0.14561800191E+03  0.15457234470E+03  0.00000000000E+00 0.  1.
         11    1    3    3    0    0 -0.56917623170E+00 -0.31151175264E+02 -0.23755545492E+02  0.39179658288E+02  0.00000000000E+00 0. -1.
        -13    1    4    4    0    0 -0.34074256828E+02 -0.22916306758E+02  0.18856671707E+02  0.45186127978E+02  0.00000000000E+00 0.  1.
         13    1    4    4    0    0  0.28109612033E+02 -0.10356537881E+02  0.12538765666E+03  0.12891653349E+03  0.00000000000E+00 0. -1.
         21    1    1    2  502  501  0.27991329867E+02  0.17226746879E+02 -0.41792452811E+02  0.53168453690E+02  0.00000000000E+00 0. -1.
<scales pt_clust_5="13000.00000" pt_clust_6="13000.00000" pt_clust_7="13000.00000" pt_clust_8="13000.00000" pt_clust_9="32.86754"></scales>
<clustering>
<clus scale="   32.868">  2  9  1 -1</clus>
<clus scale="   90.054">  5  6 -1 -1</clus>
<clus scale="   91.448">  7  8 -1 -1</clus>
<clus scale="   95.636">  2  5  1 -1</clus>
<clus scale="   96.949">  1  5  2 -1</clus>
</clustering>
</event>
<event>
 9    1  0.1612788E-005  0.2335839E+03  0.7546771E-02  0.1124728E+00
         -2   -1    0    0    0  501 -0.00000000000E+00  0.00000000000E+00  0.73271166060E+03  0.73271166060E+03  0.00000000000E+00 0.  1.
          2   -1    0    0  502    0  0.00000000000E+00 -0.00000000000E+00 -0.42590959682E+03  0.42590959682E+03  0.00000000000E+00 0. -1.
         23    2    1    2    0    0 -0.20625264668E+03 -0.42285318653E+02  0.61335718882E+03  0.65593578879E+03  0.98572387128E+02 0.  0.
         23    2    1    2    0    0  0.24528958431E+03 -0.45661127477E+02 -0.30789731069E+03  0.40645521690E+03  0.90294909481E+02 0.  0.
        -11    1    3    3    0    0 -0.16419064894E+03 -0.60073400894E+02  0.38192310300E+03  0.42003885451E+03  0.00000000000E+00 0.  1.
         11    1    3    3    0    0 -0.42061997745E+02  0.17788082241E+02  0.23143408581E+03  0.23589693428E+03  0.00000000000E+00 0. -1.
        -11    1    4    4    0    0  0.37453863245E+02 -0.16027354799E+02 -0.98851998431E+01  0.41921177820E+02  0.00000000000E+00 0.  1.
         11    1    4    4    0    0  0.20783572107E+03 -0.29633772678E+02 -0.29801211085E+03  0.36453403908E+03  0.00000000000E+00 0. -1.
         21    1    1    2  502  501 -0.39036937626E+02  0.87946446130E+02  0.13421856589E+01  0.96230251732E+02  0.00000000000E+00 0.  1.
<scales pt_clust_5="13000.00000" pt_clust_6="13000.00000" pt_clust_7="13000.00000" pt_clust_8="13000.00000" pt_clust_9="96.22089"></scales>
<clustering>
<clus scale="   90.295">  7  8 -1 -1</clus>
<clus scale="   96.221">  2  9  1 -1</clus>
<clus scale="   98.572">  5  6 -1 -1</clus>
<clus scale="  230.213">  2  7  1 -1</clus>
<clus scale="   96.221">  2  5  1 -1</clus>
</clustering>
</event>
<event>
 9    1  0.1612788E-005  0.1062081E+03  0.7546771E-02  0.1268363E+00
         -1   -1    0    0    0  501 -0.00000000000E+00  0.00000000000E+00  0.13219900535E+03  0.13219900535E+03  0.00000000000E+00 0.  1.
          1   -1    0    0  502    0  0.00000000000E+00 -0.00000000000E+00 -0.10618895509E+03  0.10618895509E+03  0.00000000000E+00 0. -1.
         23    2    1    2    0    0 -0.60246217393E+02 -0.18391040257E+02  0.18647388316E+02  0.11229045906E+03  0.91069122278E+02 0.  0.
         23    2    1    2    0    0  0.39775461080E+02  0.29307332587E+02  0.23476389803E+01  0.10236213204E+03  0.89618567384E+02 0.  0.
        -11    1    3    3    0    0 -0.41853799366E+02 -0.29707435847E+02  0.51673057519E+02  0.72831155005E+02  0.00000000000E+00 0.  1.
         11    1    3    3    0    0 -0.18392418027E+02  0.11316395589E+02 -0.33025669203E+02  0.39459304053E+02  0.00000000000E+00 0. -1.
        -11    1    4    4    0    0  0.37057825731E+02 -0.18760465653E+02  0.25709400258E+02  0.48848856497E+02  0.00000000000E+00 0.  1.
         11    1    4    4    0    0  0.27176353486E+01  0.48067798241E+02 -0.23361761277E+02  0.53513275545E+02  0.00000000000E+00 0. -1.
         21    1    1    2  502  501  0.20470756313E+02 -0.10916292330E+02  0.50150229675E+01  0.23735369338E+02  0.00000000000E+00 0. -1.
<scales pt_clust_5="13000.00000" pt_clust_6="13000.00000" pt_clust_7="13000.00000" pt_clust_8="13000.00000" pt_clust_9="23.19951"></scales>
<clustering>
<clus scale="   23.200">  1  9  2 -1</clus>
<clus scale="   89.619">  7  8 -1 -1</clus>
<clus scale="   91.069">  5  6 -1 -1</clus>
<clus scale="  104.967">  2  7  1 -1</clus>
<clus scale="  104.967">  2  5  1 -1</clus>
</clustering>
</event>
<event>
 9    1  0.1612788E-005  0.1590096E+03  0.7546771E-02  0.1190383E+00
          1   -1    0    0  502    0  0.00000000000E+00  0.00000000000E+00  0.69421286109E+02  0.69421286109E+02  0.00000000000E+00 0. -1.
         -1   -1    0    0    0  501 -0.00000000000E+00 -0.00000000000E+00 -0.64370257965E+03  0.64370257965E+03  0.00000000000E+00 0.  1.
         23    2    1    2    0    0 -0.92638687558E+02  0.26331224531E+02 -0.27784033318E+03  0.30856364283E+03  0.93493374728E+02 0.  0.
         23    2    1    2    0    0  0.12000319601E+03 -0.86549817615E+02 -0.10632016858E+03  0.20326191011E+03  0.90109865571E+02 0.  0.
        -11    1    3    3    0    0 -0.77295817716E+02 -0.14241151558E+02 -0.23418549735E+03  0.24702287547E+03  0.00000000000E+00 0.  1.
         11    1    3    3    0    0 -0.15342869841E+02  0.40572376089E+02 -0.43654835824E+02  0.61540767360E+02  0.00000000000E+00 0. -1.
        -13    1    4    4    0    0  0.22200302199E+02  0.18796193807E+02 -0.23247588008E+02  0.37237087259E+02  0.00000000000E+00 0.  1.
         13    1    4    4    0    0  0.97802893811E+02 -0.10534601142E+03 -0.83072580577E+02  0.16602482285E+03  0.00000000000E+00 0. -1.
         21    1    1    2  502  501 -0.27364508452E+02  0.60218593084E+02 -0.19012079178E+03  0.20129831281E+03  0.00000000000E+00 0.  1.
<scales pt_clust_5="13000.00000" pt_clust_6="13000.00000" pt_clust_7="13000.00000" pt_clust_8="13000.00000" pt_clust_9="66.14450"></scales>
<clustering>
<clus scale="   66.145">  2  9  1 -1</clus>
<clus scale="   90.110">  7  8 -1 -1</clus>
<clus scale="   93.493">  5  6 -1 -1</clus>
<clus scale="  157.044">  1  7  2 -1</clus>
<clus scale="  157.044">  1  5  2 -1</clus>
</clustering>
</event>
<event>
 9    1  0.1612788E-005  0.1417584E+03  0.7546771E-02  0.1211830E+00
         -1   -1    0    0    0  501 -0.00000000000E+00  0.00000000000E+00  0.53470388717E+02  0.53470388717E+02  0.00000000000E+00 0.  1.
          1   -1    0    0  502    0  0.00000000000E+00 -0.00000000000E+00 -0.45777658939E+03  0.45777658939E+03  0.00000000000E+00 0. -1.
         23    2    1    2    0    0 -0.10194628614E+03  0.56660918562E+02 -0.17206853843E+03  0.22827562219E+03  0.94332777004E+02 0.  0.
         23    2    1    2    0    0  0.83267734363E+02 -0.40200810228E+02 -0.21038065518E+03  0.24984203024E+03  0.98037744103E+02 0.  0.
        -13    1    4    4    0    0  0.38181722421E+02 -0.55113024152E+02 -0.18329480547E+03  0.19517242395E+03  0.00000000000E+00 0.  1.
         13    1    4    4    0    0  0.45086011941E+02  0.14912213925E+02 -0.27085849713E+02  0.54669606287E+02  0.00000000000E+00 0. -1.
        -13    1    3    3    0    0 -0.36366122140E+02  0.52430570500E+02 -0.27519665332E+02  0.69489506707E+02  0.00000000000E+00 0.  1.
         13    1    3    3    0    0 -0.65580163995E+02  0.42303480624E+01 -0.14454887310E+03  0.15878611548E+03  0.00000000000E+00 0. -1.
         21    1    1    2  502  501  0.18678551773E+02 -0.16460108334E+02 -0.21857007056E+02  0.33129325682E+02  0.00000000000E+00 0. -1.
<scales pt_clust_5="13000.00000" pt_clust_6="13000.00000" pt_clust_7="13000.00000" pt_clust_8="13000.00000" pt_clust_9="24.89625"></scales>
<clustering>
<clus scale="   24.896">  1  9  2 -1</clus>
<clus scale="   94.333">  7  8 -1 -1</clus>
<clus scale="   98.038">  5  6 -1 -1</clus>
<clus scale="  139.222">  1  7  2 -1</clus>
<clus scale="  141.758">  2  5  1 -1</clus>
</clustering>
</event>
<event>
 9    1  0.1612788E-005  0.1106716E+03  0.7546771E-02  0.1260993E+00
         -2   -1    0    0    0  501 -0.00000000000E+00  0.00000000000E+00  0.64528772694E+02  0.64528772694E+02  0.00000000000E+00 0. -1.
          2   -1    0    0  502    0  0.00000000000E+00 -0.00000000000E+00 -0.49091735092E+03  0.49091735092E+03  0.00000000000E+00 0.  1.
         23    2    1    2    0    0 -0.97903528812E+01  0.34777126757E+02  0.18090463147E+00  0.10419629316E+03  0.97731956017E+02 0.  0.
         23    2    1    2    0    0 -0.33592195863E+01 -0.54230714538E+02 -0.40545907728E+03  0.41967448315E+03  0.93687532284E+02 0.  0.
        -11    1    4    4    0    0 -0.29876934003E+02  0.15000308860E+02 -0.10441724821E+03  0.10963850681E+03  0.00000000000E+00 0. -1.
         11    1    4    4    0    0  0.26517714416E+02 -0.69231023398E+02 -0.30104182906E+03  0.31003597634E+03  0.00000000000E+00 0.  1.
        -13    1    3    3    0    0  0.79599305715E+01 -0.18651063631E+02 -0.33083521178E+02  0.38803892109E+02  0.00000000000E+00 0.  1.
         13    1    3    3    0    0 -0.17750283453E+02  0.53428190388E+02  0.33264425810E+02  0.65392401051E+02  0.00000000000E+00 0. -1.
         21    1    1    2  502  501  0.13149572467E+02  0.19453587780E+02 -0.21110405584E+02  0.31575347306E+02  0.00000000000E+00 0. -1.
<scales pt_clust_5="13000.00000" pt_clust_6="13000.00000" pt_clust_7="13000.00000" pt_clust_8="13000.00000" pt_clust_9="23.48091"></scales>
<clustering>
<clus scale="   23.481">  1  9  2 -1</clus>
<clus scale="   93.688">  5  6 -1 -1</clus>
<clus scale="   97.732">  7  8 -1 -1</clus>
<clus scale="  107.117">  2  5  1 -1</clus>
<clus scale="  107.117">  2  5  1 -1</clus>
</clustering>
</event>
<event>
 9    1  0.1612788E-005  0.1002156E+03  0.7546771E-02  0.1281421E+00
          2   -1    0    0  502    0  0.00000000000E+00  0.00000000000E+00  0.11735558410E+03  0.11735558410E+03  0.00000000000E+00 0. -1.
         -2   -1    0    0    0  501 -0.00000000000E+00 -0.00000000000E+00 -0.26243989676E+03  0.26243989676E+03  0.00000000000E+00 0.  1.
         23    2    1    2    0    0 -0.19238971765E+01 -0.31726785910E+02 -0.39775567303E+02  0.10528875700E+03  0.92159298342E+02 0.  0.
         23    2    1    2    0    0 -0.42578201225E+02  0.36955980017E+01  0.46154830504E+02  0.11417145304E+03  0.95280069511E+02 0.  0.
        -11    1    3    3    0    0  0.42976609655E+02 -0.68556211757E+01 -0.30462536941E+02  0.53122073341E+02  0.00000000000E+00 0.  1.
         11    1    3    3    0    0 -0.44900506832E+02 -0.24871164734E+02 -0.93130303620E+01  0.52166683654E+02  0.00000000000E+00 0. -1.
        -13    1    4    4    0    0 -0.39320767482E+02 -0.34467727570E+02  0.53898327205E+02  0.75094451690E+02  0.00000000000E+00 0. -1.
         13    1    4    4    0    0 -0.32574337434E+01  0.38163325572E+02 -0.77434967001E+01  0.39077001349E+02  0.00000000000E+00 0.  1.
         21    1    1    2  502  501  0.44502098401E+02  0.28031187908E+02 -0.15146357586E+03  0.16033527082E+03  0.00000000000E+00 0.  1.
<scales pt_clust_5="13000.00000" pt_clust_6="13000.00000" pt_clust_7="13000.00000" pt_clust_8="13000.00000" pt_clust_9="52.59453"></scales>
<clustering>
<clus scale="   52.595">  2  9  1 -1</clus>
<clus scale="   92.159">  5  6 -1 -1</clus>
<clus scale="   95.280">  7  8 -1 -1</clus>
<clus scale="   97.253">  2  5  1 -1</clus>
<clus scale="  100.216">  1  5  2 -1</clus>
</clustering>
</event>
<event>
 9    1  0.1612788E-005  0.1315712E+03  0.7546771E-02  0.1225957E+00
         -1   -1    0    0    0  501 -0.00000000000E+00  0.00000000000E+00  0.11038751633E+03  0.11038751633E+03  0.00000000000E+00 0.  1.
          1   -1    0    0  502    0  0.00000000000E+00 -0.00000000000E+00 -0.30239514114E+03  0.30239514114E+03  0.00000000000E+00 0. -1.
         23    2    1    2    0    0  0.90958560036E+02  0.10311244918E+03 -0.12009507100E+03  0.20518602577E+03  0.93663452182E+02 0.  0.
         23    2    1    2    0    0 -0.46589688175E+02 -0.39816719834E+02 -0.70880163233E+02  0.13029196190E+03  0.90531914665E+02 0.  0.
        -11    1    4    4    0    0 -0.24647945558E+02 -0.67323890847E+02 -0.59923704701E+02  0.93439166756E+02  0.00000000000E+00 0. -1.
         11    1    4    4    0    0 -0.21941742617E+02  0.27507171013E+02 -0.10956458532E+02  0.36852795142E+02  0.00000000000E+00 0.  1.
        -13    1    3    3    0    0 -0.38369479593E+01  0.51956093611E+02 -0.13893659000E+02  0.53918378994E+02  0.00000000000E+00 0. -1.
         13    1    3    3    0    0  0.94795507995E+02  0.51156355566E+02 -0.10620141200E+03  0.15126764678E+03  0.00000000000E+00 0.  1.
         21    1    1    2  502  501 -0.44368871861E+02 -0.63295729343E+02 -0.10323905777E+01  0.77304669804E+02  0.00000000000E+00 0. -1.
<scales pt_clust_5="13000.00000" pt_clust_6="13000.00000" pt_clust_7="13000.00000" pt_clust_8="13000.00000" pt_clust_9="77.29778"></scales>
<clustering>
<clus scale="   77.298">  1  9  2 -1</clus>
<clus scale="   90.532">  5  6 -1 -1</clus>
<clus scale="   93.663">  7  8 -1 -1</clus>
<clus scale="  129.361">  2  5  1 -1</clus>
<clus scale="  129.361">  2  5  1 -1</clus>
</clustering>
</event>
<event>
 9    1  0.1670093E-005  0.1217942E+03  0.7546771E-02  0.1240869E+00
          1   -1    0    0  502    0  0.00000000000E+00  0.00000000000E+00  0.16740296025E+03  0.16740296025E+03  0.00000000000E+00 0. -1.
         -1   -1    0    0    0  501 -0.00000000000E+00 -0.00000000000E+00 -0.50925619312E+03  0.50925619312E+03  0.00000000000E+00 0.  1.
         23    2    1    2    0    0 -0.80436349074E+02 -0.16118477444E+02 -0.40430336168E+03  0.42224032148E+03  0.89977048443E+02 0.  0.
         23    2    1    2    0    0  0.70223217446E+02  0.43025586564E+02  0.13235174699E+03  0.17882427652E+03  0.87627824191E+02 0.  0.
        -11    1    3    3    0    0 -0.69169170311E+02  0.26329255487E+02 -0.30146102609E+03  0.31041319892E+03  0.00000000000E+00 0.  1.
         11    1    3    3    0    0 -0.11267178763E+02 -0.42447732931E+02 -0.10284233559E+03  0.11182712255E+03  0.00000000000E+00 0. -1.
        -11    1    4    4    0    0  0.69921900318E+02 -0.25949530355E+01  0.54909137018E+02  0.88942786404E+02  0.00000000000E+00 0. -1.
         11    1    4    4    0    0  0.30131712817E+00  0.45620539599E+02  0.77442609974E+02  0.89881490113E+02  0.00000000000E+00 0.  1.
         21    1    1    2  502  501  0.10213131629E+02 -0.26907109120E+02 -0.69901618180E+02  0.75594555380E+02  0.00000000000E+00 0.  1.
<scales pt_clust_5="13000.00000" pt_clust_6="13000.00000" pt_clust_7="13000.00000" pt_clust_8="13000.00000" pt_clust_9="28.78021"></scales>
<clustering>
<clus scale="   28.780">  2  9  1 -1</clus>
<clus scale="   87.628">  7  8 -1 -1</clus>
<clus scale="   89.977">  5  6 -1 -1</clus>
<clus scale="  120.069">  1  7  2 -1</clus>
<clus scale="  120.069">  1  5  2 -1</clus>
</clustering>
</event>
<event>
 9    1  0.1612788E-005  0.1103904E+03  0.7546771E-02  0.1261729E+00
         -2   -1    0    0    0  501 -0.00000000000E+00  0.00000000000E+00  0.12624932162E+03  0.12624932162E+03  0.00000000000E+00 0.  1.
          2   -1    0    0  502    0  0.00000000000E+00 -0.00000000000E+00 -0.35465739364E+03  0.35465739364E+03  0.00000000000E+00 0. -1.
         23    2    1    2    0    0 -0.21697297525E+02 -0.62668708007E+02  0.66276436408E+02  0.13408504156E+03  0.95854539094E+02 0.  0.
         23    2    1    2    0    0  0.93341513077E+00  0.53975926850E+02 -0.30438334550E+03  0.32231104953E+03  0.91219075239E+02 0.  0.
        -11    1    4    4    0    0 -0.23705514112E+02 -0.17300737752E+02 -0.64736618606E+02  0.71078102919E+02  0.00000000000E+00 0.  1.
         11    1    4    4    0    0  0.24638929243E+02  0.71276664602E+02 -0.23964672690E+03  0.25123294661E+03  0.00000000000E+00 0. -1.
        -13    1    3    3    0    0 -0.33533721268E+02 -0.25574474358E+02  0.81908024437E+02  0.92127567362E+02  0.00000000000E+00 0.  1.
         13    1    3    3    0    0  0.11836423743E+02 -0.37094233648E+02 -0.15631588030E+02  0.41957474201E+02  0.00000000000E+00 0. -1.
         21    1    1    2  502  501  0.20763882394E+02  0.86927811563E+01  0.96988370692E+01  0.24510624162E+02  0.00000000000E+00 0. -1.
<scales pt_clust_5="13000.00000" pt_clust_6="13000.00000" pt_clust_7="13000.00000" pt_clust_8="13000.00000" pt_clust_9="22.51007"></scales>
<clustering>
<clus scale="   22.510">  1  9  2 -1</clus>
<clus scale="   91.219">  5  6 -1 -1</clus>
<clus scale="   95.855">  7  8 -1 -1</clus>
<clus scale="  106.390">  2  5  1 -1</clus>
<clus scale="  106.390">  2  5  1 -1</clus>
</clustering>
</event>
<event>
 9    1  0.1612788E-005  0.1006795E+03  0.7546771E-02  0.1287161E+00
         -1   -1    0    0    0  501 -0.00000000000E+00  0.00000000000E+00  0.31365700187E+03  0.31365700187E+03  0.00000000000E+00 0.  1.
          1   -1    0    0  502    0  0.00000000000E+00 -0.00000000000E+00 -0.65595435886E+02  0.65595435886E+02  0.00000000000E+00 0. -1.
         23    2    1    2    0    0 -0.41303795317E+02  0.14915021055E+02  0.13830860624E+03  0.17266848693E+03  0.93577104333E+02 0.  0.
         23    2    1    2    0    0  0.35636756196E+02  0.10265054149E+02 -0.76584949288E+01  0.86369138070E+02  0.77624904107E+02 0.  0.
        -11    1    4    4    0    0 -0.40854056851E+01  0.37336266786E+02  0.76508960881E+00  0.37566909898E+02  0.00000000000E+00 0.  1.
         11    1    4    4    0    0  0.39722161881E+02 -0.27071212637E+02 -0.84235845376E+01  0.48802228173E+02  0.00000000000E+00 0. -1.
        -13    1    3    3    0    0 -0.34399546805E+01  0.45967324366E+02  0.33495385151E+02  0.56980426674E+02  0.00000000000E+00 0. -1.
         13    1    3    3    0    0 -0.37863840636E+02 -0.31052303311E+02  0.10481322109E+03  0.11568806025E+03  0.00000000000E+00 0.  1.
         21    1    1    2  502  501  0.56670391212E+01 -0.25180075204E+02  0.11741145466E+03  0.12021481276E+03  0.00000000000E+00 0. -1.
<scales pt_clust_5="13000.00000" pt_clust_6="13000.00000" pt_clust_7="13000.00000" pt_clust_8="13000.00000" pt_clust_9="25.80991"></scales>
<clustering>
<clus scale="   25.810">  1  9  2 -1</clus>
<clus scale="   77.625">  5  6 -1 -1</clus>
<clus scale="   86.054">  2  5  1 -1</clus>
<clus scale="   93.577">  7  8 -1 -1</clus>
<clus scale="   86.054">  2  5  1 -1</clus>
</clustering>
</event>
<event>
 9    1  0.1612788E-005  0.9981657E+02  0.7546771E-02  0.1282198E+00
          3   -1    0    0  502    0  0.00000000000E+00  0.00000000000E+00  0.19618435381E+03  0.19618435381E+03  0.00000000000E+00 0. -1.
         -3   -1    0    0    0  501 -0.00000000000E+00 -0.00000000000E+00 -0.90746538804E+02  0.90746538804E+02  0.00000000000E+00 0.  1.
         23    2    1    2    0    0  0.74065751528E+01  0.59767197636E+01  0.12976660835E+02  0.94119551171E+02  0.92733584270E+02 0.  0.
         23    2    1    2    0    0  0.67187533492E+01 -0.54679566297E+02  0.95353158233E+02  0.14201906001E+03  0.89678269404E+02 0.  0.
        -11    1    3    3    0    0  0.14578525117E+02 -0.37885311324E+02 -0.13019905973E+02  0.42630366644E+02  0.00000000000E+00 0.  1.
         11    1    3    3    0    0 -0.71719499638E+01  0.43862031087E+02  0.25996566808E+02  0.51489184526E+02  0.00000000000E+00 0. -1.
        -13    1    4    4    0    0  0.41729443386E+02 -0.45781785061E+02  0.33588513567E+02  0.70466350355E+02  0.00000000000E+00 0. -1.
         13    1    4    4    0    0 -0.35010690037E+02 -0.88977812352E+01  0.61764644666E+02  0.71552709652E+02  0.00000000000E+00 0.  1.
         21    1    1    2  502  501 -0.14125328502E+02  0.48702846533E+02 -0.28920040648E+01  0.50792281434E+02  0.00000000000E+00 0.  1.
<scales pt_clust_5="13000.00000" pt_clust_6="13000.00000" pt_clust_7="13000.00000" pt_clust_8="13000.00000" pt_clust_9="50.70988"></scales>
<clustering>
<clus scale="   50.710">  2  9  1 -1</clus>
<clus scale="   89.678">  7  8 -1 -1</clus>
<clus scale="   92.734">  5  6 -1 -1</clus>
<clus scale="   96.985">  1  7  2 -1</clus>
<clus scale="   96.985">  1  5  2 -1</clus>
</clustering>
</event>
<event>
 9    1  0.1612788E-005  0.1105935E+03  0.7546771E-02  0.1268631E+00
         -1   -1    0    0    0  501 -0.00000000000E+00  0.00000000000E+00  0.18625122102E+03  0.18625122102E+03  0.00000000000E+00 0.  1.
          1   -1    0    0  502    0  0.00000000000E+00 -0.00000000000E+00 -0.84856617145E+02  0.84856617145E+02  0.00000000000E+00 0. -1.
         23    2    1    2    0    0 -0.29137465997E+02 -0.26197001247E+02  0.29770732175E+02  0.11820521324E+03  0.10747511872E+03 0.  0.
         23    2    1    2    0    0  0.42330433184E+01  0.17985888089E+02  0.16873089284E+02  0.92195946354E+02  0.88735452645E+02 0.  0.
        -11    1    3    3    0    0 -0.47122362000E+01 -0.34516287103E+02 -0.34450575880E+02  0.48994095806E+02  0.00000000000E+00 0. -1.
         11    1    3    3    0    0 -0.24425229797E+02  0.83192858564E+01  0.64221308055E+02  0.69211117431E+02  0.00000000000E+00 0.  1.
        -13    1    4    4    0    0 -0.14137755878E+02  0.47308174578E+02  0.26824523780E+02  0.56191588331E+02  0.00000000000E+00 0.  1.
         13    1    4    4    0    0  0.18370799196E+02 -0.29322286489E+02 -0.99514344965E+01  0.36004358023E+02  0.00000000000E+00 0. -1.
         21    1    1    2  502  501  0.24904422678E+02  0.82111131585E+01  0.54750782414E+02  0.60706678571E+02  0.00000000000E+00 0.  1.
<scales pt_clust_5="13000.00000" pt_clust_6="13000.00000" pt_clust_7="13000.00000" pt_clust_8="13000.00000" pt_clust_9="26.22313"></scales>
<clustering>
<clus scale="   26.223">  1  9  2 -1</clus>
<clus scale="   88.735">  7  8 -1 -1</clus>
<clus scale="   92.488">  2  7  1 -1</clus>
<clus scale="  107.475">  5  6 -1 -1</clus>
<clus scale="   92.488">  2  5  1 -1</clus>
</clustering>
</event>
<event>
 9    1  0.1612788E-005  0.1496191E+03  0.7546771E-02  0.1201461E+00
          1   -1    0    0  502    0  0.00000000000E+00  0.00000000000E+00  0.46325928281E+02  0.46325928281E+02  0.00000000000E+00 0. -1.
         -1   -1    0    0    0  501 -0.00000000000E+00 -0.00000000000E+00 -0.75529442136E+03  0.75529442136E+03  0.00000000000E+00 0.  1.
         23    2    1    2    0    0  0.46981465454E+02 -0.10843334281E+03 -0.35797294613E+03  0.38869008804E+03  0.94711701743E+02 0.  0.
         23    2    1    2    0    0 -0.14074036717E+02  0.11541226797E+03 -0.15670015074E+03  0.21574429544E+03  0.92046692862E+02 0.  0.
        -11    1    3    3    0    0  0.42561918289E+02 -0.14718151585E+01 -0.76641312859E+02  0.87678811380E+02  0.00000000000E+00 0.  1.
         11    1    3    3    0    0  0.44195471650E+01 -0.10696152765E+03 -0.28133163327E+03  0.30101127666E+03  0.00000000000E+00 0. -1.
        -13    1    4    4    0    0 -0.36460604869E+02  0.60397411109E+02 -0.13534145536E+03  0.15262546483E+03  0.00000000000E+00 0.  1.
         13    1    4    4    0    0  0.22386568153E+02  0.55014856862E+02 -0.21358695375E+02  0.63118830608E+02  0.00000000000E+00 0. -1.
         21    1    1    2  502  501 -0.32907428737E+02 -0.69789251586E+01 -0.19429539622E+03  0.19718596617E+03  0.00000000000E+00 0.  1.
<scales pt_clust_5="13000.00000" pt_clust_6="13000.00000" pt_clust_7="13000.00000" pt_clust_8="13000.00000" pt_clust_9="33.63933"></scales>
<clustering>
<clus scale="   33.639">  2  9  1 -1</clus>
<clus scale="   92.047">  7  8 -1 -1</clus>
<clus scale="   94.712">  5  6 -1 -1</clus>
<clus scale="  147.946">  1  7  2 -1</clus>
<clus scale="  147.946">  1  5  2 -1</clus>
</clustering>
</event>
<event>
 9    1  0.1612788E-005  0.1456878E+03  0.7546771E-02  0.1206236E+00
         -2   -1    0    0    0  501 -0.00000000000E+00  0.00000000000E+00  0.10424450733E+03  0.10424450733E+03  0.00000000000E+00 0.  1.
          2   -1    0    0  502    0  0.00000000000E+00 -0.00000000000E+00 -0.37874889097E+03  0.37874889097E+03  0.00000000000E+00 0. -1.
         23    2    1    2    0    0  0.86758722155E+02 -0.42842179104E+02 -0.58676943717E+02  0.14727059882E+03  0.94250291095E+02 0.  0.
         23    2    1    2    0    0 -0.11908828388E+03  0.14952053545E+02 -0.24208489366E+03  0.28559782027E+03  0.92495599602E+02 0.  0.
        -11    1    4    4    0    0 -0.12855391168E+03 -0.52470548922E+01 -0.19693978669E+03  0.23524225678E+03  0.00000000000E+00 0. -1.
         11    1    4    4    0    0  0.94656278075E+01  0.20199108437E+02 -0.45145106964E+02  0.50355563489E+02  0.00000000000E+00 0.  1.
        -11    1    3    3    0    0  0.18657131454E+02 -0.57652077358E+02 -0.80465510566E+01  0.61127715168E+02  0.00000000000E+00 0.  1.
         11    1    3    3    0    0  0.68101590701E+02  0.14809898254E+02 -0.50630392660E+02  0.86142883648E+02  0.00000000000E+00 0. -1.
         21    1    1    2  502  501  0.32329561722E+02  0.27890125559E+02  0.26257453736E+02  0.50124979217E+02  0.00000000000E+00 0. -1.
<scales pt_clust_5="13000.00000" pt_clust_6="13000.00000" pt_clust_7="13000.00000" pt_clust_8="13000.00000" pt_clust_9="42.69730"></scales>
<clustering>
<clus scale="   42.697">  1  9  2 -1</clus>
<clus scale="   92.496">  5  6 -1 -1</clus>
<clus scale="   94.250">  7  8 -1 -1</clus>
<clus scale="  144.559">  2  5  1 -1</clus>
<clus scale="  144.559">  2  5  1 -1</clus>
</clustering>
</event>
<event>
 9    1  0.1612788E-005  0.9442709E+02  0.7546771E-02  0.1292572E+00
         -1   -1    0    0    0  501 -0.00000000000E+00  0.00000000000E+00  0.42708267219E+03  0.42708267219E+03  0.00000000000E+00 0.  1.
          1   -1    0    0  502    0  0.00000000000E+00 -0.00000000000E+00 -0.77141413394E+02  0.77141413394E+02  0.00000000000E+00 0. -1.
         23    2    1    2    0    0  0.46850931117E+02  0.19569432565E+02  0.22295071378E+03  0.24605973570E+03  0.90886744476E+02 0.  0.
         23    2    1    2    0    0  0.28342783775E+02  0.28258210431E+02 -0.45884815691E+01  0.99247332446E+02  0.90703577580E+02 0.  0.
        -11    1    3    3    0    0  0.28294745236E+02  0.53669592212E+02  0.16924832680E+03  0.17979436549E+03  0.00000000000E+00 0.  1.
         11    1    3    3    0    0  0.18556185881E+02 -0.34100159647E+02  0.53702386976E+02  0.66265370212E+02  0.00000000000E+00 0. -1.
        -11    1    4    4    0    0  0.30697743922E+02 -0.14502840363E+02 -0.33404586679E+02  0.47629300558E+02  0.00000000000E+00 0.  1.
         11    1    4    4    0    0 -0.23549601472E+01  0.42761050794E+02  0.28816105110E+02  0.51618031888E+02  0.00000000000E+00 0. -1.
         21    1    1    2  502  501 -0.75193714891E+02 -0.47827642996E+02  0.13157902659E+03  0.15891701744E+03  0.00000000000E+00 0. -1.
<scales pt_clust_5="13000.00000" pt_clust_6="13000.00000" pt_clust_7="13000.00000" pt_clust_8="13000.00000" pt_clust_9="89.11553"></scales>
<clustering>
<clus scale="   89.116">  1  9  2 -1</clus>
<clus scale="   90.704">  7  8 -1 -1</clus>
<clus scale="   90.887">  5  6 -1 -1</clus>
<clus scale="   94.251">  2  7  1 -1</clus>
<clus scale="   94.251">  2  5  1 -1</clus>
</clustering>
</event>
<event>
 9    1  0.1612788E-005  0.1549335E+03  0.7546771E-02  0.1194806E+00
          2   -1    0    0  502    0  0.00000000000E+00  0.00000000000E+00  0.10396611367E+04  0.10396611367E+04  0.00000000000E+00 0. -1.
         -2   -1    0    0    0  501 -0.00000000000E+00 -0.00000000000E+00 -0.37874775223E+02  0.37874775223E+02  0.00000000000E+00 0.  1.
         23    2    1    2    0    0 -0.10442463851E+03  0.60613974780E+01  0.24284723110E+03  0.27914128328E+03  0.89464142034E+02 0.  0.
         23    2    1    2    0    0  0.13558749628E+03  0.74207282917E+01  0.74320726912E+03  0.76097293872E+03  0.91015011038E+02 0.  0.
        -13    1    4    4    0    0  0.55901153253E+02  0.42436612400E+02  0.23112988676E+03  0.24155088400E+03  0.00000000000E+00 0.  1.
         13    1    4    4    0    0  0.79686343025E+02 -0.35015884108E+02  0.51207738236E+03  0.51942205472E+03  0.00000000000E+00 0. -1.
        -13    1    3    3    0    0 -0.21998035326E+02 -0.33920525673E+02  0.11469028424E+03  0.12160747065E+03  0.00000000000E+00 0. -1.
         13    1    3    3    0    0 -0.82426603180E+02  0.39981923151E+02  0.12815694687E+03  0.15753381263E+03  0.00000000000E+00 0.  1.
         21    1    1    2  502  501 -0.31162857773E+02 -0.13482125770E+02  0.15731861291E+02  0.37421689961E+02  0.00000000000E+00 0. -1.
<scales pt_clust_5="13000.00000" pt_clust_6="13000.00000" pt_clust_7="13000.00000" pt_clust_8="13000.00000" pt_clust_9="33.95425"></scales>
<clustering>
<clus scale="   33.954">  2  9  1 -1</clus>
<clus scale="   89.464">  7  8 -1 -1</clus>
<clus scale="   91.015">  5  6 -1 -1</clus>
<clus scale="  154.028">  2  7  1 -1</clus>
<clus scale="  154.934">  1  5  2 -1</clus>
</clustering>
</event>
<event>
 9    1  0.1775987E-005  0.9354220E+02  0.7546771E-02  0.1295592E+00
         -2   -1    0    0    0  501 -0.00000000000E+00  0.00000000000E+00  0.17731641831E+03  0.17731641831E+03  0.00000000000E+00 0.  1.
          2   -1    0    0  502    0  0.00000000000E+00 -0.00000000000E+00 -0.13642011885E+03  0.13642011885E+03  0.00000000000E+00 0. -1.
         23    2    1    2    0    0 -0.31460746898E+01  0.14438990590E+02  0.11693906044E+03  0.15022241893E+03  0.93132427531E+02 0.  0.
         23    2    1    2    0    0  0.81165712655E+01  0.70698875172E+01 -0.96629133309E+02  0.13332908222E+03  0.91233725792E+02 0.  0.
        -13    1    4    4    0    0 -0.41153788876E+02  0.85724431863E+01 -0.51689715297E+02  0.66625428993E+02  0.00000000000E+00 0.  1.
         13    1    4    4    0    0  0.49270360141E+02 -0.15025556692E+01 -0.44939418012E+02  0.66703653222E+02  0.00000000000E+00 0. -1.
        -13    1    3    3    0    0 -0.27205908614E+02  0.89544167709E+01  0.12175617531E+03  0.12507961173E+03  0.00000000000E+00 0.  1.
         13    1    3    3    0    0  0.24059833924E+02  0.54845738188E+01 -0.48171148714E+01  0.25142807205E+02  0.00000000000E+00 0. -1.
         21    1    1    2  502  501 -0.49704965757E+01 -0.21508878107E+02  0.20586372320E+02  0.30185036010E+02  0.00000000000E+00 0.  1.
<scales pt_clust_5="13000.00000" pt_clust_6="13000.00000" pt_clust_7="13000.00000" pt_clust_8="13000.00000" pt_clust_9="22.07573"></scales>
<clustering>
<clus scale="   22.076">  1  9  2 -1</clus>
<clus scale="   91.234">  5  6 -1 -1</clus>
<clus scale="   91.652">  2  5  1 -1</clus>
<clus scale="   93.132">  7  8 -1 -1</clus>
<clus scale="   91.652">  2  5  1 -1</clus>
</clustering>
</event>
<event>
 9    1  0.1612788E-005  0.1023958E+03  0.7546771E-02  0.1275642E+00
          1   -1    0    0  502    0  0.00000000000E+00  0.00000000000E+00  0.32276436466E+03  0.32276436466E+03  0.00000000000E+00 0. -1.
         -1   -1    0    0    0  501 -0.00000000000E+00 -0.00000000000E+00 -0.22158260360E+03  0.22158260360E+03  0.00000000000E+00 0.  1.
         23    2    1    2    0    0 -0.10109061352E+02  0.28081190669E+01 -0.22618137898E+02  0.95163051249E+02  0.91838703752E+02 0.  0.
         23    2    1    2    0    0  0.38698807461E+02 -0.33420516642E+02  0.27399464980E+03  0.29325779460E+03  0.91173117421E+02 0.  0.
        -11    1    4    4    0    0  0.51981892654E+02  0.14843807802E+02  0.12919186586E+03  0.14004639945E+03  0.00000000000E+00 0.  1.
         11    1    4    4    0    0 -0.13283085192E+02 -0.48264324443E+02  0.14480278394E+03  0.15321139515E+03  0.00000000000E+00 0. -1.
        -11    1    3    3    0    0  0.11060238309E+02  0.44029044916E+02 -0.53500379543E+01  0.45711142775E+02  0.00000000000E+00 0.  1.
         11    1    3    3    0    0 -0.21169299662E+02 -0.41220925849E+02 -0.17268099944E+02  0.49451908474E+02  0.00000000000E+00 0. -1.
         21    1    1    2  502  501 -0.28589746109E+02  0.30612397575E+02 -0.15019475085E+03  0.15592612241E+03  0.00000000000E+00 0.  1.
<scales pt_clust_5="13000.00000" pt_clust_6="13000.00000" pt_clust_7="13000.00000" pt_clust_8="13000.00000" pt_clust_9="41.88666"></scales>
<clustering>
<clus scale="   41.887">  2  9  1 -1</clus>
<clus scale="   91.173">  5  6 -1 -1</clus>
<clus scale="   91.839">  7  8 -1 -1</clus>
<clus scale="  101.799">  1  5  2 -1</clus>
<clus scale="  101.799">  1  5  2 -1</clus>
</clustering>
</event>
<event>
 9    1  0.1612788E-005  0.9260983E+02  0.7546771E-02  0.1297650E+00
          2   -1    0    0  502    0  0.00000000000E+00  0.00000000000E+00  0.25320324132E+03  0.25320324132E+03  0.00000000000E+00 0. -1.
         -2   -1    0    0    0  501 -0.00000000000E+00 -0.00000000000E+00 -0.48402227133E+02  0.48402227133E+02  0.00000000000E+00 0.  1.
         23    2    1    2    0    0  0.16074616570E+02  0.17694495023E+02  0.44127261237E+02  0.10495143237E+03  0.92174288820E+02 0.  0.
         23    2    1    2    0    0 -0.19146698325E+01 -0.15646037607E+01  0.14094714275E+03  0.16750242149E+03  0.90470161983E+02 0.  0.
        -11    1    3    3    0    0  0.17311079718E+02  0.43925445881E+02 -0.67531404702E+01  0.47694058152E+02  0.00000000000E+00 0. -1.
         11    1    3    3    0    0 -0.12364631471E+01 -0.26230950858E+02  0.50880401707E+02  0.57257374214E+02  0.00000000000E+00 0.  1.
        -13    1    4    4    0    0  0.43149282912E+02  0.16916679619E+00  0.87577806623E+02  0.97630740272E+02  0.00000000000E+00 0. -1.
         13    1    4    4    0    0 -0.45063952744E+02 -0.17337705569E+01  0.53369336130E+02  0.69871681218E+02  0.00000000000E+00 0.  1.
         21    1    1    2  502  501 -0.14159946738E+02 -0.16129891262E+02  0.19726610196E+02  0.29151614596E+02  0.00000000000E+00 0. -1.
<scales pt_clust_5="13000.00000" pt_clust_6="13000.00000" pt_clust_7="13000.00000" pt_clust_8="13000.00000" pt_clust_9="21.46340"></scales>
<clustering>
<clus scale="   21.463">  2  9  1 -1</clus>
<clus scale="   90.470">  7  8 -1 -1</clus>
<clus scale="   90.914">  1  7  2 -1</clus>
<clus scale="   92.174">  5  6 -1 -1</clus>
<clus scale="   90.914">  1  5  2 -1</clus>
</clustering>
</event>
<event>
 9    1  0.1612788E-005  0.4388219E+03  0.7546771E-02  0.1031128E+00
         -2   -1    0    0    0  501 -0.00000000000E+00  0.00000000000E+00  0.90882152640E+02  0.90882152640E+02  0.00000000000E+00 0.  1.
          2   -1    0    0  502    0  0.00000000000E+00 -0.00000000000E+00 -0.25836646808E+04  0.25836646808E+04  0.00000000000E+00 0. -1.
         23    2    1    2    0    0  0.31886420471E+03  0.27910318126E+03 -0.10028183092E+04  0.10925975098E+04  0.92475890278E+02 0.  0.
         23    2    1    2    0    0 -0.34082883685E+03 -0.26631620270E+03 -0.14921921227E+04  0.15564362791E+04  0.93637300403E+02 0.  0.
        -13    1    4    4    0    0 -0.17885495104E+02 -0.39663473286E+02 -0.92876240861E+02  0.10256255732E+03  0.00000000000E+00 0.  1.
         13    1    4    4    0    0 -0.32294334175E+03 -0.22665272941E+03 -0.13993158819E+04  0.14538737218E+04  0.00000000000E+00 0. -1.
        -13    1    3    3    0    0  0.28167300431E+03  0.22008962282E+03 -0.89960770281E+03  0.96802538313E+03  0.00000000000E+00 0.  1.
         13    1    3    3    0    0  0.37191200406E+02  0.59013558441E+02 -0.10321060637E+03  0.12457212664E+03  0.00000000000E+00 0. -1.
         21    1    1    2  502  501  0.21964632139E+02 -0.12786978570E+02  0.22279037591E+01  0.25513044528E+02  0.00000000000E+00 0.  1.
<scales pt_clust_5="13000.00000" pt_clust_6="13000.00000" pt_clust_7="13000.00000" pt_clust_8="13000.00000" pt_clust_9="25.41558"></scales>
<clustering>
<clus scale="   25.416">  1  9  2 -1</clus>
<clus scale="   92.476">  7  8 -1 -1</clus>
<clus scale="   93.637">  5  6 -1 -1</clus>
<clus scale="  438.576">  1  7  2 -1</clus>
<clus scale="  438.822">  2  5  1 -1</clus>
</clustering>
</event>
<event>
 9    1  0.1612788E-005  0.1055526E+03  0.7546771E-02  0.1269222E+00
         -1   -1    0    0    0  501 -0.00000000000E+00  0.00000000000E+00  0.73159782939E+02  0.73159782939E+02  0.00000000000E+00 0.  1.
          1   -1    0    0  502    0  0.00000000000E+00 -0.00000000000E+00 -0.53182249232E+03  0.53182249232E+03  0.00000000000E+00 0. -1.
         23    2    1    2    0    0  0.39952014845E+02  0.25174516236E+02  0.13339234730E+02  0.10489391921E+03  0.92708572133E+02 0.  0.
         23    2    1    2    0    0 -0.42101213499E+02 -0.64973667635E+02 -0.39819033977E+03  0.41620305076E+03  0.93141521963E+02 0.  0.
        -11    1    3    3    0    0  0.17548161759E+02 -0.17641374651E+02  0.41921851391E+02  0.48750361073E+02  0.00000000000E+00 0.  1.
         11    1    3    3    0    0  0.22403853087E+02  0.42815890887E+02 -0.28582616661E+02  0.56143558141E+02  0.00000000000E+00 0. -1.
        -13    1    4    4    0    0 -0.88442080382E+01 -0.74573440744E+02 -0.34246578140E+03  0.35060266615E+03  0.00000000000E+00 0. -1.
         13    1    4    4    0    0 -0.33257005461E+02  0.95997731086E+01 -0.55724558367E+02  0.65600384611E+02  0.00000000000E+00 0.  1.
         21    1    1    2  502  501  0.21491986534E+01  0.39799151400E+02 -0.73811604343E+02  0.83885305284E+02  0.00000000000E+00 0. -1.
<scales pt_clust_5="13000.00000" pt_clust_6="13000.00000" pt_clust_7="13000.00000" pt_clust_8="13000.00000" pt_clust_9="39.85714"></scales>
<clustering>
<clus scale="   39.857">  2  9  1 -1</clus>
<clus scale="   92.709">  5  6 -1 -1</clus>
<clus scale="   93.142">  7  8 -1 -1</clus>
<clus scale="  105.171">  1  5  2 -1</clus>
<clus scale="   39.857">  2  5  1 -1</clus>
</clustering>
</event>
<event>
 9    1  0.1612788E-005  0.1142022E+03  0.7546771E-02  0.1253154E+00
          4   -1    0    0  502    0  0.00000000000E+00  0.00000000000E+00  0.33409202845E+03  0.33409202845E+03  0.00000000000E+00 0. -1.
         -4   -1    0    0    0  501 -0.00000000000E+00 -0.00000000000E+00 -0.62283600131E+02  0.62283600131E+02  0.00000000000E+00 0.  1.
         23    2    1    2    0    0  0.56391244529E+02 -0.38271181135E+02  0.98703378420E+02  0.15031789131E+03  0.90600528536E+02 0.  0.
         23    2    1    2    0    0 -0.26191440269E+02  0.71887262590E+02  0.16014796483E+03  0.19904757706E+03  0.90104368529E+02 0.  0.
        -11    1    3    3    0    0  0.42255132178E+02  0.24195964858E+01 -0.32573389043E+00  0.42325603895E+02  0.00000000000E+00 0.  1.
         11    1    3    3    0    0  0.14136112351E+02 -0.40690777621E+02  0.99029112311E+02  0.10799228741E+03  0.00000000000E+00 0. -1.
        -13    1    4    4    0    0 -0.17897622694E+02  0.43210956121E+02  0.16250631160E+03  0.16910296548E+03  0.00000000000E+00 0. -1.
         13    1    4    4    0    0 -0.82938175750E+01  0.28676306470E+02 -0.23583467706E+01  0.29944611572E+02  0.00000000000E+00 0.  1.
         21    1    1    2  502  501 -0.30199804260E+02 -0.33616081455E+02  0.12957085070E+02  0.47010160213E+02  0.00000000000E+00 0. -1.
<scales pt_clust_5="13000.00000" pt_clust_6="13000.00000" pt_clust_7="13000.00000" pt_clust_8="13000.00000" pt_clust_9="45.18926"></scales>
<clustering>
<clus scale="   45.189">  2  9  1 -1</clus>
<clus scale="   90.104">  7  8 -1 -1</clus>
<clus scale="   90.601">  5  6 -1 -1</clus>
<clus scale="  113.809">  1  7  2 -1</clus>
<clus scale="  113.809">  1  5  2 -1</clus>
</clustering>
</event>
<event>
 9    1  0.1612788E-005  0.1201764E+03  0.7546771E-02  0.1243557E+00
          1   -1    0    0  502    0  0.00000000000E+00  0.00000000000E+00  0.93013729527E+03  0.93013729527E+03  0.00000000000E+00 0. -1.
         -1   -1    0    0    0  501 -0.00000000000E+00 -0.00000000000E+00 -0.19764547493E+02  0.19764547493E+02  0.00000000000E+00 0.  1.
         23    2    1    2    0    0  0.83926964418E+02 -0.89190067392E+01  0.36946401798E+03  0.39020047474E+03  0.92894918412E+02 0.  0.
         23    2    1    2    0    0 -0.66332353788E+02  0.28374552233E+02  0.47138384144E+03  0.48539256186E+03  0.90543452312E+02 0.  0.
        -11    1    3    3    0    0  0.80706249055E+02 -0.39772417350E+02  0.31416174612E+03  0.32679190098E+03  0.00000000000E+00 0.  1.
         11    1    3    3    0    0  0.32207153633E+01  0.30853410611E+02  0.55302271861E+02  0.63408573764E+02  0.00000000000E+00 0. -1.
        -11    1    4    4    0    0 -0.26884149823E+02  0.59292302703E+02  0.28946129290E+03  0.29669205375E+03  0.00000000000E+00 0. -1.
         11    1    4    4    0    0 -0.39448203966E+02 -0.30917750470E+02  0.18192254855E+03  0.18870050811E+03  0.00000000000E+00 0.  1.
         21    1    1    2  502  501 -0.17594610630E+02 -0.19455545494E+02  0.69524888354E+02  0.74308806170E+02  0.00000000000E+00 0.  1.
<scales pt_clust_5="13000.00000" pt_clust_6="13000.00000" pt_clust_7="13000.00000" pt_clust_8="13000.00000" pt_clust_9="26.23144"></scales>
<clustering>
<clus scale="   26.231">  2  9  1 -1</clus>
<clus scale="   90.543">  7  8 -1 -1</clus>
<clus scale="   92.895">  5  6 -1 -1</clus>
<clus scale="  118.368">  1  7  2 -1</clus>
<clus scale="  118.368">  1  5  2 -1</clus>
</clustering>
</event>
<event>
 9    1  0.1612788E-005  0.1169673E+03  0.7546771E-02  0.1250680E+00
          2   -1    0    0  502    0  0.00000000000E+00  0.00000000000E+00  0.43890393920E+03  0.43890393920E+03  0.00000000000E+00 0. -1.
         -2   -1    0    0    0  501 -0.00000000000E+00 -0.00000000000E+00 -0.49610321425E+02  0.49610321425E+02  0.00000000000E+00 0.  1.
         23    2    1    2    0    0 -0.43298448036E+02  0.49458647923E+02  0.13622707476E+03  0.17763723023E+03  0.93146423506E+02 0.  0.
         23    2    1    2    0    0  0.63273086294E+02 -0.39633338742E+02  0.26294998387E+03  0.28652122457E+03  0.85891985222E+02 0.  0.
        -13    1    3    3    0    0 -0.36065892206E+02  0.14348566473E+02  0.13637329171E+03  0.14178964925E+03  0.00000000000E+00 0.  1.
         13    1    3    3    0    0 -0.72325558302E+01  0.35110081450E+02 -0.14621695813E+00  0.35847580988E+02  0.00000000000E+00 0. -1.
        -13    1    4    4    0    0  0.46990067002E+02  0.10908588855E+02  0.61343076294E+02  0.78038687309E+02  0.00000000000E+00 0.  1.
         13    1    4    4    0    0  0.16283019293E+02 -0.50541927598E+02  0.20160690757E+03  0.20848253727E+03  0.00000000000E+00 0. -1.
         21    1    1    2  502  501 -0.19974638258E+02 -0.98253091805E+01 -0.98834408496E+01  0.24355805818E+02  0.00000000000E+00 0.  1.
<scales pt_clust_5="13000.00000" pt_clust_6="13000.00000" pt_clust_7="13000.00000" pt_clust_8="13000.00000" pt_clust_9="22.26034"></scales>
<clustering>
<clus scale="   22.260">  2  9  1 -1</clus>
<clus scale="   85.892">  7  8 -1 -1</clus>
<clus scale="   93.146">  5  6 -1 -1</clus>
<clus scale="  111.277">  1  7  2 -1</clus>
<clus scale="  111.277">  1  5  2 -1</clus>
</clustering>
</event>
<event>
 9    1  0.1612788E-005  0.1126781E+03  0.7546771E-02  0.1255856E+00
          3   -1    0    0  502    0  0.00000000000E+00  0.00000000000E+00  0.31772690230E+03  0.31772690230E+03  0.00000000000E+00 0. -1.
         -3   -1    0    0    0  501 -0.00000000000E+00 -0.00000000000E+00 -0.86177892206E+02  0.86177892206E+02  0.00000000000E+00 0.  1.
         23    2    1    2    0    0 -0.10893377868E+02  0.60450473065E+02 -0.13382049611E+02  0.11034684620E+03  0.90688598177E+02 0.  0.
         23    2    1    2    0    0  0.33702906247E+02 -0.78553099702E+02  0.15538706555E+03  0.19939794318E+03  0.91147815343E+02 0.  0.
        -11    1    4    4    0    0 -0.65567813303E+01 -0.52001498324E+02  0.20727529966E+02  0.56362910747E+02  0.00000000000E+00 0. -1.
         11    1    4    4    0    0  0.40259687577E+02 -0.26551601378E+02  0.13465953558E+03  0.14303503243E+03  0.00000000000E+00 0.  1.
        -13    1    3    3    0    0 -0.42701847120E+02  0.20516987413E+02  0.17702792795E+02  0.50574533045E+02  0.00000000000E+00 0. -1.
         13    1    3    3    0    0  0.31808469252E+02  0.39933485652E+02 -0.31084842406E+02  0.59772313155E+02  0.00000000000E+00 0.  1.
         21    1    1    2  502  501 -0.22809528379E+02  0.18102626637E+02  0.89543994158E+02  0.94160005129E+02  0.00000000000E+00 0. -1.
<scales pt_clust_5="13000.00000" pt_clust_6="13000.00000" pt_clust_7="13000.00000" pt_clust_8="13000.00000" pt_clust_9="29.12009"></scales>
<clustering>
<clus scale="   29.120">  1  9  2 -1</clus>
<clus scale="   90.689">  7  8 -1 -1</clus>
<clus scale="   91.148">  5  6 -1 -1</clus>
<clus scale="  112.307">  2  7  1 -1</clus>
<clus scale="   29.120">  1  5  2 -1</clus>
</clustering>
</event>
<event>
 9    1  0.1612788E-005  0.1240359E+03  0.7546771E-02  0.1236925E+00
         -1   -1    0    0    0  501 -0.00000000000E+00  0.00000000000E+00  0.64106960898E+02  0.64106960898E+02  0.00000000000E+00 0.  1.
          1   -1    0    0  502    0  0.00000000000E+00 -0.00000000000E+00 -0.54752889614E+03  0.54752889614E+03  0.00000000000E+00 0. -1.
         23    2    1    2    0    0  0.86406373192E+02 -0.28393928418E+02 -0.34640557057E+02  0.13333480670E+03  0.91136853052E+02 0.  0.
         23    2    1    2    0    0 -0.68442630937E+02  0.47852147218E+02 -0.42611606472E+03  0.44344370177E+03  0.89962182657E+02 0.  0.
        -11    1    3    3    0    0  0.76302457286E+02  0.30701257066E+01  0.10825506356E+02  0.77127700909E+02  0.00000000000E+00 0.  1.
         11    1    3    3    0    0  0.10103915906E+02 -0.31464054124E+02 -0.45466063414E+02  0.56207105787E+02  0.00000000000E+00 0. -1.
        -11    1    4    4    0    0 -0.26867700580E+02 -0.26227026537E+02 -0.11778125123E+03  0.12362100710E+03  0.00000000000E+00 0.  1.
         11    1    4    4    0    0 -0.41574930356E+02  0.74079173755E+02 -0.30833481349E+03  0.31982269468E+03  0.00000000000E+00 0. -1.
         21    1    1    2  502  501 -0.17963742255E+02 -0.19458218801E+02 -0.22665313469E+02  0.34857348570E+02  0.00000000000E+00 0. -1.
<scales pt_clust_5="13000.00000" pt_clust_6="13000.00000" pt_clust_7="13000.00000" pt_clust_8="13000.00000" pt_clust_9="26.48242"></scales>
<clustering>
<clus scale="   26.482">  1  9  2 -1</clus>
<clus scale="   89.962">  7  8 -1 -1</clus>
<clus scale="   91.137">  5  6 -1 -1</clus>
<clus scale="  123.175">  2  7  1 -1</clus>
<clus scale="  123.175">  2  5  1 -1</clus>
</clustering>
</event>
<event>
 9    1  0.1612788E-005  0.3361245E+03  0.7546771E-02  0.1068477E+00
         -2   -1    0    0    0  501 -0.00000000000E+00  0.00000000000E+00  0.73831755892E+03  0.73831755892E+03  0.00000000000E+00 0.  1.
          2   -1    0    0  502    0  0.00000000000E+00 -0.00000000000E+00 -0.43368233505E+03  0.43368233505E+03  0.00000000000E+00 0. -1.
         23    2    1    2    0    0 -0.28772365103E+03 -0.14318449278E+03  0.60009177797E+03  0.68691997749E+03  0.91990299248E+02 0.  0.
         23    2    1    2    0    0  0.29914065252E+03  0.12289271529E+03 -0.31014445796E+03  0.45755104660E+03  0.92604675792E+02 0.  0.
        -11    1    4    4    0    0  0.24692166636E+03  0.11966385922E+03 -0.21354780759E+03  0.34769586515E+03  0.00000000000E+00 0. -1.
         11    1    4    4    0    0  0.52218986164E+02  0.32288560730E+01 -0.96596650367E+02  0.10985518144E+03  0.00000000000E+00 0.  1.
        -13    1    3    3    0    0 -0.26430170363E+02 -0.41972502248E+02  0.13638765219E+03  0.14512696689E+03  0.00000000000E+00 0.  1.
         13    1    3    3    0    0 -0.26129348066E+03 -0.10121199054E+03  0.46370412578E+03  0.54179301060E+03  0.00000000000E+00 0. -1.
         21    1    1    2  502  501 -0.11417001495E+02  0.20291777494E+02  0.14687903853E+02  0.27528869875E+02  0.00000000000E+00 0. -1.
<scales pt_clust_5="13000.00000" pt_clust_6="13000.00000" pt_clust_7="13000.00000" pt_clust_8="13000.00000" pt_clust_9="23.28313"></scales>
<clustering>
<clus scale="   23.283">  1  9  2 -1</clus>
<clus scale="   91.990">  7  8 -1 -1</clus>
<clus scale="   92.605">  5  6 -1 -1</clus>
<clus scale="  335.956">  1  7  2 -1</clus>
<clus scale="  336.125">  2  5  1 -1</clus>
</clustering>
</event>
<event>
 9    1  0.1612788E-005  0.1318944E+03  0.7546771E-02  0.1225500E+00
          2   -1    0    0  502    0  0.00000000000E+00  0.00000000000E+00  0.23511278824E+03  0.23511278824E+03  0.00000000000E+00 0. -1.
         -2   -1    0    0    0  501 -0.00000000000E+00 -0.00000000000E+00 -0.23407308249E+03  0.23407308249E+03  0.00000000000E+00 0.  1.
         23    2    1    2    0    0  0.31301297150E+02  0.12378561167E+03 -0.12099522954E+03  0.19911577959E+03  0.93298441841E+02 0.  0.
         23    2    1    2    0    0 -0.10301459078E+02 -0.88171713085E+02  0.16667443818E+03  0.20922579651E+03  0.90081599325E+02 0.  0.
        -11    1    4    4    0    0  0.20215565361E+02 -0.49744885042E+01  0.88945301333E+02  0.91349226860E+02  0.00000000000E+00 0. -1.
         11    1    4    4    0    0 -0.30517024438E+02 -0.83197224581E+02  0.77729136847E+02  0.11787656965E+03  0.00000000000E+00 0.  1.
        -13    1    3    3    0    0 -0.13412330558E+02  0.97990647761E+02 -0.10683611121E+03  0.14558850338E+03  0.00000000000E+00 0.  1.
         13    1    3    3    0    0  0.44713627708E+02  0.25794963909E+02 -0.14159118330E+02  0.53527276203E+02  0.00000000000E+00 0. -1.
         21    1    1    2  502  501 -0.20999838072E+02 -0.35613898586E+02 -0.44639502890E+02  0.60844294637E+02  0.00000000000E+00 0. -1.
<scales pt_clust_5="13000.00000" pt_clust_6="13000.00000" pt_clust_7="13000.00000" pt_clust_8="13000.00000" pt_clust_9="41.34420"></scales>
<clustering>
<clus scale="   41.344">  2  9  1 -1</clus>
<clus scale="   90.082">  5  6 -1 -1</clus>
<clus scale="   93.298">  7  8 -1 -1</clus>
<clus scale="  129.639">  1  5  2 -1</clus>
<clus scale="  129.639">  1  5  2 -1</clus>
</clustering>
</event>
<event>
 9    1  0.1612788E-005  0.1039483E+03  0.7546771E-02  0.1275735E+00
          1   -1    0    0  502    0  0.00000000000E+00  0.00000000000E+00  0.70833274505E+02  0.70833274505E+02  0.00000000000E+00 0. -1.
         -1   -1    0    0    0  501 -0.00000000000E+00 -0.00000000000E+00 -0.35317121024E+03  0.35317121024E+03  0.00000000000E+00 0.  1.
         23    2    1    2    0    0  0.35981695002E+01 -0.14557214006E+02 -0.15940636056E+03  0.18371977446E+03  0.90098326500E+02 0.  0.
         23    2    1    2    0    0 -0.20755714387E+02  0.37159248582E+02  0.77255075261E+01  0.10658165657E+03  0.97408195829E+02 0.  0.
        -11    1    3    3    0    0 -0.13172757116E+02 -0.50073247461E+02 -0.83405835783E+02  0.98170184292E+02  0.00000000000E+00 0.  1.
         11    1    3    3    0    0  0.16770926616E+02  0.35516033455E+02 -0.76000524777E+02  0.85549590170E+02  0.00000000000E+00 0. -1.
        -13    1    4    4    0    0  0.18069342644E+02  0.58969880768E+02  0.22826334285E+01  0.61718379732E+02  0.00000000000E+00 0. -1.
         13    1    4    4    0    0 -0.38825057031E+02 -0.21810632185E+02  0.54428740976E+01  0.44863276833E+02  0.00000000000E+00 0.  1.
         21    1    1    2  502  501  0.17157544887E+02 -0.22602034576E+02 -0.13065708270E+03  0.13370305372E+03  0.00000000000E+00 0.  1.
<scales pt_clust_5="13000.00000" pt_clust_6="13000.00000" pt_clust_7="13000.00000" pt_clust_8="13000.00000" pt_clust_9="28.37663"></scales>
<clustering>
<clus scale="   28.377">  2  9  1 -1</clus>
<clus scale="   90.098">  5  6 -1 -1</clus>
<clus scale="   97.132">  2  5  1 -1</clus>
<clus scale="   97.408">  7  8 -1 -1</clus>
<clus scale="  103.948">  1  5  2 -1</clus>
</clustering>
</event>
<event>
 9    1  0.1612788E-005  0.9589149E+02  0.7546771E-02  0.1289376E+00
          1   -1    0    0  502    0  0.00000000000E+00  0.00000000000E+00  0.67329318149E+03  0.67329318149E+03  0.00000000000E+00 0. -1.
         -1   -1    0    0    0  501 -0.00000000000E+00 -0.00000000000E+00 -0.33103320427E+02  0.33103320427E+02  0.00000000000E+00 0.  1.
         23    2    1    2    0    0 -0.47636548967E+02  0.19398487910E+02  0.90034508822E+02  0.13799963468E+03  0.91061211625E+02 0.  0.
         23    2    1    2    0    0  0.25172802821E+02 -0.12556509600E+01  0.51110952269E+03  0.51983392634E+03  0.91428223884E+02 0.  0.
        -11    1    3    3    0    0 -0.36563936893E+01  0.47335264911E+02  0.22053476573E+02  0.52348374836E+02  0.00000000000E+00 0. -1.
         11    1    3    3    0    0 -0.43980155278E+02 -0.27936777001E+02  0.67981032249E+02  0.85651259845E+02  0.00000000000E+00 0.  1.
        -13    1    4    4    0    0  0.23565420692E+02 -0.45133538038E+02  0.27920259552E+03  0.28380707294E+03  0.00000000000E+00 0.  1.
         13    1    4    4    0    0  0.16073821285E+01  0.43877887078E+02  0.23190692717E+03  0.23602685339E+03  0.00000000000E+00 0. -1.
         21    1    1    2  502  501  0.22463746146E+02 -0.18142836950E+02  0.39045829546E+02  0.48562940896E+02  0.00000000000E+00 0.  1.
<scales pt_clust_5="13000.00000" pt_clust_6="13000.00000" pt_clust_7="13000.00000" pt_clust_8="13000.00000" pt_clust_9="28.87529"></scales>
<clustering>
<clus scale="   28.875">  2  9  1 -1</clus>
<clus scale="   91.061">  5  6 -1 -1</clus>
<clus scale="   91.428">  7  8 -1 -1</clus>
<clus scale="   95.542">  2  5  1 -1</clus>
<clus scale="   95.891">  1  5  2 -1</clus>
</clustering>
</event>
<event>
 9    1  0.1612788E-005  0.1144800E+03  0.7546771E-02  0.1255672E+00
          1   -1    0    0  502    0  0.00000000000E+00  0.00000000000E+00  0.63847279854E+03  0.63847279854E+03  0.00000000000E+00 0. -1.
         -1   -1    0    0    0  501 -0.00000000000E+00 -0.00000000000E+00 -0.28499793652E+02  0.28499793652E+02  0.00000000000E+00 0.  1.
         23    2    1    2    0    0 -0.51287702862E+02  0.44633412496E+02  0.32911230130E+03  0.35053534503E+03  0.99687267356E+02 0.  0.
         23    2    1    2    0    0  0.44384754666E+02 -0.16541211035E+02  0.26289587083E+03  0.28238496834E+03  0.91560981524E+02 0.  0.
        -11    1    3    3    0    0 -0.48597447203E+02  0.70661295422E+02  0.29688227098E+03  0.30902073291E+03  0.00000000000E+00 0. -1.
         11    1    3    3    0    0 -0.26902556592E+01 -0.26027882926E+02  0.32230030314E+02  0.41514612116E+02  0.00000000000E+00 0.  1.
        -13    1    4    4    0    0  0.18506908635E+02 -0.54110798357E+02  0.13582794717E+03  0.14737610186E+03  0.00000000000E+00 0.  1.
         13    1    4    4    0    0  0.25877846031E+02  0.37569587322E+02  0.12706792366E+03  0.13500886648E+03  0.00000000000E+00 0. -1.
         21    1    1    2  502  501  0.69029481964E+01 -0.28092201461E+02  0.17964832760E+02  0.34052278820E+02  0.00000000000E+00 0.  1.
<scales pt_clust_5="13000.00000" pt_clust_6="13000.00000" pt_clust_7="13000.00000" pt_clust_8="13000.00000" pt_clust_9="28.92788"></scales>
<clustering>
<clus scale="   28.928">  2  9  1 -1</clus>
<clus scale="   91.561">  7  8 -1 -1</clus>
<clus scale="   99.687">  5  6 -1 -1</clus>
<clus scale="  107.478">  1  7  2 -1</clus>
<clus scale="  107.478">  1  5  2 -1</clus>
</clustering>
</event>
<event>
 9    1  0.1612788E-005  0.1020350E+03  0.7546771E-02  0.1280178E+00
          1   -1    0    0  502    0  0.00000000000E+00  0.00000000000E+00  0.52380216010E+02  0.52380216010E+02  0.00000000000E+00 0. -1.
         -1   -1    0    0    0  501 -0.00000000000E+00 -0.00000000000E+00 -0.33778296231E+03  0.33778296231E+03  0.00000000000E+00 0.  1.
         23    2    1    2    0    0  0.34706169439E+02 -0.20556514623E+02 -0.11359732566E+03  0.14701670936E+03  0.84157423572E+02 0.  0.
         23    2    1    2    0    0 -0.45894062252E+02  0.17699795985E+01 -0.42227239995E+02  0.11173639422E+03  0.92695653722E+02 0.  0.
        -13    1    3    3    0    0  0.23936059363E+02 -0.50578879175E+02 -0.94547210118E+02  0.10986506678E+03  0.00000000000E+00 0.  1.
         13    1    3    3    0    0  0.10770110076E+02  0.30022364552E+02 -0.19050115545E+02  0.37151642583E+02  0.00000000000E+00 0. -1.
        -13    1    4    4    0    0 -0.13012991946E+02  0.27826643357E+02  0.20022895491E+02  0.36668465795E+02  0.00000000000E+00 0. -1.
         13    1    4    4    0    0 -0.32881070306E+02 -0.26056663758E+02 -0.62250135486E+02  0.75067928429E+02  0.00000000000E+00 0.  1.
         21    1    1    2  502  501  0.11187892813E+02  0.18786535024E+02 -0.12957818064E+03  0.13141007474E+03  0.00000000000E+00 0.  1.
<scales pt_clust_5="13000.00000" pt_clust_6="13000.00000" pt_clust_7="13000.00000" pt_clust_8="13000.00000" pt_clust_9="21.86556"></scales>
<clustering>
<clus scale="   21.866">  2  9  1 -1</clus>
<clus scale="   84.157">  5  6 -1 -1</clus>
<clus scale="   92.696">  7  8 -1 -1</clus>
<clus scale="   94.346">  2  5  1 -1</clus>
<clus scale="  102.035">  1  5  2 -1</clus>
</clustering>
</event>
<event>
 9    1  0.1612788E-005  0.9607844E+02  0.7546771E-02  0.1289874E+00
         -3   -1    0    0    0  501 -0.00000000000E+00  0.00000000000E+00  0.30010383939E+03  0.30010383939E+03  0.00000000000E+00 0.  1.
          3   -1    0    0  502    0  0.00000000000E+00 -0.00000000000E+00 -0.50159497363E+02  0.50159497363E+02  0.00000000000E+00 0. -1.
         23    2    1    2    0    0  0.34316745649E+01 -0.16848164472E+02  0.10922140262E+03  0.14208484094E+03  0.89236484671E+02 0.  0.
         23    2    1    2    0    0  0.37415629156E+02  0.39667650362E+02  0.10325116736E+03  0.14823381417E+03  0.91318170767E+02 0.  0.
        -13    1    3    3    0    0  0.40908080295E+02  0.94148334876E+01  0.33924125428E+02  0.53971811245E+02  0.00000000000E+00 0. -1.
         13    1    3    3    0    0 -0.37476405730E+02 -0.26262997960E+02  0.75297277196E+02  0.88113029692E+02  0.00000000000E+00 0.  1.
        -13    1    4    4    0    0 -0.43675566281E+01  0.49910115886E+02  0.90366152772E+02  0.10332539274E+03  0.00000000000E+00 0.  1.
         13    1    4    4    0    0  0.41783185784E+02 -0.10242465524E+02  0.12885014589E+02  0.44908421429E+02  0.00000000000E+00 0. -1.
         21    1    1    2  502  501 -0.40847303721E+02 -0.22819485890E+02  0.37471772046E+02  0.59944681648E+02  0.00000000000E+00 0.  1.
<scales pt_clust_5="13000.00000" pt_clust_6="13000.00000" pt_clust_7="13000.00000" pt_clust_8="13000.00000" pt_clust_9="46.78922"></scales>
<clustering>
<clus scale="   46.789">  2  9  1 -1</clus>
<clus scale="   89.236">  5  6 -1 -1</clus>
<clus scale="   91.318">  7  8 -1 -1</clus>
<clus scale="   94.102">  1  5  2 -1</clus>
<clus scale="   46.789">  2  5  1 -1</clus>
</clustering>
</event>
<event>
 9    1  0.1612788E-005  0.1039055E+03  0.7546771E-02  0.1272583E+00
         -2   -1    0    0    0  501 -0.00000000000E+00  0.00000000000E+00  0.46423718655E+02  0.46423718655E+02  0.00000000000E+00 0.  1.
          2   -1    0    0  502    0  0.00000000000E+00 -0.00000000000E+00 -0.45075397624E+03  0.45075397624E+03  0.00000000000E+00 0. -1.
         23    2    1    2    0    0  0.12677025437E+01 -0.57246279759E+02 -0.18301810535E+03  0.21332964127E+03  0.93462106454E+02 0.  0.
         23    2    1    2    0    0 -0.15511571530E+02  0.35538592958E+02 -0.23418110620E+03  0.25487010605E+03  0.92813684407E+02 0.  0.
        -11    1    4    4    0    0 -0.28837422848E+02 -0.20072203885E+02 -0.14289776525E+03  0.14715387062E+03  0.00000000000E+00 0.  1.
         11    1    4    4    0    0  0.13325851317E+02  0.55610796843E+02 -0.91283340953E+02  0.10771623543E+03  0.00000000000E+00 0. -1.
        -13    1    3    3    0    0  0.20774313795E+02 -0.73938926833E+02 -0.97939088632E+02  0.12446124737E+03  0.00000000000E+00 0.  1.
         13    1    3    3    0    0 -0.19506611251E+02  0.16692647074E+02 -0.85079016713E+02  0.88868393897E+02  0.00000000000E+00 0. -1.
         21    1    1    2  502  501  0.14243868987E+02  0.21707686801E+02  0.12868953962E+02  0.28977947582E+02  0.00000000000E+00 0.  1.
<scales pt_clust_5="13000.00000" pt_clust_6="13000.00000" pt_clust_7="13000.00000" pt_clust_8="13000.00000" pt_clust_9="25.96366"></scales>
<clustering>
<clus scale="   25.964">  1  9  2 -1</clus>
<clus scale="   92.814">  5  6 -1 -1</clus>
<clus scale="   93.462">  7  8 -1 -1</clus>
<clus scale="  103.323">  2  5  1 -1</clus>
<clus scale="  103.323">  2  5  1 -1</clus>
</clustering>
</event>
<event>
 9    1  0.1612788E-005  0.1499570E+03  0.7546771E-02  0.1202380E+00
         -4   -1    0    0    0  501 -0.00000000000E+00  0.00000000000E+00  0.99895977420E+03  0.99895977420E+03  0.00000000000E+00 0.  1.
          4   -1    0    0  502    0  0.00000000000E+00 -0.00000000000E+00 -0.35942563087E+02  0.35942563087E+02  0.00000000000E+00 0. -1.
         23    2    1    2    0    0  0.15472641077E+02  0.12269605936E+03  0.35621687844E+03  0.38815914234E+03  0.92104992755E+02 0.  0.
         23    2    1    2    0    0  0.52232927104E+02 -0.95647766155E+02  0.36245327410E+03  0.39175076534E+03  0.10109160395E+03 0.  0.
        -11    1    4    4    0    0  0.53912655518E+02 -0.16201738439E+01  0.15042021631E+03  0.15979812534E+03  0.00000000000E+00 0. -1.
         11    1    4    4    0    0 -0.16797284143E+01 -0.94027592311E+02  0.21203305779E+03  0.23195263999E+03  0.00000000000E+00 0.  1.
        -13    1    3    3    0    0 -0.20061217226E+02 -0.54538198231E+01  0.58733414655E+02  0.62304177904E+02  0.00000000000E+00 0.  1.
         13    1    3    3    0    0  0.35533858304E+02  0.12814987918E+03  0.29748346379E+03  0.32585496443E+03  0.00000000000E+00 0. -1.
         21    1    1    2  502  501 -0.67705568181E+02 -0.27048293202E+02  0.24434705856E+03  0.25499242961E+03  0.00000000000E+00 0.  1.
<scales pt_clust_5="13000.00000" pt_clust_6="13000.00000" pt_clust_7="13000.00000" pt_clust_8="13000.00000" pt_clust_9="72.90853"></scales>
<clustering>
<clus scale="   72.909">  1  9  2 -1</clus>
<clus scale="   92.105">  7  8 -1 -1</clus>
<clus scale="  101.092">  5  6 -1 -1</clus>
<clus scale="  144.052">  1  7  2 -1</clus>
<clus scale="  149.957">  2  5  1 -1</clus>
</clustering>
</event>
<event>
 9    1  0.1612788E-005  0.1513624E+03  0.7546771E-02  0.1199349E+00
          2   -1    0    0  502    0  0.00000000000E+00  0.00000000000E+00  0.23420448532E+03  0.23420448532E+03  0.00000000000E+00 0. -1.
         -2   -1    0    0    0  501 -0.00000000000E+00 -0.00000000000E+00 -0.26646171247E+03  0.26646171247E+03  0.00000000000E+00 0.  1.
         23    2    1    2    0    0 -0.24392851999E+02  0.65744969372E+02 -0.40921156092E+02  0.12360965820E+03  0.93206192704E+02 0.  0.
         23    2    1    2    0    0 -0.37812952597E+02 -0.14662858028E+03  0.12960579322E+03  0.21882046540E+03  0.90304897444E+02 0.  0.
        -11    1    4    4    0    0  0.12392060867E+01 -0.12360974899E+03  0.64343758725E+02  0.13935933756E+03  0.00000000000E+00 0.  1.
         11    1    4    4    0    0 -0.39052158684E+02 -0.23018831292E+02  0.65262034493E+02  0.79461127843E+02  0.00000000000E+00 0. -1.
        -13    1    3    3    0    0 -0.21356769451E+01  0.41146037881E+02  0.26138556207E+02  0.48793254348E+02  0.00000000000E+00 0. -1.
         13    1    3    3    0    0 -0.22257175054E+02  0.24598931491E+02 -0.67059712299E+02  0.74816403853E+02  0.00000000000E+00 0.  1.
         21    1    1    2  502  501  0.62205804596E+02  0.80883610912E+02 -0.12094186428E+03  0.15823607419E+03  0.00000000000E+00 0.  1.
<scales pt_clust_5="13000.00000" pt_clust_6="13000.00000" pt_clust_7="13000.00000" pt_clust_8="13000.00000" pt_clust_9="102.03784"></scales>
<clustering>
<clus scale="   90.305">  5  6 -1 -1</clus>
<clus scale="   93.206">  7  8 -1 -1</clus>
<clus scale="  102.038">  2  9  1 -1</clus>
<clus scale="  149.593">  1  5  2 -1</clus>
<clus scale="  149.593">  1  5  2 -1</clus>
</clustering>
</event>
<event>
 9    1  0.1612788E-005  0.9226040E+02  0.7546771E-02  0.1297710E+00
          1   -1    0    0  502    0  0.00000000000E+00  0.00000000000E+00  0.22929966367E+03  0.22929966367E+03  0.00000000000E+00 0. -1.
         -1   -1    0    0    0  501 -0.00000000000E+00 -0.00000000000E+00 -0.78011567280E+02  0.78011567280E+02  0.00000000000E+00 0.  1.
         23    2    1    2    0    0  0.99819014480E+01  0.11732278409E+02 -0.18065987816E+02  0.94327035082E+02  0.91290333105E+02 0.  0.
         23    2    1    2    0    0  0.59429346956E+00  0.17292341473E+02  0.14958587884E+03  0.17630904895E+03  0.91703693134E+02 0.  0.
        -11    1    3    3    0    0  0.17944138636E+02  0.49898622807E+02 -0.52484426503E+01  0.53286122205E+02  0.00000000000E+00 0. -1.
         11    1    3    3    0    0 -0.79622371884E+01 -0.38166344397E+02 -0.12817545165E+02  0.41040912877E+02  0.00000000000E+00 0.  1.
        -11    1    4    4    0    0 -0.21469657977E+02 -0.27424883207E+02  0.10039481635E+03  0.10626471466E+03  0.00000000000E+00 0.  1.
         11    1    4    4    0    0  0.22063951447E+02  0.44717224680E+02  0.49191062489E+02  0.70044334284E+02  0.00000000000E+00 0. -1.
         21    1    1    2  502  501 -0.10576194918E+02 -0.29024619882E+02  0.19768205366E+02  0.36675146920E+02  0.00000000000E+00 0.  1.
<scales pt_clust_5="13000.00000" pt_clust_6="13000.00000" pt_clust_7="13000.00000" pt_clust_8="13000.00000" pt_clust_9="30.89149"></scales>
<clustering>
<clus scale="   30.891">  1  9  2 -1</clus>
<clus scale="   91.290">  5  6 -1 -1</clus>
<clus scale="   91.704">  7  8 -1 -1</clus>
<clus scale="   91.850">  2  5  1 -1</clus>
<clus scale="   30.891">  1  5  2 -1</clus>
</clustering>
</event>
<event>
 9    1  0.1612788E-005  0.1026459E+03  0.7546771E-02  0.1276951E+00
         -1   -1    0    0    0  501 -0.00000000000E+00  0.00000000000E+00  0.50648061580E+03  0.50648061580E+03  0.00000000000E+00 0.  1.
          1   -1    0    0  502    0  0.00000000000E+00 -0.00000000000E+00 -0.80354483913E+02  0.80354483913E+02  0.00000000000E+00 0. -1.
         23    2    1    2    0    0  0.11333855893E+02 -0.30938710712E+02  0.36831040113E+03  0.38135503930E+03  0.93238695306E+02 0.  0.
         23    2    1    2    0    0 -0.45334791080E+02  0.46973992973E+01 -0.32970886686E+02  0.10504660024E+03  0.88715274952E+02 0.  0.
        -13    1    4    4    0    0 -0.37422209103E+02  0.34690999320E+02 -0.48462163916E+02  0.70373777072E+02  0.00000000000E+00 0. -1.
         13    1    4    4    0    0 -0.79125819766E+01 -0.29993600023E+02  0.15491277231E+02  0.34672823163E+02  0.00000000000E+00 0.  1.
        -13    1    3    3    0    0  0.42168073921E+01 -0.62978490378E+02  0.19489903113E+03  0.20486508744E+03  0.00000000000E+00 0. -1.
         13    1    3    3    0    0  0.71170485009E+01  0.32039779666E+02  0.17341137000E+03  0.17648995186E+03  0.00000000000E+00 0.  1.
         21    1    1    2  502  501  0.34000935187E+02  0.26241311415E+02  0.90786617440E+02  0.10043346018E+03  0.00000000000E+00 0.  1.
<scales pt_clust_5="13000.00000" pt_clust_6="13000.00000" pt_clust_7="13000.00000" pt_clust_8="13000.00000" pt_clust_9="42.94962"></scales>
<clustering>
<clus scale="   42.950">  1  9  2 -1</clus>
<clus scale="   88.715">  5  6 -1 -1</clus>
<clus scale="   93.239">  7  8 -1 -1</clus>
<clus scale="   98.555">  2  5  1 -1</clus>
<clus scale="   98.555">  2  5  1 -1</clus>
</clustering>
</event>
<event>
 9    1  0.1612788E-005  0.1374774E+03  0.7546771E-02  0.1218174E+00
         -1   -1    0    0    0  501 -0.00000000000E+00  0.00000000000E+00  0.50251252178E+02  0.50251252178E+02  0.00000000000E+00 0.  1.
          1   -1    0    0  502    0  0.00000000000E+00 -0.00000000000E+00 -0.63285546202E+03  0.63285546202E+03  0.00000000000E+00 0. -1.
         23    2    1    2    0    0  0.54312674146E+02 -0.92962967221E+02 -0.27947071572E+03  0.31192596417E+03  0.87189141106E+02 0.  0.
         23    2    1    2    0    0 -0.63280439635E+02  0.72594565986E+02 -0.31753793532E+03  0.34467074224E+03  0.93237305531E+02 0.  0.
        -11    1    4    4    0    0 -0.42819326752E+02  0.94498500995E+02 -0.25590957298E+03  0.27613976711E+03  0.00000000000E+00 0.  1.
         11    1    4    4    0    0 -0.20461112882E+02 -0.21903935008E+02 -0.61628362335E+02  0.68530975138E+02  0.00000000000E+00 0. -1.
        -13    1    3    3    0    0  0.65303702692E+02 -0.52518473747E+02 -0.24055216390E+03  0.25473144138E+03  0.00000000000E+00 0. -1.
         13    1    3    3    0    0 -0.10991028546E+02 -0.40444493474E+02 -0.38918551822E+02  0.57194522786E+02  0.00000000000E+00 0.  1.
         21    1    1    2  502  501  0.89677654883E+01  0.20368401234E+02  0.14404441198E+02  0.26510007788E+02  0.00000000000E+00 0. -1.
<scales pt_clust_5="13000.00000" pt_clust_6="13000.00000" pt_clust_7="13000.00000" pt_clust_8="13000.00000" pt_clust_9="22.25517"></scales>
<clustering>
<clus scale="   22.255">  1  9  2 -1</clus>
<clus scale="   87.189">  7  8 -1 -1</clus>
<clus scale="   93.237">  5  6 -1 -1</clus>
<clus scale="  133.450">  1  7  2 -1</clus>
<clus scale="  137.477">  2  5  1 -1</clus>
</clustering>
</event>
<event>
 9    1  0.1612788E-005  0.3196734E+03  0.7546771E-02  0.1075804E+00
          1   -1    0    0  502    0  0.00000000000E+00  0.00000000000E+00  0.32596684733E+03  0.32596684733E+03  0.00000000000E+00 0. -1.
         -1   -1    0    0    0  501 -0.00000000000E+00 -0.00000000000E+00 -0.80808403245E+03  0.80808403245E+03  0.00000000000E+00 0.  1.
         23    2    1    2    0    0 -0.22059686718E+03 -0.23086089466E+03 -0.61647989795E+03  0.70026856516E+03  0.91481518838E+02 0.  0.
         23    2    1    2    0    0  0.22062500427E+03  0.20998117721E+03  0.19270277575E+03  0.37181840306E+03  0.91362343363E+02 0.  0.
        -11    1    3    3    0    0 -0.43670443020E+02 -0.49027662128E+02 -0.21979138128E+03  0.22938847079E+03  0.00000000000E+00 0.  1.
         11    1    3    3    0    0 -0.17692642416E+03 -0.18183323253E+03 -0.39668851667E+03  0.47088009437E+03  0.00000000000E+00 0. -1.
        -13    1    4    4    0    0 -0.31190824349E+01  0.23724325113E+02  0.24783893529E+01  0.24056489583E+02  0.00000000000E+00 0.  1.
         13    1    4    4    0    0  0.22374408670E+03  0.18625685210E+03  0.19022438640E+03  0.34776191348E+03  0.00000000000E+00 0. -1.
         21    1    1    2  502  501 -0.28137090200E-01  0.20879717451E+02 -0.58340062927E+02  0.61963911552E+02  0.00000000000E+00 0.  1.
<scales pt_clust_5="13000.00000" pt_clust_6="13000.00000" pt_clust_7="13000.00000" pt_clust_8="13000.00000" pt_clust_9="20.87974"></scales>
<clustering>
<clus scale="   20.880">  2  9  1 -1</clus>
<clus scale="   91.362">  7  8 -1 -1</clus>
<clus scale="   91.482">  5  6 -1 -1</clus>
<clus scale="  319.639">  1  7  2 -1</clus>
<clus scale="  319.639">  1  5  2 -1</clus>
</clustering>
</event>
<event>
 9    1  0.1612788E-005  0.1071034E+03  0.7546771E-02  0.1267817E+00
          1   -1    0    0  502    0  0.00000000000E+00  0.00000000000E+00  0.95707969639E+02  0.95707969639E+02  0.00000000000E+00 0. -1.
         -1   -1    0    0    0  501 -0.00000000000E+00 -0.00000000000E+00 -0.17515191794E+03  0.17515191794E+03  0.00000000000E+00 0.  1.
         23    2    1    2    0    0 -0.38384959608E+02 -0.33355476544E+02 -0.87493449204E+02  0.13506692008E+03  0.89453766308E+02 0.  0.
         23    2    1    2    0    0  0.25106530556E+02  0.52613093541E+02  0.15133963830E+02  0.11135197518E+03  0.93657621294E+02 0.  0.
        -11    1    3    3    0    0  0.24372449857E+02 -0.27104445983E+02 -0.49382428532E+02  0.61378266119E+02  0.00000000000E+00 0. -1.
         11    1    3    3    0    0 -0.62757409465E+02 -0.62510305615E+01 -0.38111020672E+02  0.73688653961E+02  0.00000000000E+00 0.  1.
        -13    1    4    4    0    0 -0.29620211385E+02  0.32774623222E+02 -0.13886900545E+02  0.46307438459E+02  0.00000000000E+00 0.  1.
         13    1    4    4    0    0  0.54726741941E+02  0.19838470319E+02  0.29020864375E+02  0.65044536720E+02  0.00000000000E+00 0. -1.
         21    1    1    2  502  501  0.13278429052E+02 -0.19257616997E+02 -0.70844629221E+01  0.24440992316E+02  0.00000000000E+00 0. -1.
<scales pt_clust_5="13000.00000" pt_clust_6="13000.00000" pt_clust_7="13000.00000" pt_clust_8="13000.00000" pt_clust_9="23.39172"></scales>
<clustering>
<clus scale="   23.392">  1  9  2 -1</clus>
<clus scale="   89.454">  5  6 -1 -1</clus>
<clus scale="   93.658">  7  8 -1 -1</clus>
<clus scale="  103.447">  2  5  1 -1</clus>
<clus scale="   23.392">  1  5  2 -1</clus>
</clustering>
</event>
<event>
 9    1  0.1612788E-005  0.1025630E+03  0.7546771E-02  0.1276753E+00
         -1   -1    0    0    0  501 -0.00000000000E+00  0.00000000000E+00  0.24924281238E+03  0.24924281238E+03  0.00000000000E+00 0.  1.
          1   -1    0    0  502    0  0.00000000000E+00 -0.00000000000E+00 -0.17832343331E+03  0.17832343331E+03  0.00000000000E+00 0. -1.
         23    2    1    2    0    0 -0.54663795426E+02 -0.27086435871E+02 -0.56613432563E+02  0.12591979355E+03  0.94492899850E+02 0.  0.
         23    2    1    2    0    0  0.27699588413E+02 -0.12692896049E+02 -0.56666089533E+02  0.11128180495E+03  0.90797673991E+02 0.  0.
        -11    1    3    3    0    0 -0.31861220463E+02 -0.58679397907E+02 -0.55688986250E+02  0.86946375989E+02  0.00000000000E+00 0. -1.
         11    1    3    3    0    0 -0.22802574964E+02  0.31592962036E+02 -0.92444631325E+00  0.38973417559E+02  0.00000000000E+00 0.  1.
        -13    1    4    4    0    0  0.55651780696E+02 -0.24695914149E+02 -0.52849331605E+02  0.80622954060E+02  0.00000000000E+00 0. -1.
         13    1    4    4    0    0 -0.27952192283E+02  0.12003018100E+02 -0.38167579280E+01  0.30658850892E+02  0.00000000000E+00 0.  1.
         21    1    1    2  502  501  0.26964207014E+02  0.39779331920E+02  0.18419890117E+03  0.19036464719E+03  0.00000000000E+00 0.  1.
<scales pt_clust_5="13000.00000" pt_clust_6="13000.00000" pt_clust_7="13000.00000" pt_clust_8="13000.00000" pt_clust_9="48.05688"></scales>
<clustering>
<clus scale="   48.057">  1  9  2 -1</clus>
<clus scale="   90.798">  7  8 -1 -1</clus>
<clus scale="   94.493">  5  6 -1 -1</clus>
<clus scale="   99.169">  2  7  1 -1</clus>
<clus scale="   99.169">  2  5  1 -1</clus>
</clustering>
</event>
<event>
 9    1  0.1612788E-005  0.1182441E+03  0.7546771E-02  0.1255744E+00
          1   -1    0    0  502    0  0.00000000000E+00  0.00000000000E+00  0.26866109959E+03  0.26866109959E+03  0.00000000000E+00 0. -1.
         -1   -1    0    0    0  501 -0.00000000000E+00 -0.00000000000E+00 -0.66680762305E+02  0.66680762305E+02  0.00000000000E+00 0.  1.
         23    2    1    2    0    0  0.41278222158E+02 -0.48150258638E+02  0.63023535172E+02  0.14278604156E+03  0.11132631606E+03 0.  0.
         23    2    1    2    0    0 -0.26033626665E+02  0.16651639340E+02  0.12083580480E+03  0.15314857159E+03  0.88871629051E+02 0.  0.
        -11    1    4    4    0    0 -0.12390253089E+02 -0.32143455347E+02  0.18845946652E+02  0.39266904621E+02  0.00000000000E+00 0. -1.
         11    1    4    4    0    0 -0.13643373576E+02  0.48795094687E+02  0.10198985814E+03  0.11388166697E+03  0.00000000000E+00 0.  1.
        -11    1    3    3    0    0  0.62083604670E+02 -0.39783787869E+02 -0.22467024420E+01  0.73771074398E+02  0.00000000000E+00 0.  1.
         11    1    3    3    0    0 -0.20805382511E+02 -0.83664707693E+01  0.65270237615E+02  0.69014967165E+02  0.00000000000E+00 0. -1.
         21    1    1    2  502  501 -0.15244595493E+02  0.31498619298E+02  0.18120997317E+02  0.39407248739E+02  0.00000000000E+00 0.  1.
<scales pt_clust_5="13000.00000" pt_clust_6="13000.00000" pt_clust_7="13000.00000" pt_clust_8="13000.00000" pt_clust_9="34.99372"></scales>
<clustering>
<clus scale="   34.994">  2  9  1 -1</clus>
<clus scale="   88.872">  5  6 -1 -1</clus>
<clus scale="   97.398">  1  5  2 -1</clus>
<clus scale="  111.326">  7  8 -1 -1</clus>
<clus scale="   97.398">  1  5  2 -1</clus>
</clustering>
</event>
<event>
 9    1  0.1612788E-005  0.1296394E+03  0.7546771E-02  0.1229701E+00
         -3   -1    0    0    0  501 -0.00000000000E+00  0.00000000000E+00  0.55332957711E+03  0.55332957711E+03  0.00000000000E+00 0.  1.
          3   -1    0    0  502    0  0.00000000000E+00 -0.00000000000E+00 -0.46769433714E+02  0.46769433714E+02  0.00000000000E+00 0. -1.
         23    2    1    2    0    0 -0.34361724146E+02 -0.10963140010E+03  0.24944267635E+03  0.28768092717E+03  0.85667351424E+02 0.  0.
         23    2    1    2    0    0  0.98456864059E-01  0.79068861512E+02  0.13297832934E+03  0.18006036472E+03  0.92122767632E+02 0.  0.
        -11    1    4    4    0    0  0.41540700787E+02  0.43660690283E+02  0.98778276979E+02  0.11571099213E+03  0.00000000000E+00 0.  1.
         11    1    4    4    0    0 -0.41442243923E+02  0.35408171229E+02  0.34200052361E+02  0.64349372590E+02  0.00000000000E+00 0. -1.
        -11    1    3    3    0    0  0.23872150938E+02 -0.66081710668E+02  0.13241337422E+03  0.14989987908E+03  0.00000000000E+00 0.  1.
         11    1    3    3    0    0 -0.58233875084E+02 -0.43549689428E+02  0.11702930213E+03  0.13778104809E+03  0.00000000000E+00 0. -1.
         21    1    1    2  502  501  0.34263267282E+02  0.30562538584E+02  0.12413913771E+03  0.13235771893E+03  0.00000000000E+00 0. -1.
<scales pt_clust_5="13000.00000" pt_clust_6="13000.00000" pt_clust_7="13000.00000" pt_clust_8="13000.00000" pt_clust_9="45.91340"></scales>
<clustering>
<clus scale="   45.913">  1  9  2 -1</clus>
<clus scale="   85.667">  7  8 -1 -1</clus>
<clus scale="   92.123">  5  6 -1 -1</clus>
<clus scale="  125.135">  1  7  2 -1</clus>
<clus scale="  129.639">  2  5  1 -1</clus>
</clustering>
</event>
<event>
 9    1  0.1612788E-005  0.1326793E+03  0.7546771E-02  0.1225639E+00
          1   -1    0    0  502    0  0.00000000000E+00  0.00000000000E+00  0.50144960931E+03  0.50144960931E+03  0.00000000000E+00 0. -1.
         -1   -1    0    0    0  501 -0.00000000000E+00 -0.00000000000E+00 -0.56908732584E+02  0.56908732584E+02  0.00000000000E+00 0.  1.
         23    2    1    2    0    0 -0.64734679687E+02 -0.71317632001E+02  0.94787261903E+02  0.16647845098E+03  0.97229965711E+02 0.  0.
         23    2    1    2    0    0  0.79939491444E+02  0.40924996071E+02  0.32781588392E+03  0.35143038342E+03  0.89302200678E+02 0.  0.
        -11    1    4    4    0    0  0.12241735363E+02 -0.24233361803E+02  0.12488703846E+03  0.12780410121E+03  0.00000000000E+00 0.  1.
         11    1    4    4    0    0  0.67697756081E+02  0.65158357874E+02  0.20292884546E+03  0.22362628222E+03  0.00000000000E+00 0. -1.
        -13    1    3    3    0    0 -0.33358608232E+02 -0.30109509826E+02 -0.13095710551E+02  0.46806804634E+02  0.00000000000E+00 0.  1.
         13    1    3    3    0    0 -0.31376071454E+02 -0.41208122175E+02  0.10788297245E+03  0.11967164634E+03  0.00000000000E+00 0. -1.
         21    1    1    2  502  501 -0.15204811758E+02  0.30392635930E+02  0.21937730900E+02  0.40449507493E+02  0.00000000000E+00 0.  1.
<scales pt_clust_5="13000.00000" pt_clust_6="13000.00000" pt_clust_7="13000.00000" pt_clust_8="13000.00000" pt_clust_9="33.98380"></scales>
<clustering>
<clus scale="   33.984">  2  9  1 -1</clus>
<clus scale="   89.302">  5  6 -1 -1</clus>
<clus scale="   97.230">  7  8 -1 -1</clus>
<clus scale="  126.984">  1  5  2 -1</clus>
<clus scale="  126.984">  1  5  2 -1</clus>
</clustering>
</event>
<event>
 9    1  0.1612788E-005  0.1111690E+03  0.7546771E-02  0.1266950E+00
         -1   -1    0    0    0  501 -0.00000000000E+00  0.00000000000E+00  0.36548723094E+03  0.36548723094E+03  0.00000000000E+00 0.  1.
          1   -1    0    0  502    0  0.00000000000E+00 -0.00000000000E+00 -0.27060292766E+03  0.27060292766E+03  0.00000000000E+00 0. -1.
         23    2    1    2    0    0  0.39944576637E+02 -0.43408775956E+02  0.16723410627E+02  0.10990550739E+03  0.91212154118E+02 0.  0.
         23    2    1    2    0    0  0.20409982547E+02  0.16052140622E+02 -0.20600642058E+03  0.23439342410E+03  0.10875381987E+03 0.  0.
        -11    1    4    4    0    0  0.35379844340E+02  0.34631732624E+02 -0.20458607795E+03  0.21049121972E+03  0.00000000000E+00 0. -1.
         11    1    4    4    0    0 -0.14969861793E+02 -0.18579592002E+02 -0.14203426308E+01  0.23902204381E+02  0.00000000000E+00 0.  1.
        -13    1    3    3    0    0 -0.94446958748E+01 -0.19382520429E+02  0.43688962635E+02  0.48719706839E+02  0.00000000000E+00 0.  1.
         13    1    3    3    0    0  0.49389272512E+02 -0.24026255528E+02 -0.26965552008E+02  0.61185800550E+02  0.00000000000E+00 0. -1.
         21    1    1    2  502  501 -0.60354559184E+02  0.27356635334E+02  0.28416731322E+03  0.29179122711E+03  0.00000000000E+00 0.  1.
<scales pt_clust_5="13000.00000" pt_clust_6="13000.00000" pt_clust_7="13000.00000" pt_clust_8="13000.00000" pt_clust_9="66.26506"></scales>
<clustering>
<clus scale="   66.265">  1  9  2 -1</clus>
<clus scale="   91.212">  7  8 -1 -1</clus>
<clus scale="   94.079">  1  7  2 -1</clus>
<clus scale="  108.754">  5  6 -1 -1</clus>
<clus scale="  111.169">  2  5  1 -1</clus>
</clustering>
</event>
<event>
 9    1  0.1612788E-005  0.1005209E+03  0.7546771E-02  0.1281077E+00
         -1   -1    0    0    0  501 -0.00000000000E+00  0.00000000000E+00  0.22441201559E+02  0.22441201559E+02  0.00000000000E+00 0.  1.
          1   -1    0    0  502    0  0.00000000000E+00 -0.00000000000E+00 -0.64850348734E+03  0.64850348734E+03  0.00000000000E+00 0. -1.
         23    2    1    2    0    0  0.37303396080E+02  0.12660621075E+02 -0.22136064328E+03  0.24447192967E+03  0.95990391802E+02 0.  0.
         23    2    1    2    0    0 -0.24086336605E+02  0.18627897370E+02 -0.33690037052E+03  0.35063955720E+03  0.92298912488E+02 0.  0.
        -11    1    3    3    0    0  0.16242428134E+02 -0.38706516458E+02 -0.55631901655E+02  0.69691601859E+02  0.00000000000E+00 0.  1.
         11    1    3    3    0    0  0.21060967946E+02  0.51367137532E+02 -0.16572874163E+03  0.17478032781E+03  0.00000000000E+00 0. -1.
        -11    1    4    4    0    0 -0.40994998662E+02  0.45401693627E+02 -0.26673780331E+03  0.27366212638E+03  0.00000000000E+00 0. -1.
         11    1    4    4    0    0  0.16908662057E+02 -0.26773796257E+02 -0.70162567209E+02  0.76977430822E+02  0.00000000000E+00 0.  1.
         21    1    1    2  502  501 -0.13217059475E+02 -0.31288518444E+02 -0.67801271981E+02  0.75833202028E+02  0.00000000000E+00 0.  1.
<scales pt_clust_5="13000.00000" pt_clust_6="13000.00000" pt_clust_7="13000.00000" pt_clust_8="13000.00000" pt_clust_9="33.96560"></scales>
<clustering>
<clus scale="   33.966">  1  9  2 -1</clus>
<clus scale="   92.299">  7  8 -1 -1</clus>
<clus scale="   95.990">  5  6 -1 -1</clus>
<clus scale="   97.002">  2  7  1 -1</clus>
<clus scale="   97.002">  2  5  1 -1</clus>
</clustering>
</event>
<event>
 9    1  0.1612788E-005  0.1431579E+03  0.7546771E-02  0.1213549E+00
          1   -1    0    0  502    0  0.00000000000E+00  0.00000000000E+00  0.26655561234E+03  0.26655561234E+03  0.00000000000E+00 0. -1.
         -1   -1    0    0    0  501 -0.00000000000E+00 -0.00000000000E+00 -0.14833618185E+03  0.14833618185E+03  0.00000000000E+00 0.  1.
         23    2    1    2    0    0 -0.49945071733E+01 -0.11589444181E+03  0.37307785752E+02  0.15359439440E+03  0.93503477847E+02 0.  0.
         23    2    1    2    0    0  0.34799486201E+02  0.10072775729E+03  0.14196180889E+03  0.19168786282E+03  0.72346363001E+02 0.  0.
        -11    1    4    4    0    0 -0.11682784800E+02  0.63274436516E+02  0.99269171222E+02  0.11829839446E+03  0.00000000000E+00 0.  1.
         11    1    4    4    0    0  0.46482271001E+02  0.37453320772E+02  0.42692637668E+02  0.73389468354E+02  0.00000000000E+00 0. -1.
        -13    1    3    3    0    0 -0.34229948612E+02 -0.15519191207E+02 -0.99273937942E+01  0.38872713119E+02  0.00000000000E+00 0.  1.
         13    1    3    3    0    0  0.29235441438E+02 -0.10037525060E+03  0.47235179546E+02  0.11472168128E+03  0.00000000000E+00 0. -1.
         21    1    1    2  502  501 -0.29804979028E+02  0.15166684517E+02 -0.61050164161E+02  0.69609536977E+02  0.00000000000E+00 0.  1.
<scales pt_clust_5="13000.00000" pt_clust_6="13000.00000" pt_clust_7="13000.00000" pt_clust_8="13000.00000" pt_clust_9="33.44197"></scales>
<clustering>
<clus scale="   33.442">  2  9  1 -1</clus>
<clus scale="   72.346">  5  6 -1 -1</clus>
<clus scale="   93.503">  7  8 -1 -1</clus>
<clus scale="  130.328">  1  5  2 -1</clus>
<clus scale="  130.328">  1  5  2 -1</clus>
</clustering>
</event>
<event>
 9    1  0.1612788E-005  0.9190860E+02  0.7546771E-02  0.1298975E+00
         -1   -1    0    0    0  501 -0.00000000000E+00  0.00000000000E+00  0.19478863633E+03  0.19478863633E+03  0.00000000000E+00 0.  1.
          1   -1    0    0  502    0  0.00000000000E+00 -0.00000000000E+00 -0.57177319271E+03  0.57177319271E+03  0.00000000000E+00 0. -1.
         23    2    1    2    0    0 -0.63126181869E+01  0.44313429457E+02 -0.13001632063E+03  0.16456920095E+03  0.90417084069E+02 0.  0.
         23    2    1    2    0    0  0.11345755303E+01 -0.86324705096E+01 -0.41784212656E+03  0.42735635031E+03  0.89250213534E+02 0.  0.
        -13    1    3    3    0    0 -0.36432015106E+02  0.18357303621E+00 -0.18380194150E+02  0.40806334811E+02  0.00000000000E+00 0.  1.
         13    1    3    3    0    0  0.30119396919E+02  0.44129856420E+02 -0.11163612648E+03  0.12376286614E+03  0.00000000000E+00 0. -1.
        -13    1    4    4    0    0 -0.52703176225E+01  0.39926370632E+02 -0.20933361223E+03  0.21317235405E+03  0.00000000000E+00 0. -1.
         13    1    4    4    0    0  0.64048931528E+01 -0.48558841142E+02 -0.20850851432E+03  0.21418399626E+03  0.00000000000E+00 0.  1.
         21    1    1    2  502  501  0.51780426566E+01 -0.35680958947E+02  0.17087389081E+03  0.17463627778E+03  0.00000000000E+00 0.  1.
<scales pt_clust_5="13000.00000" pt_clust_6="13000.00000" pt_clust_7="13000.00000" pt_clust_8="13000.00000" pt_clust_9="36.05472"></scales>
<clustering>
<clus scale="   36.055">  1  9  2 -1</clus>
<clus scale="   89.250">  7  8 -1 -1</clus>
<clus scale="   90.417">  5  6 -1 -1</clus>
<clus scale="   90.761">  2  7  1 -1</clus>
<clus scale="   90.761">  2  5  1 -1</clus>
</clustering>
</event>
<event>
 9    1  0.1612788E-005  0.1422534E+03  0.7546771E-02  0.1210754E+00
         -2   -1    0    0    0  501 -0.00000000000E+00  0.00000000000E+00  0.49246792924E+02  0.49246792924E+02  0.00000000000E+00 0.  1.
          2   -1    0    0  502    0  0.00000000000E+00 -0.00000000000E+00 -0.63155083597E+03  0.63155083597E+03  0.00000000000E+00 0. -1.
         23    2    1    2    0    0 -0.53608513488E+02  0.78328978989E+02 -0.18393758388E+03  0.22700180757E+03  0.93206674699E+02 0.  0.
         23    2    1    2    0    0  0.50809759925E+02 -0.10053083706E+03 -0.40454859160E+03  0.43058000162E+03  0.95139339527E+02 0.  0.
        -13    1    4    4    0    0 -0.22108862181E+02 -0.50544650455E+02 -0.11014189022E+03  0.12318603597E+03  0.00000000000E+00 0.  1.
         13    1    4    4    0    0  0.72918622106E+02 -0.49986186609E+02 -0.29440670138E+03  0.30739396565E+03  0.00000000000E+00 0. -1.
        -13    1    3    3    0    0 -0.19292271508E+02  0.20912968180E+02  0.28536533682E+01  0.28595232393E+02  0.00000000000E+00 0.  1.
         13    1    3    3    0    0 -0.34316241979E+02  0.57416010808E+02 -0.18679123724E+03  0.19840657517E+03  0.00000000000E+00 0. -1.
         21    1    1    2  502  501  0.27987535626E+01  0.22201858075E+02  0.61821324263E+01  0.23215819711E+02  0.00000000000E+00 0. -1.
<scales pt_clust_5="13000.00000" pt_clust_6="13000.00000" pt_clust_7="13000.00000" pt_clust_8="13000.00000" pt_clust_9="22.37757"></scales>
<clustering>
<clus scale="   22.378">  1  9  2 -1</clus>
<clus scale="   93.207">  7  8 -1 -1</clus>
<clus scale="   95.139">  5  6 -1 -1</clus>
<clus scale="  140.968">  1  7  2 -1</clus>
<clus scale="  142.253">  2  5  1 -1</clus>
</clustering>
</event>
<event>
 9    1  0.1612788E-005  0.1795817E+03  0.7546771E-02  0.1168650E+00
         -2   -1    0    0    0  501 -0.00000000000E+00  0.00000000000E+00  0.42132575141E+03  0.42132575141E+03  0.00000000000E+00 0.  1.
          2   -1    0    0  502    0  0.00000000000E+00 -0.00000000000E+00 -0.54667375054E+03  0.54667375054E+03  0.00000000000E+00 0. -1.
         23    2    1    2    0    0  0.80249859297E+02 -0.39918123925E+02  0.32928944926E+03  0.35265841829E+03  0.88898380531E+02 0.  0.
         23    2    1    2    0    0 -0.14108821875E+03  0.68813027277E+02 -0.50131756696E+03  0.53339442485E+03  0.92461837154E+02 0.  0.
        -13    1    3    3    0    0  0.64020686310E+02  0.14385487634E+02  0.13230984253E+03  0.14768711847E+03  0.00000000000E+00 0. -1.
         13    1    3    3    0    0  0.16229172987E+02 -0.54303611559E+02  0.19697960673E+03  0.20497129982E+03  0.00000000000E+00 0.  1.
        -13    1    4    4    0    0 -0.90251337116E+02  0.56280129933E+02 -0.19035412872E+03  0.21805378052E+03  0.00000000000E+00 0.  1.
         13    1    4    4    0    0 -0.50836881636E+02  0.12532897344E+02 -0.31096343824E+03  0.31534064434E+03  0.00000000000E+00 0. -1.
         21    1    1    2  502  501  0.60838359454E+02 -0.28894903353E+02  0.46680118566E+02  0.81946658810E+02  0.00000000000E+00 0.  1.
<scales pt_clust_5="13000.00000" pt_clust_6="13000.00000" pt_clust_7="13000.00000" pt_clust_8="13000.00000" pt_clust_9="67.35148"></scales>
<clustering>
<clus scale="   67.351">  1  9  2 -1</clus>
<clus scale="   88.898">  5  6 -1 -1</clus>
<clus scale="   92.462">  7  8 -1 -1</clus>
<clus scale="  177.773">  1  5  2 -1</clus>
<clus scale="  179.582">  2  5  1 -1</clus>
</clustering>
</event>
<event>
 9    1  0.1612788E-005  0.1543151E+03  0.7546771E-02  0.1195305E+00
          3   -1    0    0  502    0  0.00000000000E+00  0.00000000000E+00  0.37125702100E+03  0.37125702100E+03  0.00000000000E+00 0. -1.
         -3   -1    0    0    0  501 -0.00000000000E+00 -0.00000000000E+00 -0.95707956674E+02  0.95707956674E+02  0.00000000000E+00 0.  1.
         23    2    1    2    0    0  0.53214892037E+02 -0.11236477017E+03  0.61615781151E+02  0.16559092767E+03  0.90366943793E+02 0.  0.
         23    2    1    2    0    0 -0.97417852878E+02  0.89288007787E+02  0.14236656397E+03  0.21414885864E+03  0.90160461005E+02 0.  0.
        -11    1    3    3    0    0  0.56231983152E+02 -0.51048286253E+02 -0.35915082392E+01  0.76031982678E+02  0.00000000000E+00 0.  1.
         11    1    3    3    0    0 -0.30170911153E+01 -0.61316483916E+02  0.65207289390E+02  0.89558944993E+02  0.00000000000E+00 0. -1.
        -11    1    4    4    0    0 -0.70442434097E+02  0.70198704231E+02  0.15024472085E+03  0.18017622135E+03  0.00000000000E+00 0. -1.
         11    1    4    4    0    0 -0.26975418781E+02  0.19089303556E+02 -0.78781568835E+01  0.33972637292E+02  0.00000000000E+00 0.  1.
         21    1    1    2  502  501  0.44202960841E+02  0.23076762382E+02  0.71566719203E+02  0.87225191354E+02  0.00000000000E+00 0.  1.
<scales pt_clust_5="13000.00000" pt_clust_6="13000.00000" pt_clust_7="13000.00000" pt_clust_8="13000.00000" pt_clust_9="49.86420"></scales>
<clustering>
<clus scale="   49.864">  1  9  2 -1</clus>
<clus scale="   90.160">  7  8 -1 -1</clus>
<clus scale="   90.367">  5  6 -1 -1</clus>
<clus scale="  154.194">  1  7  2 -1</clus>
<clus scale="   49.864">  1  5  2 -1</clus>
</clustering>
</event>
<event>
 9    1  0.1612788E-005  0.1413653E+03  0.7546771E-02  0.1212182E+00
         -2   -1    0    0    0  501 -0.00000000000E+00  0.00000000000E+00  0.11478388897E+03  0.11478388897E+03  0.00000000000E+00 0.  1.
          2   -1    0    0  502    0  0.00000000000E+00 -0.00000000000E+00 -0.25248913608E+03  0.25248913608E+03  0.00000000000E+00 0. -1.
         23    2    1    2    0    0  0.10511954341E+03  0.63996328757E+02 -0.88016988813E+00  0.15390252551E+03  0.92409762238E+02 0.  0.
         23    2    1    2    0    0 -0.91183428018E+02 -0.43765621032E+02 -0.13116446411E+03  0.18816059300E+03  0.89277348654E+02 0.  0.
        -11    1    4    4    0    0 -0.39300783286E+02 -0.12143037841E+02 -0.11938034178E+03  0.12626824993E+03  0.00000000000E+00 0. -1.
         11    1    4    4    0    0 -0.51882644731E+02 -0.31622583191E+02 -0.11784122328E+02  0.61892343073E+02  0.00000000000E+00 0.  1.
        -13    1    3    3    0    0  0.35305005016E+02 -0.18622400097E+02 -0.19037582172E+02  0.44222920522E+02  0.00000000000E+00 0.  1.
         13    1    3    3    0    0  0.69814538394E+02  0.82618728854E+02  0.18157412284E+02  0.10967960498E+03  0.00000000000E+00 0. -1.
         21    1    1    2  502  501 -0.13936115392E+02 -0.20230707725E+02 -0.56606131082E+01  0.25209906545E+02  0.00000000000E+00 0.  1.
<scales pt_clust_5="13000.00000" pt_clust_6="13000.00000" pt_clust_7="13000.00000" pt_clust_8="13000.00000" pt_clust_9="24.56617"></scales>
<clustering>
<clus scale="   24.566">  1  9  2 -1</clus>
<clus scale="   89.277">  5  6 -1 -1</clus>
<clus scale="   92.410">  7  8 -1 -1</clus>
<clus scale="  139.338">  2  5  1 -1</clus>
<clus scale="  139.338">  2  5  1 -1</clus>
</clustering>
</event>
<event>
 9    1  0.1612788E-005  0.9644774E+02  0.7546771E-02  0.1288299E+00
          2   -1    0    0  502    0  0.00000000000E+00  0.00000000000E+00  0.52414502181E+03  0.52414502181E+03  0.00000000000E+00 0. -1.
         -2   -1    0    0    0  501 -0.00000000000E+00 -0.00000000000E+00 -0.26678568517E+02  0.26678568517E+02  0.00000000000E+00 0.  1.
         23    2    1    2    0    0 -0.38413113442E+02 -0.27777912370E+02  0.14384840212E+03  0.17656799887E+03  0.90756353674E+02 0.  0.
         23    2    1    2    0    0  0.25221288959E+02  0.95452531903E+01  0.32198175421E+03  0.33543150899E+03  0.90082306278E+02 0.  0.
        -11    1    3    3    0    0 -0.37813387303E+02  0.84113698497E+01  0.13085015965E+02  0.40887908296E+02  0.00000000000E+00 0.  1.
         11    1    3    3    0    0 -0.59972613910E+00 -0.36189282220E+02  0.13076338616E+03  0.13568009057E+03  0.00000000000E+00 0. -1.
        -11    1    4    4    0    0  0.39547458148E+02  0.32644078325E+02  0.28476811218E+03  0.28934843184E+03  0.00000000000E+00 0.  1.
         11    1    4    4    0    0 -0.14326169189E+02 -0.23098825135E+02  0.37213642031E+02  0.46083077148E+02  0.00000000000E+00 0. -1.
         21    1    1    2  502  501  0.13191824482E+02  0.18232659180E+02  0.31636296960E+02  0.38824082465E+02  0.00000000000E+00 0.  1.
<scales pt_clust_5="13000.00000" pt_clust_6="13000.00000" pt_clust_7="13000.00000" pt_clust_8="13000.00000" pt_clust_9="22.50453"></scales>
<clustering>
<clus scale="   22.505">  2  9  1 -1</clus>
<clus scale="   90.082">  7  8 -1 -1</clus>
<clus scale="   90.756">  5  6 -1 -1</clus>
<clus scale="   95.814">  1  7  2 -1</clus>
<clus scale="   95.814">  1  5  2 -1</clus>
</clustering>
</event>
<event>
 9    1  0.1612788E-005  0.1040671E+03  0.7546771E-02  0.1273172E+00
         -3   -1    0    0    0  501 -0.00000000000E+00  0.00000000000E+00  0.15170419164E+03  0.15170419164E+03  0.00000000000E+00 0.  1.
          3   -1    0    0  502    0  0.00000000000E+00 -0.00000000000E+00 -0.12862573363E+03  0.12862573363E+03  0.00000000000E+00 0. -1.
         23    2    1    2    0    0 -0.21050034683E+00 -0.60525936689E+02 -0.12810132575E+02  0.11033924074E+03  0.91363095544E+02 0.  0.
         23    2    1    2    0    0 -0.18334296275E+02  0.39587608833E+02 -0.25930446719E+02  0.10213851855E+03  0.88637259163E+02 0.  0.
        -13    1    3    3    0    0  0.44645219920E+02 -0.19297797382E+02 -0.43799505487E+01  0.48834256545E+02  0.00000000000E+00 0.  1.
         13    1    3    3    0    0 -0.44855720267E+02 -0.41228139307E+02 -0.84301820260E+01  0.61504984192E+02  0.00000000000E+00 0. -1.
        -13    1    4    4    0    0 -0.41318712751E+02 -0.37091177395E+01 -0.32475187541E+02  0.52684261252E+02  0.00000000000E+00 0. -1.
         13    1    4    4    0    0  0.22984416477E+02  0.43296726572E+02  0.65447408218E+01  0.49454257300E+02  0.00000000000E+00 0.  1.
         21    1    1    2  502  501  0.18544796621E+02  0.20938327856E+02  0.61819037302E+02  0.67852165980E+02  0.00000000000E+00 0.  1.
<scales pt_clust_5="13000.00000" pt_clust_6="13000.00000" pt_clust_7="13000.00000" pt_clust_8="13000.00000" pt_clust_9="27.97004"></scales>
<clustering>
<clus scale="   27.970">  1  9  2 -1</clus>
<clus scale="   88.637">  7  8 -1 -1</clus>
<clus scale="   91.363">  5  6 -1 -1</clus>
<clus scale="  101.682">  2  7  1 -1</clus>
<clus scale="  101.682">  2  5  1 -1</clus>
</clustering>
</event>
<event>
 9    1  0.1612788E-005  0.4182000E+03  0.7546771E-02  0.1037680E+00
          1   -1    0    0  502    0  0.00000000000E+00  0.00000000000E+00  0.68680506395E+03  0.68680506395E+03  0.00000000000E+00 0. -1.
         -1   -1    0    0    0  501 -0.00000000000E+00 -0.00000000000E+00 -0.33685100013E+03  0.33685100013E+03  0.00000000000E+00 0.  1.
         23    2    1    2    0    0  0.19863934444E+03 -0.37648517278E+03 -0.12878828719E+02  0.43515685122E+03  0.89425647610E+02 0.  0.
         23    2    1    2    0    0 -0.19963144531E+03  0.34800696412E+03  0.37580927272E+03  0.55718820720E+03  0.90909448064E+02 0.  0.
        -11    1    4    4    0    0  0.68870962156E+01  0.39284823083E+02  0.33706505067E+02  0.52219324994E+02  0.00000000000E+00 0.  1.
         11    1    4    4    0    0 -0.20651854153E+03  0.30872214103E+03  0.34210276765E+03  0.50496888220E+03  0.00000000000E+00 0. -1.
        -13    1    3    3    0    0  0.63158120598E+02 -0.11800278599E+03 -0.45819832148E+02  0.14146753238E+03  0.00000000000E+00 0.  1.
         13    1    3    3    0    0  0.13548122384E+03 -0.25848238679E+03  0.32941003430E+02  0.29368931884E+03  0.00000000000E+00 0. -1.
         21    1    1    2  502  501  0.99210087022E+00  0.28478208667E+02 -0.12976380179E+02  0.31311005662E+02  0.00000000000E+00 0.  1.
<scales pt_clust_5="13000.00000" pt_clust_6="13000.00000" pt_clust_7="13000.00000" pt_clust_8="13000.00000" pt_clust_9="28.49548"></scales>
<clustering>
<clus scale="   28.495">  2  9  1 -1</clus>
<clus scale="   89.426">  7  8 -1 -1</clus>
<clus scale="   90.909">  5  6 -1 -1</clus>
<clus scale="  417.880">  2  7  1 -1</clus>
<clus scale="  418.200">  1  5  2 -1</clus>
</clustering>
</event>
<event>
 9    1  0.1612788E-005  0.1446350E+03  0.7546771E-02  0.1207598E+00
          3   -1    0    0  502    0  0.00000000000E+00  0.00000000000E+00  0.61786137162E+03  0.61786137162E+03  0.00000000000E+00 0. -1.
         -3   -1    0    0    0  501 -0.00000000000E+00 -0.00000000000E+00 -0.55041805518E+02  0.55041805518E+02  0.00000000000E+00 0.  1.
         23    2    1    2    0    0 -0.96302563961E+02 -0.89655345162E+02  0.26767129203E+03  0.31173016938E+03  0.90639468147E+02 0.  0.
         23    2    1    2    0    0  0.83923807799E+02  0.51368767318E+02  0.29090579043E+03  0.32071198559E+03  0.92455627339E+02 0.  0.
        -11    1    3    3    0    0 -0.49923152247E+02 -0.10040053062E+03  0.19100725458E+03  0.22148670159E+03  0.00000000000E+00 0. -1.
         11    1    3    3    0    0 -0.46379411714E+02  0.10745185457E+02  0.76664037447E+02  0.90243467792E+02  0.00000000000E+00 0.  1.
        -13    1    4    4    0    0  0.42978503566E+02 -0.15314198087E+02  0.17510604282E+03  0.18095248731E+03  0.00000000000E+00 0. -1.
         13    1    4    4    0    0  0.40945304233E+02  0.66682965404E+02  0.11579974761E+03  0.13975949828E+03  0.00000000000E+00 0.  1.
         21    1    1    2  502  501  0.12378756163E+02  0.38286577845E+02  0.42424836480E+01  0.40461022166E+02  0.00000000000E+00 0. -1.
<scales pt_clust_5="13000.00000" pt_clust_6="13000.00000" pt_clust_7="13000.00000" pt_clust_8="13000.00000" pt_clust_9="40.23799"></scales>
<clustering>
<clus scale="   40.238">  2  9  1 -1</clus>
<clus scale="   90.639">  5  6 -1 -1</clus>
<clus scale="   92.456">  7  8 -1 -1</clus>
<clus scale="  143.481">  2  5  1 -1</clus>
<clus scale="  144.635">  1  5  2 -1</clus>
</clustering>
</event>
<event>
 9    1  0.1612788E-005  0.1336391E+03  0.7546771E-02  0.1222431E+00
         -1   -1    0    0    0  501 -0.00000000000E+00  0.00000000000E+00  0.60338877769E+02  0.60338877769E+02  0.00000000000E+00 0.  1.
          1   -1    0    0  502    0  0.00000000000E+00 -0.00000000000E+00 -0.51740999002E+03  0.51740999002E+03  0.00000000000E+00 0. -1.
         23    2    1    2    0    0  0.65051034159E+02 -0.76781288726E+02 -0.11701730834E+03  0.17866693377E+03  0.90010107370E+02 0.  0.
         23    2    1    2    0    0 -0.86088212284E+02  0.47740819374E+02 -0.33743621293E+03  0.36312691342E+03  0.91145989096E+02 0.  0.
        -11    1    3    3    0    0  0.75211680693E+02 -0.20712848219E+02 -0.66070057156E+02  0.10223048198E+03  0.00000000000E+00 0.  1.
         11    1    3    3    0    0 -0.10160646533E+02 -0.56068440507E+02 -0.50947251187E+02  0.76436451790E+02  0.00000000000E+00 0. -1.
        -13    1    4    4    0    0 -0.50821640703E+02 -0.11445411319E+02 -0.22748192759E+03  0.23337065793E+03  0.00000000000E+00 0. -1.
         13    1    4    4    0    0 -0.35266571581E+02  0.59186230693E+02 -0.10995428534E+03  0.12975625549E+03  0.00000000000E+00 0.  1.
         21    1    1    2  502  501  0.21037178124E+02  0.29040469352E+02 -0.26175909858E+01  0.35955020597E+02  0.00000000000E+00 0.  1.
<scales pt_clust_5="13000.00000" pt_clust_6="13000.00000" pt_clust_7="13000.00000" pt_clust_8="13000.00000" pt_clust_9="35.85961"></scales>
<clustering>
<clus scale="   35.860">  1  9  2 -1</clus>
<clus scale="   90.010">  5  6 -1 -1</clus>
<clus scale="   91.146">  7  8 -1 -1</clus>
<clus scale="  132.867">  1  5  2 -1</clus>
<clus scale="  133.639">  2  5  1 -1</clus>
</clustering>
</event>
<event>
 9    1  0.1612788E-005  0.1029875E+03  0.7546771E-02  0.1275003E+00
         -1   -1    0    0    0  501 -0.00000000000E+00  0.00000000000E+00  0.67620277537E+02  0.67620277537E+02  0.00000000000E+00 0.  1.
          1   -1    0    0  502    0  0.00000000000E+00 -0.00000000000E+00 -0.25210624555E+03  0.25210624555E+03  0.00000000000E+00 0. -1.
         23    2    1    2    0    0 -0.12468862178E+02  0.58423405157E+02 -0.16152985758E+02  0.11159455019E+03  0.92863652136E+02 0.  0.
         23    2    1    2    0    0  0.48320452159E+01 -0.39622861502E+02 -0.15409190496E+03  0.18334105324E+03  0.90974209610E+02 0.  0.
        -11    1    4    4    0    0 -0.36374311862E+02 -0.41542880473E+01 -0.10066154354E+03  0.10711253438E+03  0.00000000000E+00 0.  1.
         11    1    4    4    0    0  0.41206357078E+02 -0.35468573455E+02 -0.53430361415E+02  0.76228518859E+02  0.00000000000E+00 0. -1.
        -13    1    3    3    0    0  0.22100110299E+02 -0.41839947978E+01 -0.31248322651E+02  0.38501666927E+02  0.00000000000E+00 0. -1.
         13    1    3    3    0    0 -0.34568972477E+02  0.62607399955E+02  0.15095336893E+02  0.73092883259E+02  0.00000000000E+00 0.  1.
         21    1    1    2  502  501  0.76368169619E+01 -0.18800543655E+02 -0.14241077292E+02  0.24790919658E+02  0.00000000000E+00 0. -1.
<scales pt_clust_5="13000.00000" pt_clust_6="13000.00000" pt_clust_7="13000.00000" pt_clust_8="13000.00000" pt_clust_9="20.29240"></scales>
<clustering>
<clus scale="   20.292">  1  9  2 -1</clus>
<clus scale="   90.974">  5  6 -1 -1</clus>
<clus scale="   92.864">  7  8 -1 -1</clus>
<clus scale="  101.287">  2  5  1 -1</clus>
<clus scale="  101.287">  2  5  1 -1</clus>
</clustering>
</event>
<event>
 9    1  0.1612788E-005  0.1064171E+03  0.7546771E-02  0.1273875E+00
          3   -1    0    0  502    0  0.00000000000E+00  0.00000000000E+00  0.84599756813E+02  0.84599756813E+02  0.00000000000E+00 0. -1.
         -3   -1    0    0    0  501 -0.00000000000E+00 -0.00000000000E+00 -0.36138893095E+03  0.36138893095E+03  0.00000000000E+00 0.  1.
         23    2    1    2    0    0  0.31219812746E+01  0.31596612913E+01 -0.26872643141E+03  0.28276325758E+03  0.87871694379E+02 0.  0.
         23    2    1    2    0    0  0.17522012262E+02 -0.33296126934E+02  0.28357512621E+02  0.11164233188E+03  0.10121367874E+03 0.  0.
        -11    1    3    3    0    0 -0.37026750709E+02  0.12506718248E+02 -0.18913017011E+03  0.19312591622E+03  0.00000000000E+00 0.  1.
         11    1    3    3    0    0  0.40148731983E+02 -0.93470569567E+01 -0.79596261298E+02  0.89637341361E+02  0.00000000000E+00 0. -1.
        -13    1    4    4    0    0  0.51334651903E+02 -0.47234023472E+02  0.92210781738E+01  0.70365671616E+02  0.00000000000E+00 0. -1.
         13    1    4    4    0    0 -0.33812639640E+02  0.13937896538E+02  0.19136434447E+02  0.41276660266E+02  0.00000000000E+00 0.  1.
         21    1    1    2  502  501 -0.20643993537E+02  0.30136465642E+02 -0.36420255343E+02  0.51583098296E+02  0.00000000000E+00 0.  1.
<scales pt_clust_5="13000.00000" pt_clust_6="13000.00000" pt_clust_7="13000.00000" pt_clust_8="13000.00000" pt_clust_9="36.52918"></scales>
<clustering>
<clus scale="   36.529">  2  9  1 -1</clus>
<clus scale="   87.872">  5  6 -1 -1</clus>
<clus scale="   93.818">  2  5  1 -1</clus>
<clus scale="  101.214">  7  8 -1 -1</clus>
<clus scale="  106.417">  1  5  2 -1</clus>
</clustering>
</event>
<event>
 9    1  0.1612788E-005  0.1249410E+03  0.7546771E-02  0.1236816E+00
         -1   -1    0    0    0  501 -0.00000000000E+00  0.00000000000E+00  0.24234099904E+03  0.24234099904E+03  0.00000000000E+00 0.  1.
          1   -1    0    0  502    0  0.00000000000E+00 -0.00000000000E+00 -0.91240777589E+02  0.91240777589E+02  0.00000000000E+00 0. -1.
         23    2    1    2    0    0  0.61857908063E+01 -0.64408199781E+02  0.98314275748E+02  0.14920088473E+03  0.91698020600E+02 0.  0.
         23    2    1    2    0    0 -0.39846931232E+02  0.91102943175E+02  0.26695905023E+02  0.13411786451E+03  0.85950020662E+02 0.  0.
        -11    1    4    4    0    0 -0.66996144222E+02  0.60711183409E+02  0.14403502904E+02  0.91552127378E+02  0.00000000000E+00 0.  1.
         11    1    4    4    0    0  0.27149212990E+02  0.30391759767E+02  0.12292402119E+02  0.42565737131E+02  0.00000000000E+00 0. -1.
        -11    1    3    3    0    0 -0.29716096833E+02 -0.19573668736E+02  0.82160348681E+02  0.89534897187E+02  0.00000000000E+00 0.  1.
         11    1    3    3    0    0  0.35901887639E+02 -0.44834531045E+02  0.16153927066E+02  0.59665987545E+02  0.00000000000E+00 0. -1.
         21    1    1    2  502  501  0.33661140426E+02 -0.26694743394E+02  0.26090040686E+02  0.50263027393E+02  0.00000000000E+00 0. -1.
<scales pt_clust_5="13000.00000" pt_clust_6="13000.00000" pt_clust_7="13000.00000" pt_clust_8="13000.00000" pt_clust_9="42.96140"></scales>
<clustering>
<clus scale="   42.961">  1  9  2 -1</clus>
<clus scale="   85.950">  5  6 -1 -1</clus>
<clus scale="   91.698">  7  8 -1 -1</clus>
<clus scale="  120.785">  2  5  1 -1</clus>
<clus scale="  120.785">  2  5  1 -1</clus>
</clustering>
</event>
<event>
 9    1  0.1612788E-005  0.1179750E+03  0.7546771E-02  0.1246888E+00
          2   -1    0    0  502    0  0.00000000000E+00  0.00000000000E+00  0.24654671409E+03  0.24654671409E+03  0.00000000000E+00 0. -1.
         -2   -1    0    0    0  501 -0.00000000000E+00 -0.00000000000E+00 -0.14686006991E+03  0.14686006991E+03  0.00000000000E+00 0.  1.
         23    2    1    2    0    0  0.58562216625E+01  0.50327627267E+02 -0.59121231205E+02  0.11992945460E+03  0.91217260996E+02 0.  0.
         23    2    1    2    0    0 -0.15224742078E+02 -0.77976436010E+02  0.19377185363E+03  0.22792839335E+03  0.89953898704E+02 0.  0.
        -13    1    4    4    0    0 -0.40090992269E+02 -0.67978854294E+02  0.18253856060E+03  0.19886864609E+03  0.00000000000E+00 0.  1.
         13    1    4    4    0    0  0.24866250190E+02 -0.99975817157E+01  0.11233293036E+02  0.29059747265E+02  0.00000000000E+00 0. -1.
        -13    1    3    3    0    0  0.24557156419E+02  0.15916448632E+02  0.17344206418E+02  0.34017771307E+02  0.00000000000E+00 0. -1.
         13    1    3    3    0    0 -0.18700934756E+02  0.34411178634E+02 -0.76465437623E+02  0.85911683296E+02  0.00000000000E+00 0.  1.
         21    1    1    2  502  501  0.93685204160E+01  0.27648808743E+02 -0.34963978254E+02  0.45548936047E+02  0.00000000000E+00 0. -1.
<scales pt_clust_5="13000.00000" pt_clust_6="13000.00000" pt_clust_7="13000.00000" pt_clust_8="13000.00000" pt_clust_9="29.19291"></scales>
<clustering>
<clus scale="   29.193">  2  9  1 -1</clus>
<clus scale="   89.954">  5  6 -1 -1</clus>
<clus scale="   91.217">  7  8 -1 -1</clus>
<clus scale="  117.001">  1  5  2 -1</clus>
<clus scale="  117.001">  1  5  2 -1</clus>
</clustering>
</event>
<event>
 9    1  0.1612788E-005  0.1244229E+03  0.7546771E-02  0.1238215E+00
         -1   -1    0    0    0  501 -0.00000000000E+00  0.00000000000E+00  0.24960083627E+03  0.24960083627E+03  0.00000000000E+00 0.  1.
          1   -1    0    0  502    0  0.00000000000E+00 -0.00000000000E+00 -0.23904418740E+03  0.23904418740E+03  0.00000000000E+00 0. -1.
         23    2    1    2    0    0 -0.82240488409E+01 -0.78161157956E+02  0.20483342502E+03  0.23732162870E+03  0.90487688961E+02 0.  0.
         23    2    1    2    0    0  0.33304796689E+02  0.55077494852E+02 -0.17931459476E+03  0.21409751302E+03  0.97679482317E+02 0.  0.
        -11    1    4    4    0    0  0.44004075300E+02 -0.42665191245E+01 -0.12627076859E+03  0.13378665415E+03  0.00000000000E+00 0. -1.
         11    1    4    4    0    0 -0.10699278611E+02  0.59344013976E+02 -0.53043826170E+02  0.80310858870E+02  0.00000000000E+00 0.  1.
        -11    1    3    3    0    0  0.82922220289E+01 -0.94575649296E+02  0.17844332008E+03  0.20212702162E+03  0.00000000000E+00 0.  1.
         11    1    3    3    0    0 -0.16516270870E+02  0.16414491340E+02  0.26390104934E+02  0.35194607085E+02  0.00000000000E+00 0. -1.
         21    1    1    2  502  501 -0.25080747848E+02  0.23083663105E+02 -0.14962181394E+02  0.37225881951E+02  0.00000000000E+00 0.  1.
<scales pt_clust_5="13000.00000" pt_clust_6="13000.00000" pt_clust_7="13000.00000" pt_clust_8="13000.00000" pt_clust_9="34.08665"></scales>
<clustering>
<clus scale="   34.087">  2  9  1 -1</clus>
<clus scale="   90.488">  7  8 -1 -1</clus>
<clus scale="   97.679">  5  6 -1 -1</clus>
<clus scale="  118.860">  1  7  2 -1</clus>
<clus scale="   34.087">  2  5  1 -1</clus>
</clustering>
</event>
<event>
 9    1  0.1612788E-005  0.1009089E+03  0.7546771E-02  0.1278465E+00
          2   -1    0    0  502    0  0.00000000000E+00  0.00000000000E+00  0.52146368092E+03  0.52146368092E+03  0.00000000000E+00 0. -1.
         -2   -1    0    0    0  501 -0.00000000000E+00 -0.00000000000E+00 -0.38678950515E+02  0.38678950515E+02  0.00000000000E+00 0.  1.
         23    2    1    2    0    0 -0.53408236141E+02  0.26427393695E+02  0.24630450639E+03  0.26936717686E+03  0.91334107956E+02 0.  0.
         23    2    1    2    0    0  0.30765517854E+02  0.49065827523E+00  0.23667719437E+03  0.25559999423E+03  0.91479532572E+02 0.  0.
        -11    1    4    4    0    0  0.13423038553E+02 -0.44677155326E+02  0.13855894284E+03  0.14620125449E+03  0.00000000000E+00 0. -1.
         11    1    4    4    0    0  0.17342479301E+02  0.45167813601E+02  0.98118251525E+02  0.10939873974E+03  0.00000000000E+00 0.  1.
        -13    1    3    3    0    0  0.22486120583E+02  0.97773944631E+01  0.25888981085E+02  0.35657571467E+02  0.00000000000E+00 0.  1.
         13    1    3    3    0    0 -0.75894356724E+02  0.16649999232E+02  0.22041552531E+03  0.23370960539E+03  0.00000000000E+00 0. -1.
         21    1    1    2  502  501  0.22642718287E+02 -0.26918051970E+02 -0.19697035684E+00  0.35175460347E+02  0.00000000000E+00 0.  1.
<scales pt_clust_5="13000.00000" pt_clust_6="13000.00000" pt_clust_7="13000.00000" pt_clust_8="13000.00000" pt_clust_9="35.17491"></scales>
<clustering>
<clus scale="   35.175">  2  9  1 -1</clus>
<clus scale="   91.334">  7  8 -1 -1</clus>
<clus scale="   91.480">  5  6 -1 -1</clus>
<clus scale="  100.777">  2  7  1 -1</clus>
<clus scale="  100.909">  1  5  2 -1</clus>
</clustering>
</event>
<event>
 9    1  0.1612788E-005  0.1305815E+03  0.7546771E-02  0.1227049E+00
          2   -1    0    0  502    0  0.00000000000E+00  0.00000000000E+00  0.32514792704E+03  0.32514792704E+03  0.00000000000E+00 0. -1.
         -2   -1    0    0    0  501 -0.00000000000E+00 -0.00000000000E+00 -0.89641767997E+02  0.89641767997E+02  0.00000000000E+00 0.  1.
         23    2    1    2    0    0 -0.10005755432E+03 -0.25074514090E+02  0.67799189180E+02  0.15301829320E+03  0.90430208265E+02 0.  0.
         23    2    1    2    0    0  0.88796981111E+02 -0.53351702114E+01  0.18500103242E+03  0.22502042895E+03  0.92170730470E+02 0.  0.
        -11    1    3    3    0    0 -0.10786647547E+03 -0.43841519385E+02  0.61825359628E+02  0.13183182637E+03  0.00000000000E+00 0.  1.
         11    1    3    3    0    0  0.78089211444E+01  0.18767005294E+02  0.59738295517E+01  0.21186466828E+02  0.00000000000E+00 0. -1.
        -13    1    4    4    0    0 -0.26075488977E+01 -0.22481799190E+02  0.61783765741E+01  0.23460668004E+02  0.00000000000E+00 0.  1.
         13    1    4    4    0    0  0.91404530008E+02  0.17146628979E+02  0.17882265584E+03  0.20155976095E+03  0.00000000000E+00 0. -1.
         21    1    1    2  502  501  0.11260573211E+02  0.30409684302E+02 -0.17294062553E+02  0.36750972885E+02  0.00000000000E+00 0. -1.
<scales pt_clust_5="13000.00000" pt_clust_6="13000.00000" pt_clust_7="13000.00000" pt_clust_8="13000.00000" pt_clust_9="32.42760"></scales>
<clustering>
<clus scale="   32.428">  2  9  1 -1</clus>
<clus scale="   90.430">  5  6 -1 -1</clus>
<clus scale="   92.171">  7  8 -1 -1</clus>
<clus scale="  129.359">  2  5  1 -1</clus>
<clus scale="  130.581">  1  5  2 -1</clus>
</clustering>
</event>
<event>
 9    1  0.1612788E-005  0.1016188E+03  0.7546771E-02  0.1277238E+00
          1   -1    0    0  502    0  0.00000000000E+00  0.00000000000E+00  0.23226372005E+03  0.23226372005E+03  0.00000000000E+00 0. -1.
         -1   -1    0    0    0  501 -0.00000000000E+00 -0.00000000000E+00 -0.65377439161E+02  0.65377439161E+02  0.00000000000E+00 0.  1.
         23    2    1    2    0    0  0.55902642041E+02 -0.64752889327E+01  0.77604432092E+02  0.13188561998E+03  0.90577779406E+02 0.  0.
         23    2    1    2    0    0 -0.27340214766E+02  0.29228901527E+02  0.80757892272E+02  0.12825624627E+03  0.91246980858E+02 0.  0.
        -11    1    4    4    0    0 -0.39727615713E+02  0.55709212715E+02  0.67641413725E+02  0.96214139721E+02  0.00000000000E+00 0.  1.
         11    1    4    4    0    0  0.12387400946E+02 -0.26480311188E+02  0.13116478547E+02  0.32042106552E+02  0.00000000000E+00 0. -1.
        -13    1    3    3    0    0  0.79368384661E+02 -0.14736077534E+02  0.51120597114E+02  0.95550028332E+02  0.00000000000E+00 0. -1.
         13    1    3    3    0    0 -0.23465742620E+02  0.82607886011E+01  0.26483834977E+02  0.36335591644E+02  0.00000000000E+00 0.  1.
         21    1    1    2  502  501 -0.28562427275E+02 -0.22753612594E+02  0.85239565258E+01  0.37499292964E+02  0.00000000000E+00 0.  1.
<scales pt_clust_5="13000.00000" pt_clust_6="13000.00000" pt_clust_7="13000.00000" pt_clust_8="13000.00000" pt_clust_9="36.51766"></scales>
<clustering>
<clus scale="   36.518">  2  9  1 -1</clus>
<clus scale="   90.578">  7  8 -1 -1</clus>
<clus scale="   91.247">  5  6 -1 -1</clus>
<clus scale="  101.018">  2  7  1 -1</clus>
<clus scale="  101.619">  1  5  2 -1</clus>
</clustering>
</event>
<event>
 9    1  0.1612788E-005  0.1480078E+03  0.7546771E-02  0.1202983E+00
          2   -1    0    0  502    0  0.00000000000E+00  0.00000000000E+00  0.21112610219E+03  0.21112610219E+03  0.00000000000E+00 0. -1.
         -2   -1    0    0    0  501 -0.00000000000E+00 -0.00000000000E+00 -0.16659755072E+03  0.16659755072E+03  0.00000000000E+00 0.  1.
         23    2    1    2    0    0 -0.14364116521E+03  0.48565244043E+02  0.25872754547E+02  0.17844390662E+03  0.90451429560E+02 0.  0.
         23    2    1    2    0    0  0.93753412160E+02 -0.18315225989E+02  0.39670716681E+02  0.13726782526E+03  0.90241566337E+02 0.  0.
        -11    1    4    4    0    0  0.94634635208E+02  0.63646775995E+01  0.53679803331E+01  0.95000202709E+02  0.00000000000E+00 0.  1.
         11    1    4    4    0    0 -0.88122304783E+00 -0.24679903588E+02  0.34302736348E+02  0.42267622551E+02  0.00000000000E+00 0. -1.
        -11    1    3    3    0    0 -0.10949441006E+03 -0.79765354781E+01  0.23931038463E+02  0.11236256296E+03  0.00000000000E+00 0. -1.
         11    1    3    3    0    0 -0.34146755153E+02  0.56541779521E+02  0.19417160842E+01  0.66081343663E+02  0.00000000000E+00 0.  1.
         21    1    1    2  502  501  0.49887753051E+02 -0.30250018055E+02 -0.21014919756E+02  0.62011921024E+02  0.00000000000E+00 0.  1.
<scales pt_clust_5="13000.00000" pt_clust_6="13000.00000" pt_clust_7="13000.00000" pt_clust_8="13000.00000" pt_clust_9="58.34254"></scales>
<clustering>
<clus scale="   58.343">  2  9  1 -1</clus>
<clus scale="   90.242">  5  6 -1 -1</clus>
<clus scale="   90.451">  7  8 -1 -1</clus>
<clus scale="  147.880">  1  5  2 -1</clus>
<clus scale="  147.880">  1  5  2 -1</clus>
</clustering>
</event>
<event>
 9    1  0.1612788E-005  0.1274911E+03  0.7546771E-02  0.1231687E+00
         -1   -1    0    0    0  501 -0.00000000000E+00  0.00000000000E+00  0.12947285843E+03  0.12947285843E+03  0.00000000000E+00 0.  1.
          1   -1    0    0  502    0  0.00000000000E+00 -0.00000000000E+00 -0.32762548736E+03  0.32762548736E+03  0.00000000000E+00 0. -1.
         23    2    1    2    0    0 -0.11345876702E+03  0.66387862368E+02  0.30341237408E+01  0.15930756754E+03  0.89941398067E+02 0.  0.
         23    2    1    2    0    0  0.49693504095E+02 -0.64035062021E+02 -0.19942904958E+03  0.23395791880E+03  0.91621113490E+02 0.  0.
        -13    1    3    3    0    0 -0.11899127571E+03  0.43016928713E+02  0.22349934168E+02  0.12848696202E+03  0.00000000000E+00 0.  1.
         13    1    3    3    0    0  0.55325086947E+01  0.23370933655E+02 -0.19315810427E+02  0.30820605523E+02  0.00000000000E+00 0. -1.
        -13    1    4    4    0    0  0.20568801785E+02 -0.78836980562E+02 -0.17540846668E+03  0.19340753681E+03  0.00000000000E+00 0. -1.
         13    1    4    4    0    0  0.29124702310E+02  0.14801918542E+02 -0.24020582900E+02  0.40550381996E+02  0.00000000000E+00 0.  1.
         21    1    1    2  502  501  0.63765262922E+02 -0.23528003467E+01 -0.17577030993E+01  0.63832859447E+02  0.00000000000E+00 0. -1.
<scales pt_clust_5="13000.00000" pt_clust_6="13000.00000" pt_clust_7="13000.00000" pt_clust_8="13000.00000" pt_clust_9="63.80865"></scales>
<clustering>
<clus scale="   63.809">  1  9  2 -1</clus>
<clus scale="   89.941">  5  6 -1 -1</clus>
<clus scale="   91.621">  7  8 -1 -1</clus>
<clus scale="  126.289">  1  5  2 -1</clus>
<clus scale="  127.491">  2  5  1 -1</clus>
</clustering>
</event>
<event>
 9    1  0.1612788E-005  0.1056166E+03  0.7546771E-02  0.1273023E+00
         -4   -1    0    0    0  501 -0.00000000000E+00  0.00000000000E+00  0.19341722415E+03  0.19341722415E+03  0.00000000000E+00 0.  1.
          4   -1    0    0  502    0  0.00000000000E+00 -0.00000000000E+00 -0.28437993323E+03  0.28437993323E+03  0.00000000000E+00 0. -1.
         23    2    1    2    0    0  0.15348441545E+02 -0.71466047204E+02  0.90910426897E+01  0.11739370215E+03  0.91409319478E+02 0.  0.
         23    2    1    2    0    0  0.12553004549E+02  0.49082410952E+02 -0.21736309726E+03  0.23776169885E+03  0.81958821371E+02 0.  0.
        -11    1    3    3    0    0  0.29721159428E+02  0.78044425672E+01  0.19146603473E+02  0.36205649643E+02  0.00000000000E+00 0.  1.
         11    1    3    3    0    0 -0.14372717883E+02 -0.79270489772E+02 -0.10055560783E+02  0.81188052512E+02  0.00000000000E+00 0. -1.
        -13    1    4    4    0    0 -0.25146384008E+02  0.52726578579E+02 -0.12767298932E+03  0.14040236792E+03  0.00000000000E+00 0.  1.
         13    1    4    4    0    0  0.37699388557E+02 -0.36441676266E+01 -0.89690107943E+02  0.97359330924E+02  0.00000000000E+00 0. -1.
         21    1    1    2  502  501 -0.27901446094E+02  0.22383636252E+02  0.11730934550E+03  0.12264175637E+03  0.00000000000E+00 0.  1.
<scales pt_clust_5="13000.00000" pt_clust_6="13000.00000" pt_clust_7="13000.00000" pt_clust_8="13000.00000" pt_clust_9="35.77035"></scales>
<clustering>
<clus scale="   35.770">  1  9  2 -1</clus>
<clus scale="   81.959">  7  8 -1 -1</clus>
<clus scale="   91.409">  5  6 -1 -1</clus>
<clus scale="   97.552">  2  7  1 -1</clus>
<clus scale="   97.552">  2  5  1 -1</clus>
</clustering>
</event>
<event>
 9    1  0.1612788E-005  0.2038798E+03  0.7546771E-02  0.1146579E+00
          3   -1    0    0  502    0  0.00000000000E+00  0.00000000000E+00  0.60125868262E+03  0.60125868262E+03  0.00000000000E+00 0. -1.
         -3   -1    0    0    0  501 -0.00000000000E+00 -0.00000000000E+00 -0.12812098819E+03  0.12812098819E+03  0.00000000000E+00 0.  1.
         23    2    1    2    0    0  0.11703197472E+03  0.14529270720E+03  0.13872694989E+03  0.25035740192E+03  0.92882765864E+02 0.  0.
         23    2    1    2    0    0 -0.12675816857E+03 -0.12713146624E+03  0.37930051755E+03  0.42963075909E+03  0.92106805040E+02 0.  0.
        -11    1    3    3    0    0  0.20314316270E+02  0.98545539015E+02  0.74527556086E+02  0.12521282411E+03  0.00000000000E+00 0.  1.
         11    1    3    3    0    0  0.96717658449E+02  0.46747168190E+02  0.64199393807E+02  0.12514457781E+03  0.00000000000E+00 0. -1.
        -13    1    4    4    0    0 -0.28800955592E+02 -0.17053133166E+02  0.17241471451E+03  0.17563353374E+03  0.00000000000E+00 0. -1.
         13    1    4    4    0    0 -0.97957212977E+02 -0.11007833308E+03  0.20688580304E+03  0.25399722535E+03  0.00000000000E+00 0.  1.
         21    1    1    2  502  501  0.97261938498E+01 -0.18161240963E+02 -0.44889773012E+02  0.49391509809E+02  0.00000000000E+00 0.  1.
<scales pt_clust_5="13000.00000" pt_clust_6="13000.00000" pt_clust_7="13000.00000" pt_clust_8="13000.00000" pt_clust_9="20.60169"></scales>
<clustering>
<clus scale="   20.602">  2  9  1 -1</clus>
<clus scale="   92.107">  7  8 -1 -1</clus>
<clus scale="   92.883">  5  6 -1 -1</clus>
<clus scale="  203.527">  1  7  2 -1</clus>
<clus scale="  203.527">  1  5  2 -1</clus>
</clustering>
</event>
<event>
 9    1  0.1612788E-005  0.1019712E+03  0.7546771E-02  0.1276478E+00
          1   -1    0    0  502    0  0.00000000000E+00  0.00000000000E+00  0.19243063945E+03  0.19243063945E+03  0.00000000000E+00 0. -1.
         -1   -1    0    0    0  501 -0.00000000000E+00 -0.00000000000E+00 -0.87673535465E+02  0.87673535465E+02  0.00000000000E+00 0.  1.
         23    2    1    2    0    0 -0.29318100137E+02 -0.10165085721E+02  0.15103834626E+02  0.96333327387E+02  0.89939447305E+02 0.  0.
         23    2    1    2    0    0  0.41843623836E+02  0.38409408682E+02  0.10451145633E+03  0.14948679520E+03  0.90539968546E+02 0.  0.
        -11    1    3    3    0    0 -0.51004595884E+02 -0.31414266692E+02 -0.46954113580E+01  0.60086369843E+02  0.00000000000E+00 0. -1.
         11    1    3    3    0    0  0.21686495746E+02  0.21249180971E+02  0.19799245984E+02  0.36246957544E+02  0.00000000000E+00 0.  1.
        -13    1    4    4    0    0  0.40089059460E+02 -0.22348032182E+02  0.40450336463E+02  0.61178402650E+02  0.00000000000E+00 0.  1.
         13    1    4    4    0    0  0.17545643762E+01  0.60757440864E+02  0.64061119869E+02  0.88308392553E+02  0.00000000000E+00 0. -1.
         21    1    1    2  502  501 -0.12525523699E+02 -0.28244322961E+02 -0.14858186975E+02  0.34284052322E+02  0.00000000000E+00 0. -1.
<scales pt_clust_5="13000.00000" pt_clust_6="13000.00000" pt_clust_7="13000.00000" pt_clust_8="13000.00000" pt_clust_9="30.89710"></scales>
<clustering>
<clus scale="   30.897">  2  9  1 -1</clus>
<clus scale="   89.939">  5  6 -1 -1</clus>
<clus scale="   90.540">  7  8 -1 -1</clus>
<clus scale="  101.438">  2  5  1 -1</clus>
<clus scale="  101.971">  1  5  2 -1</clus>
</clustering>
</event>
<event>
 9    1  0.1612788E-005  0.9649209E+02  0.7546771E-02  0.1292704E+00
          2   -1    0    0  502    0  0.00000000000E+00  0.00000000000E+00  0.47076022968E+03  0.47076022968E+03  0.00000000000E+00 0. -1.
         -2   -1    0    0    0  501 -0.00000000000E+00 -0.00000000000E+00 -0.28426996154E+02  0.28426996154E+02  0.00000000000E+00 0.  1.
         23    2    1    2    0    0 -0.15342505600E+02  0.25104670577E+02  0.16469762915E+03  0.18702261380E+03  0.83585357939E+02 0.  0.
         23    2    1    2    0    0  0.28304998045E+02 -0.93518565822E+01  0.27495801639E+03  0.29158921807E+03  0.92378196466E+02 0.  0.
        -11    1    3    3    0    0 -0.40963708387E+02  0.31448141184E+02  0.60548976641E+02  0.79581339277E+02  0.00000000000E+00 0.  1.
         11    1    3    3    0    0  0.25621202787E+02 -0.63434706074E+01  0.10414865251E+03  0.10744127452E+03  0.00000000000E+00 0. -1.
        -13    1    4    4    0    0 -0.65891683402E+01 -0.45994982153E+02  0.13019447153E+03  0.13823731747E+03  0.00000000000E+00 0.  1.
         13    1    4    4    0    0  0.34894166385E+02  0.36643125571E+02  0.14476354486E+03  0.15335190061E+03  0.00000000000E+00 0. -1.
         21    1    1    2  502  501 -0.12962492444E+02 -0.15752813995E+02  0.26775879800E+01  0.20575393958E+02  0.00000000000E+00 0. -1.
<scales pt_clust_5="13000.00000" pt_clust_6="13000.00000" pt_clust_7="13000.00000" pt_clust_8="13000.00000" pt_clust_9="20.40043"></scales>
<clustering>
<clus scale="   20.400">  2  9  1 -1</clus>
<clus scale="   83.585">  5  6 -1 -1</clus>
<clus scale="   88.111">  2  5  1 -1</clus>
<clus scale="   92.378">  7  8 -1 -1</clus>
<clus scale="   96.492">  1  5  2 -1</clus>
</clustering>
</event>
<event>
 9    1  0.1612788E-005  0.9961418E+02  0.7546771E-02  0.1281518E+00
          3   -1    0    0  502    0  0.00000000000E+00  0.00000000000E+00  0.24277348495E+03  0.24277348495E+03  0.00000000000E+00 0. -1.
         -3   -1    0    0    0  501 -0.00000000000E+00 -0.00000000000E+00 -0.95939738760E+02  0.95939738760E+02  0.00000000000E+00 0.  1.
         23    2    1    2    0    0  0.64143377596E+01 -0.63252064896E+02  0.12421937321E+02  0.11244622436E+03  0.91912357184E+02 0.  0.
         23    2    1    2    0    0 -0.31226052218E+02  0.14449677953E+02  0.13979838541E+03  0.17125509744E+03  0.92740823298E+02 0.  0.
        -11    1    4    4    0    0 -0.46198066359E+02  0.43068437983E+02  0.69617272819E+02  0.93998491267E+02  0.00000000000E+00 0.  1.
         11    1    4    4    0    0  0.14972014141E+02 -0.28618760030E+02  0.70181112587E+02  0.77256606171E+02  0.00000000000E+00 0. -1.
        -13    1    3    3    0    0 -0.28441759592E+02  0.85522436668E+01 -0.65313936653E+01  0.30409433793E+02  0.00000000000E+00 0.  1.
         13    1    3    3    0    0  0.34856097351E+02 -0.71804308563E+02  0.18953330986E+02  0.82036790565E+02  0.00000000000E+00 0. -1.
         21    1    1    2  502  501  0.24811714459E+02  0.48802386943E+02 -0.53865765352E+01  0.55011901917E+02  0.00000000000E+00 0.  1.
<scales pt_clust_5="13000.00000" pt_clust_6="13000.00000" pt_clust_7="13000.00000" pt_clust_8="13000.00000" pt_clust_9="54.74755"></scales>
<clustering>
<clus scale="   54.748">  2  9  1 -1</clus>
<clus scale="   91.912">  7  8 -1 -1</clus>
<clus scale="   92.741">  5  6 -1 -1</clus>
<clus scale="   98.843">  2  7  1 -1</clus>
<clus scale="   99.614">  1  5  2 -1</clus>
</clustering>
</event>
<event>
 9    1  0.1612788E-005  0.2549091E+03  0.7546771E-02  0.1110354E+00
         -2   -1    0    0    0  501 -0.00000000000E+00  0.00000000000E+00  0.66062044491E+03  0.66062044491E+03  0.00000000000E+00 0.  1.
          2   -1    0    0  502    0  0.00000000000E+00 -0.00000000000E+00 -0.54588743256E+03  0.54588743256E+03  0.00000000000E+00 0. -1.
         23    2    1    2    0    0 -0.10170682988E+03 -0.19564086096E+03  0.55179210297E+03  0.60140897420E+03  0.92728655934E+02 0.  0.
         23    2    1    2    0    0  0.11969815862E+03  0.20614671093E+03 -0.48768632069E+03  0.55035242194E+03  0.90695784589E+02 0.  0.
        -13    1    4    4    0    0  0.96676847091E+02  0.17405240167E+03 -0.31075003563E+03  0.36906129021E+03  0.00000000000E+00 0. -1.
         13    1    4    4    0    0  0.23021311528E+02  0.32094309260E+02 -0.17693628506E+03  0.18129113173E+03  0.00000000000E+00 0.  1.
        -13    1    3    3    0    0  0.30484135077E+00 -0.96291187265E+02  0.24218981543E+03  0.26062999131E+03  0.00000000000E+00 0.  1.
         13    1    3    3    0    0 -0.10201167123E+03 -0.99349673694E+02  0.30960228754E+03  0.34077898289E+03  0.00000000000E+00 0. -1.
         21    1    1    2  502  501 -0.17991328736E+02 -0.10505849969E+02  0.50627230071E+02  0.54746481329E+02  0.00000000000E+00 0.  1.
<scales pt_clust_5="13000.00000" pt_clust_6="13000.00000" pt_clust_7="13000.00000" pt_clust_8="13000.00000" pt_clust_9="20.83413"></scales>
<clustering>
<clus scale="   20.834">  1  9  2 -1</clus>
<clus scale="   90.696">  5  6 -1 -1</clus>
<clus scale="   92.729">  7  8 -1 -1</clus>
<clus scale="  254.177">  2  5  1 -1</clus>
<clus scale="  254.177">  2  5  1 -1</clus>
</clustering>
</event>
<event>
 9    1  0.1612788E-005  0.1010644E+03  0.7546771E-02  0.1279027E+00
          2   -1    0    0  502    0  0.00000000000E+00  0.00000000000E+00  0.28775739921E+03  0.28775739921E+03  0.00000000000E+00 0. -1.
         -2   -1    0    0    0  501 -0.00000000000E+00 -0.00000000000E+00 -0.10085274801E+03  0.10085274801E+03  0.00000000000E+00 0.  1.
         23    2    1    2    0    0 -0.53381151037E+02  0.19135371910E+01 -0.29408117797E+02  0.11118415522E+03  0.92972415629E+02 0.  0.
         23    2    1    2    0    0  0.35719335265E+02 -0.12832643574E+02  0.23155419579E+03  0.25166812503E+03  0.90988746084E+02 0.  0.
        -11    1    4    4    0    0 -0.29271030543E+01 -0.38856141677E+02  0.45672233014E+02  0.60035993760E+02  0.00000000000E+00 0.  1.
         11    1    4    4    0    0  0.38646438319E+02  0.26023498103E+02  0.18588196278E+03  0.19163213127E+03  0.00000000000E+00 0. -1.
        -13    1    3    3    0    0 -0.27272545667E+02  0.47450809488E+02 -0.14563650516E+02  0.56634538795E+02  0.00000000000E+00 0.  1.
         13    1    3    3    0    0 -0.26108605370E+02 -0.45537272297E+02 -0.14844467282E+02  0.54549616420E+02  0.00000000000E+00 0. -1.
         21    1    1    2  502  501  0.17661815772E+02  0.10919106383E+02 -0.15241426794E+02  0.25757866979E+02  0.00000000000E+00 0.  1.
<scales pt_clust_5="13000.00000" pt_clust_6="13000.00000" pt_clust_7="13000.00000" pt_clust_8="13000.00000" pt_clust_9="20.76455"></scales>
<clustering>
<clus scale="   20.765">  2  9  1 -1</clus>
<clus scale="   90.989">  5  6 -1 -1</clus>
<clus scale="   92.972">  7  8 -1 -1</clus>
<clus scale="   99.243">  1  5  2 -1</clus>
<clus scale="   99.243">  1  5  2 -1</clus>
</clustering>
</event>
<event>
 9    1  0.1612788E-005  0.1426327E+03  0.7546771E-02  0.1210904E+00
          2   -1    0    0  502    0  0.00000000000E+00  0.00000000000E+00  0.70378933232E+02  0.70378933232E+02  0.00000000000E+00 0. -1.
         -2   -1    0    0    0  501 -0.00000000000E+00 -0.00000000000E+00 -0.46296629348E+03  0.46296629348E+03  0.00000000000E+00 0.  1.
         23    2    1    2    0    0 -0.83112019574E+02  0.38131184555E+02 -0.30720281983E+03  0.33318726993E+03  0.90986753441E+02 0.  0.
         23    2    1    2    0    0  0.10650083272E+03 -0.28780013550E+02 -0.45660011786E+02  0.15312053386E+03  0.95866285335E+02 0.  0.
        -11    1    3    3    0    0 -0.90488742313E+02  0.34948633851E+00 -0.21339994487E+03  0.23179273305E+03  0.00000000000E+00 0. -1.
         11    1    3    3    0    0  0.73767227390E+01  0.37781698216E+02 -0.93802874955E+02  0.10139453688E+03  0.00000000000E+00 0.  1.
        -13    1    4    4    0    0  0.78492169306E+02 -0.39171198523E+02  0.11647985515E+02  0.88493383948E+02  0.00000000000E+00 0. -1.
         13    1    4    4    0    0  0.28008663415E+02  0.10391184973E+02 -0.57307997301E+02  0.64627149915E+02  0.00000000000E+00 0.  1.
         21    1    1    2  502  501 -0.23388813147E+02 -0.93511710047E+01 -0.39724528639E+02  0.47037422922E+02  0.00000000000E+00 0. -1.
<scales pt_clust_5="13000.00000" pt_clust_6="13000.00000" pt_clust_7="13000.00000" pt_clust_8="13000.00000" pt_clust_9="25.18891"></scales>
<clustering>
<clus scale="   25.189">  2  9  1 -1</clus>
<clus scale="   90.987">  5  6 -1 -1</clus>
<clus scale="   95.866">  7  8 -1 -1</clus>
<clus scale="  139.400">  2  5  1 -1</clus>
<clus scale="  142.633">  1  5  2 -1</clus>
</clustering>
</event>
<event>
 9    1  0.1612788E-005  0.1045506E+03  0.7546771E-02  0.1271500E+00
          2   -1    0    0  502    0  0.00000000000E+00  0.00000000000E+00  0.29090675461E+03  0.29090675461E+03  0.00000000000E+00 0. -1.
         -2   -1    0    0    0  501 -0.00000000000E+00 -0.00000000000E+00 -0.77970801450E+02  0.77970801450E+02  0.00000000000E+00 0.  1.
         23    2    1    2    0    0 -0.83821271316E+00  0.31034781202E+02  0.36901861990E+02  0.10449919728E+03  0.92706389039E+02 0.  0.
         23    2    1    2    0    0 -0.60822849131E+00 -0.55121444654E+02  0.20224057136E+03  0.22875478299E+03  0.91590165594E+02 0.  0.
        -11    1    4    4    0    0  0.44900188003E+02 -0.20500036165E+02  0.84393331686E+02  0.97767646992E+02  0.00000000000E+00 0.  1.
         11    1    4    4    0    0 -0.45508416494E+02 -0.34621408490E+02  0.11784723967E+03  0.13098713600E+03  0.00000000000E+00 0. -1.
        -11    1    3    3    0    0  0.24241644270E+01  0.61751630753E+02  0.82137790938E+01  0.62342655067E+02  0.00000000000E+00 0.  1.
         11    1    3    3    0    0 -0.32623771401E+01 -0.30716849551E+02  0.28688082896E+02  0.42156542211E+02  0.00000000000E+00 0. -1.
         21    1    1    2  502  501  0.14464412045E+01  0.24086663452E+02 -0.26206480189E+02  0.35623575793E+02  0.00000000000E+00 0.  1.
<scales pt_clust_5="13000.00000" pt_clust_6="13000.00000" pt_clust_7="13000.00000" pt_clust_8="13000.00000" pt_clust_9="24.13005"></scales>
<clustering>
<clus scale="   24.130">  2  9  1 -1</clus>
<clus scale="   91.590">  5  6 -1 -1</clus>
<clus scale="   92.706">  7  8 -1 -1</clus>
<clus scale="  103.562">  1  5  2 -1</clus>
<clus scale="  103.562">  1  5  2 -1</clus>
</clustering>
</event>
<event>
 9    1  0.1612788E-005  0.2027398E+03  0.7546771E-02  0.1147470E+00
         -1   -1    0    0    0  501 -0.00000000000E+00  0.00000000000E+00  0.29153611748E+03  0.29153611748E+03  0.00000000000E+00 0.  1.
          1   -1    0    0  502    0  0.00000000000E+00 -0.00000000000E+00 -0.95525241096E+03  0.95525241096E+03  0.00000000000E+00 0. -1.
         23    2    1    2    0    0 -0.12321459382E+03 -0.28331499185E+01  0.68946731669E+02  0.16865384554E+03  0.92198725263E+02 0.  0.
         23    2    1    2    0    0  0.14932328547E+03 -0.11650794699E+03 -0.86954200505E+03  0.89466856524E+03  0.91961936647E+02 0.  0.
        -13    1    3    3    0    0 -0.17789692371E+02  0.33885519312E+02  0.35279337436E+02  0.52051255735E+02  0.00000000000E+00 0.  1.
         13    1    3    3    0    0 -0.10542490145E+03 -0.36718669230E+02  0.33667394232E+02  0.11660258981E+03  0.00000000000E+00 0. -1.
        -13    1    4    4    0    0  0.30668474369E+02 -0.16942596415E+02 -0.52793370299E+02  0.63362029962E+02  0.00000000000E+00 0.  1.
         13    1    4    4    0    0  0.11865481110E+03 -0.99565350577E+02 -0.81674863475E+03  0.83130653528E+03  0.00000000000E+00 0. -1.
         21    1    1    2  502  501 -0.26108691647E+02  0.11934109691E+03  0.13687897990E+03  0.18346611766E+03  0.00000000000E+00 0.  1.
<scales pt_clust_5="13000.00000" pt_clust_6="13000.00000" pt_clust_7="13000.00000" pt_clust_8="13000.00000" pt_clust_9="122.16367"></scales>
<clustering>
<clus scale="   91.962">  7  8 -1 -1</clus>
<clus scale="   92.199">  5  6 -1 -1</clus>
<clus scale="  122.164">  1  9  2 -1</clus>
<clus scale="  202.632">  2  7  1 -1</clus>
<clus scale="  202.632">  2  5  1 -1</clus>
</clustering>
</event>
<event>
 9    1  0.1612788E-005  0.9917720E+02  0.7546771E-02  0.1282675E+00
          1   -1    0    0  502    0  0.00000000000E+00  0.00000000000E+00  0.47601575539E+02  0.47601575539E+02  0.00000000000E+00 0. -1.
         -1   -1    0    0    0  501 -0.00000000000E+00 -0.00000000000E+00 -0.29194943723E+03  0.29194943723E+03  0.00000000000E+00 0.  1.
         23    2    1    2    0    0  0.49214417948E+02  0.17408761489E+02 -0.94631316544E+02  0.14021452430E+03  0.89330301936E+02 0.  0.
         23    2    1    2    0    0 -0.28448801806E+02 -0.10327039865E+02 -0.75029851598E+02  0.12149393077E+03  0.90638372157E+02 0.  0.
        -11    1    4    4    0    0 -0.59703993662E+02  0.64451621661E+01 -0.45551631830E+02  0.75372794408E+02  0.00000000000E+00 0. -1.
         11    1    4    4    0    0  0.31255191856E+02 -0.16772202031E+02 -0.29478219768E+02  0.46121136365E+02  0.00000000000E+00 0.  1.
        -13    1    3    3    0    0  0.17668684736E+02  0.14162939329E+02  0.14286126257E+02  0.26774328641E+02  0.00000000000E+00 0. -1.
         13    1    3    3    0    0  0.31545733212E+02  0.32458221595E+01 -0.10891744280E+03  0.11344019566E+03  0.00000000000E+00 0.  1.
         21    1    1    2  502  501 -0.20765616142E+02 -0.70817216237E+01 -0.74686693554E+02  0.77842557698E+02  0.00000000000E+00 0.  1.
<scales pt_clust_5="13000.00000" pt_clust_6="13000.00000" pt_clust_7="13000.00000" pt_clust_8="13000.00000" pt_clust_9="21.93995"></scales>
<clustering>
<clus scale="   21.940">  2  9  1 -1</clus>
<clus scale="   89.330">  7  8 -1 -1</clus>
<clus scale="   90.638">  5  6 -1 -1</clus>
<clus scale="   97.983">  2  7  1 -1</clus>
<clus scale="   99.177">  1  5  2 -1</clus>
</clustering>
</event>
<event>
 9    1  0.1612788E-005  0.1203352E+03  0.7546771E-02  0.1243331E+00
          1   -1    0    0  502    0  0.00000000000E+00  0.00000000000E+00  0.50045537553E+02  0.50045537553E+02  0.00000000000E+00 0. -1.
         -1   -1    0    0    0  501 -0.00000000000E+00 -0.00000000000E+00 -0.54835393551E+03  0.54835393551E+03  0.00000000000E+00 0.  1.
         23    2    1    2    0    0  0.94240656888E+02  0.37895774636E+02 -0.18025593586E+03  0.22655998717E+03  0.92302948107E+02 0.  0.
         23    2    1    2    0    0 -0.53305311323E+02 -0.34115616290E+02 -0.95667014356E+02  0.14568626464E+03  0.89816360312E+02 0.  0.
        -11    1    4    4    0    0 -0.46638678301E+02 -0.63941724519E+02 -0.72566710381E+02  0.10737615147E+03  0.00000000000E+00 0.  1.
         11    1    4    4    0    0 -0.66666330222E+01  0.29826108229E+02 -0.23100303976E+02  0.38310113178E+02  0.00000000000E+00 0. -1.
        -13    1    3    3    0    0  0.57884898297E+02  0.56948204029E+02 -0.16285817504E+03  0.18197951690E+03  0.00000000000E+00 0. -1.
         13    1    3    3    0    0  0.36355758591E+02 -0.19052429393E+02 -0.17397760822E+02  0.44580470277E+02  0.00000000000E+00 0.  1.
         21    1    1    2  502  501 -0.40935345565E+02 -0.37801583463E+01 -0.22238544774E+03  0.22615322125E+03  0.00000000000E+00 0.  1.
<scales pt_clust_5="13000.00000" pt_clust_6="13000.00000" pt_clust_7="13000.00000" pt_clust_8="13000.00000" pt_clust_9="41.10951"></scales>
<clustering>
<clus scale="   41.110">  2  9  1 -1</clus>
<clus scale="   89.816">  5  6 -1 -1</clus>
<clus scale="   92.303">  7  8 -1 -1</clus>
<clus scale="  118.439">  1  5  2 -1</clus>
<clus scale="  118.439">  1  5  2 -1</clus>
</clustering>
</event>
<event>
 9    1  0.1612788E-005  0.9198566E+02  0.7546771E-02  0.1299665E+00
         -2   -1    0    0    0  501 -0.00000000000E+00  0.00000000000E+00  0.50135558165E+03  0.50135558165E+03  0.00000000000E+00 0. -1.
          2   -1    0    0  502    0  0.00000000000E+00 -0.00000000000E+00 -0.34988413043E+02  0.34988413043E+02  0.00000000000E+00 0.  1.
         23    2    1    2    0    0  0.38255224792E+01  0.10892190072E+02  0.25077351720E+03  0.26721393349E+03  0.91556839700E+02 0.  0.
         23    2    1    2    0    0 -0.76236616465E+01  0.10751274606E+02  0.51599259060E+02  0.10367001725E+03  0.88945369851E+02 0.  0.
        -13    1    3    3    0    0  0.22181193444E+02 -0.30773016203E+02  0.17285649434E+03  0.17696991695E+03  0.00000000000E+00 0.  1.
         13    1    3    3    0    0 -0.18355670965E+02  0.41665206274E+02  0.77917022860E+02  0.90244016543E+02  0.00000000000E+00 0. -1.
        -13    1    4    4    0    0 -0.32578206500E+02 -0.20235494920E+02  0.51087762257E+02  0.63880938048E+02  0.00000000000E+00 0. -1.
         13    1    4    4    0    0  0.24954544854E+02  0.30986769526E+02  0.51149680228E+00  0.39789079199E+02  0.00000000000E+00 0.  1.
         21    1    1    2  502  501  0.37981391672E+01 -0.21643464678E+02  0.16399439235E+03  0.16546004396E+03  0.00000000000E+00 0. -1.
<scales pt_clust_5="13000.00000" pt_clust_6="13000.00000" pt_clust_7="13000.00000" pt_clust_8="13000.00000" pt_clust_9="21.97420"></scales>
<clustering>
<clus scale="   21.974">  1  9  2 -1</clus>
<clus scale="   88.945">  7  8 -1 -1</clus>
<clus scale="   89.387">  2  7  1 -1</clus>
<clus scale="   91.557">  5  6 -1 -1</clus>
<clus scale="   89.387">  2  5  1 -1</clus>
</clustering>
</event>
<event>
 9    1  0.1612788E-005  0.9652040E+02  0.7546771E-02  0.1288785E+00
         -1   -1    0    0    0  501 -0.00000000000E+00  0.00000000000E+00  0.17336026880E+03  0.17336026880E+03  0.00000000000E+00 0.  1.
          1   -1    0    0  502    0  0.00000000000E+00 -0.00000000000E+00 -0.29782048803E+03  0.29782048803E+03  0.00000000000E+00 0. -1.
         23    2    1    2    0    0 -0.13467423885E+02  0.19922191812E+02  0.78621649163E+02  0.12220396717E+03  0.90411175425E+02 0.  0.
         23    2    1    2    0    0 -0.15403638960E+02 -0.25488456430E+02 -0.26404763942E+03  0.28129114267E+03  0.92285521930E+02 0.  0.
        -11    1    4    4    0    0 -0.11103729094E+02 -0.51212038191E+02 -0.24053388717E+03  0.24617578380E+03  0.00000000000E+00 0. -1.
         11    1    4    4    0    0 -0.42999098663E+01  0.25723581761E+02 -0.23513752254E+02  0.35115358869E+02  0.00000000000E+00 0.  1.
        -13    1    3    3    0    0  0.74793053513E+01  0.52966694471E+02  0.36758628274E+02  0.64904602951E+02  0.00000000000E+00 0.  1.
         13    1    3    3    0    0 -0.20946729236E+02 -0.33044502659E+02  0.41863020889E+02  0.57299364216E+02  0.00000000000E+00 0. -1.
         21    1    1    2  502  501  0.28871062845E+02  0.55662646177E+01  0.60965771032E+02  0.67685646994E+02  0.00000000000E+00 0.  1.
<scales pt_clust_5="13000.00000" pt_clust_6="13000.00000" pt_clust_7="13000.00000" pt_clust_8="13000.00000" pt_clust_9="29.40275"></scales>
<clustering>
<clus scale="   29.403">  1  9  2 -1</clus>
<clus scale="   90.411">  7  8 -1 -1</clus>
<clus scale="   92.286">  5  6 -1 -1</clus>
<clus scale="   94.730">  1  7  2 -1</clus>
<clus scale="   96.520">  2  5  1 -1</clus>
</clustering>
</event>
<event>
 9    1  0.1612788E-005  0.1158918E+03  0.7546771E-02  0.1257044E+00
         -2   -1    0    0    0  501 -0.00000000000E+00  0.00000000000E+00  0.54880525481E+02  0.54880525481E+02  0.00000000000E+00 0.  1.
          2   -1    0    0  502    0  0.00000000000E+00 -0.00000000000E+00 -0.28181569107E+03  0.28181569107E+03  0.00000000000E+00 0. -1.
         23    2    1    2    0    0 -0.15244874431E+02 -0.50172473632E+02 -0.99316641455E+02  0.14308696575E+03  0.88658903617E+02 0.  0.
         23    2    1    2    0    0 -0.13372688943E+02  0.45496067400E+02 -0.11041073014E+03  0.15989068199E+03  0.10547881256E+03 0.  0.
        -11    1    4    4    0    0 -0.42114067223E+02  0.19894043342E+02 -0.40180372967E+01  0.46749462481E+02  0.00000000000E+00 0.  1.
         11    1    4    4    0    0  0.28741378280E+02  0.25602024058E+02 -0.10639269285E+03  0.11314121951E+03  0.00000000000E+00 0. -1.
        -13    1    3    3    0    0 -0.47646172339E+02 -0.40256569818E+02 -0.38024817567E+02  0.73052281984E+02  0.00000000000E+00 0.  1.
         13    1    3    3    0    0  0.32401297908E+02 -0.99159038133E+01 -0.61291823888E+02  0.70034683765E+02  0.00000000000E+00 0. -1.
         21    1    1    2  502  501  0.28617563374E+02  0.46764062319E+01 -0.17207793994E+02  0.33718568814E+02  0.00000000000E+00 0. -1.
<scales pt_clust_5="13000.00000" pt_clust_6="13000.00000" pt_clust_7="13000.00000" pt_clust_8="13000.00000" pt_clust_9="28.99713"></scales>
<clustering>
<clus scale="   28.997">  1  9  2 -1</clus>
<clus scale="   88.659">  7  8 -1 -1</clus>
<clus scale="  100.824">  1  7  2 -1</clus>
<clus scale="  105.479">  5  6 -1 -1</clus>
<clus scale="  115.892">  2  5  1 -1</clus>
</clustering>
</event>
<event>
 9    1  0.1612788E-005  0.9522847E+02  0.7546771E-02  0.1291560E+00
         -3   -1    0    0    0  501 -0.00000000000E+00  0.00000000000E+00  0.11753379491E+03  0.11753379491E+03  0.00000000000E+00 0.  1.
          3   -1    0    0  502    0  0.00000000000E+00 -0.00000000000E+00 -0.16720117345E+03  0.16720117345E+03  0.00000000000E+00 0. -1.
         23    2    1    2    0    0  0.27873813468E+02 -0.92337084604E+00 -0.17827084104E+02  0.94944433791E+02  0.88987855853E+02 0.  0.
         23    2    1    2    0    0 -0.11323323330E+02  0.36817887762E+02 -0.80422423518E+02  0.12716020378E+03  0.90654159917E+02 0.  0.
        -11    1    3    3    0    0 -0.24238537743E+02 -0.32541268983E+01  0.19101460166E+02  0.31031626355E+02  0.00000000000E+00 0. -1.
         11    1    3    3    0    0  0.52112351211E+02  0.23307560523E+01 -0.36928544270E+02  0.63912807436E+02  0.00000000000E+00 0.  1.
        -13    1    4    4    0    0 -0.26213021419E+01  0.66940171793E+02 -0.58039147201E+02  0.88636338103E+02  0.00000000000E+00 0. -1.
         13    1    4    4    0    0 -0.87020211880E+01 -0.30122284030E+02 -0.22383276317E+02  0.38523865676E+02  0.00000000000E+00 0.  1.
         21    1    1    2  502  501 -0.16550490138E+02 -0.35894516916E+02  0.48582129078E+02  0.62630330785E+02  0.00000000000E+00 0. -1.
<scales pt_clust_5="13000.00000" pt_clust_6="13000.00000" pt_clust_7="13000.00000" pt_clust_8="13000.00000" pt_clust_9="39.52638"></scales>
<clustering>
<clus scale="   39.526">  1  9  2 -1</clus>
<clus scale="   88.988">  5  6 -1 -1</clus>
<clus scale="   90.654">  7  8 -1 -1</clus>
<clus scale="   93.644">  1  5  2 -1</clus>
<clus scale="   95.228">  2  5  1 -1</clus>
</clustering>
</event>
<event>
 9    1  0.1612788E-005  0.9570961E+02  0.7546771E-02  0.1290077E+00
         -2   -1    0    0    0  501 -0.00000000000E+00  0.00000000000E+00  0.24166036784E+03  0.24166036784E+03  0.00000000000E+00 0.  1.
          2   -1    0    0  502    0  0.00000000000E+00 -0.00000000000E+00 -0.20318157743E+03  0.20318157743E+03  0.00000000000E+00 0. -1.
         23    2    1    2    0    0 -0.83554507629E+01 -0.19429970561E+02 -0.64911954595E+02  0.11530819253E+03  0.92925131702E+02 0.  0.
         23    2    1    2    0    0 -0.37474161951E+02  0.14238959076E+02 -0.87494235069E+02  0.13315560829E+03  0.92022356415E+02 0.  0.
        -11    1    4    4    0    0 -0.33669005641E+02 -0.14471144874E+02 -0.96175700356E+02  0.10292123840E+03  0.00000000000E+00 0. -1.
         11    1    4    4    0    0 -0.38051563091E+01  0.28710103950E+02  0.86814652865E+01  0.30234369894E+02  0.00000000000E+00 0.  1.
        -11    1    3    3    0    0 -0.26322882509E+02  0.29414531646E+02 -0.44289906639E+02  0.59327098746E+02  0.00000000000E+00 0. -1.
         11    1    3    3    0    0  0.17967431746E+02 -0.48844502207E+02 -0.20622047956E+02  0.55981093784E+02  0.00000000000E+00 0.  1.
         21    1    1    2  502  501  0.45829612713E+02  0.51910114851E+01  0.19088498007E+03  0.19637814445E+03  0.00000000000E+00 0.  1.
<scales pt_clust_5="13000.00000" pt_clust_6="13000.00000" pt_clust_7="13000.00000" pt_clust_8="13000.00000" pt_clust_9="46.12266"></scales>
<clustering>
<clus scale="   46.123">  1  9  2 -1</clus>
<clus scale="   92.022">  5  6 -1 -1</clus>
<clus scale="   92.925">  7  8 -1 -1</clus>
<clus scale="   94.833">  2  5  1 -1</clus>
<clus scale="   94.833">  2  5  1 -1</clus>
</clustering>
</event>
<event>
 9    1  0.1612788E-005  0.1288547E+03  0.7546771E-02  0.1230010E+00
          2   -1    0    0  502    0  0.00000000000E+00  0.00000000000E+00  0.27493226842E+03  0.27493226842E+03  0.00000000000E+00 0. -1.
         -2   -1    0    0    0  501 -0.00000000000E+00 -0.00000000000E+00 -0.86756551254E+02  0.86756551254E+02  0.00000000000E+00 0.  1.
         23    2    1    2    0    0  0.65422885459E+02 -0.77228020485E+02  0.10539889883E+03  0.17199702781E+03  0.90717851666E+02 0.  0.
         23    2    1    2    0    0 -0.57922625697E+02  0.51697523339E+02  0.10036262504E+03  0.15779632544E+03  0.93804900356E+02 0.  0.
        -11    1    3    3    0    0  0.13492984651E+02  0.17490893217E+02  0.15355831473E+01  0.22143847812E+02  0.00000000000E+00 0. -1.
         11    1    3    3    0    0  0.51929900808E+02 -0.94718913702E+02  0.10386331569E+03  0.14985318000E+03  0.00000000000E+00 0.  1.
        -13    1    4    4    0    0  0.25750039228E+02  0.74182934653E+01  0.17667564934E+02  0.32097327753E+02  0.00000000000E+00 0.  1.
         13    1    4    4    0    0 -0.83672664925E+02  0.44279229873E+02  0.82695060105E+02  0.12569899769E+03  0.00000000000E+00 0. -1.
         21    1    1    2  502  501 -0.75002597615E+01  0.25530497146E+02 -0.17585806704E+02  0.31895466425E+02  0.00000000000E+00 0.  1.
<scales pt_clust_5="13000.00000" pt_clust_6="13000.00000" pt_clust_7="13000.00000" pt_clust_8="13000.00000" pt_clust_9="26.60940"></scales>
<clustering>
<clus scale="   26.609">  2  9  1 -1</clus>
<clus scale="   90.718">  5  6 -1 -1</clus>
<clus scale="   93.805">  7  8 -1 -1</clus>
<clus scale="  126.625">  2  5  1 -1</clus>
<clus scale="  128.855">  1  5  2 -1</clus>
</clustering>
</event>
<event>
 9    1  0.1612788E-005  0.1193800E+03  0.7546771E-02  0.1246899E+00
         -2   -1    0    0    0  501 -0.00000000000E+00  0.00000000000E+00  0.97901870604E+02  0.97901870604E+02  0.00000000000E+00 0.  1.
          2   -1    0    0  502    0  0.00000000000E+00 -0.00000000000E+00 -0.29844994690E+03  0.29844994690E+03  0.00000000000E+00 0. -1.
         23    2    1    2    0    0  0.51528145631E+01  0.51028806196E+02 -0.29526833078E+02  0.10858774678E+03  0.91043804398E+02 0.  0.
         23    2    1    2    0    0  0.24892077790E+01 -0.73441813286E+02 -0.20921256521E+03  0.24282722095E+03  0.98971034655E+02 0.  0.
        -13    1    4    4    0    0  0.93889176913E+01  0.22289390561E+02 -0.67221166368E+02  0.71439862226E+02  0.00000000000E+00 0.  1.
         13    1    4    4    0    0 -0.68997099122E+01 -0.95731203847E+02 -0.14199139884E+03  0.17138735873E+03  0.00000000000E+00 0. -1.
        -13    1    3    3    0    0 -0.82295064057E+01  0.72064677998E+02 -0.36058778004E+01  0.72622620067E+02  0.00000000000E+00 0.  1.
         13    1    3    3    0    0  0.13382320969E+02 -0.21035871802E+02 -0.25920955277E+02  0.35965126713E+02  0.00000000000E+00 0. -1.
         21    1    1    2  502  501 -0.76420223421E+01  0.22413007090E+02  0.38191321989E+02  0.44936849773E+02  0.00000000000E+00 0.  1.
<scales pt_clust_5="13000.00000" pt_clust_6="13000.00000" pt_clust_7="13000.00000" pt_clust_8="13000.00000" pt_clust_9="23.68002"></scales>
<clustering>
<clus scale="   23.680">  1  9  2 -1</clus>
<clus scale="   91.044">  7  8 -1 -1</clus>
<clus scale="   98.971">  5  6 -1 -1</clus>
<clus scale="  112.895">  1  7  2 -1</clus>
<clus scale="  119.380">  2  5  1 -1</clus>
</clustering>
</event>
<event>
 9    1  0.1612788E-005  0.1196074E+03  0.7546771E-02  0.1243944E+00
         -1   -1    0    0    0  501 -0.00000000000E+00  0.00000000000E+00  0.85325094430E+02  0.85325094430E+02  0.00000000000E+00 0.  1.
          1   -1    0    0  502    0  0.00000000000E+00 -0.00000000000E+00 -0.58741447626E+03  0.58741447626E+03  0.00000000000E+00 0. -1.
         23    2    1    2    0    0 -0.43414713762E+02  0.39654078991E+02 -0.11197516230E+03  0.15660960658E+03  0.92362592795E+02 0.  0.
         23    2    1    2    0    0  0.56886369915E+02 -0.58390628587E+02 -0.44219865814E+03  0.45916214376E+03  0.92976859575E+02 0.  0.
        -11    1    4    4    0    0  0.10610341172E+01 -0.66008729118E+02 -0.27123735936E+03  0.27915584039E+03  0.00000000000E+00 0.  1.
         11    1    4    4    0    0  0.55825335798E+02  0.76181005306E+01 -0.17096129877E+03  0.18000630337E+03  0.00000000000E+00 0. -1.
        -13    1    3    3    0    0 -0.51926606469E+02  0.20636256103E+02 -0.15608201992E+02  0.58015890020E+02  0.00000000000E+00 0.  1.
         13    1    3    3    0    0  0.85118927071E+01  0.19017822888E+02 -0.96366960313E+02  0.98593716558E+02  0.00000000000E+00 0. -1.
         21    1    1    2  502  501 -0.13471656153E+02  0.18736549596E+02  0.52084438610E+02  0.56967820351E+02  0.00000000000E+00 0.  1.
<scales pt_clust_5="13000.00000" pt_clust_6="13000.00000" pt_clust_7="13000.00000" pt_clust_8="13000.00000" pt_clust_9="23.07691"></scales>
<clustering>
<clus scale="   23.077">  1  9  2 -1</clus>
<clus scale="   92.363">  7  8 -1 -1</clus>
<clus scale="   92.977">  5  6 -1 -1</clus>
<clus scale="  119.131">  1  7  2 -1</clus>
<clus scale="  119.607">  2  5  1 -1</clus>
</clustering>
</event>
<event>
 9    1  0.1612788E-005  0.1742678E+03  0.7546771E-02  0.1174665E+00
          2   -1    0    0  502    0  0.00000000000E+00  0.00000000000E+00  0.44252726854E+03  0.44252726854E+03  0.00000000000E+00 0. -1.
         -2   -1    0    0    0  501 -0.00000000000E+00 -0.00000000000E+00 -0.16933009546E+03  0.16933009546E+03  0.00000000000E+00 0.  1.
         23    2    1    2    0    0 -0.38712640586E+02 -0.12657574881E+03 -0.20600388865E+02  0.16259887731E+03  0.92162520335E+02 0.  0.
         23    2    1    2    0    0  0.58402563963E+02  0.13254387379E+03  0.34864340257E+03  0.39068052297E+03  0.10050030304E+03 0.  0.
        -11    1    3    3    0    0 -0.45531687195E+02 -0.27805124767E+02 -0.33135086628E+02  0.62802814173E+02  0.00000000000E+00 0.  1.
         11    1    3    3    0    0  0.68190466090E+01 -0.98770624043E+02  0.12534697763E+02  0.99796063142E+02  0.00000000000E+00 0. -1.
        -13    1    4    4    0    0  0.26621449908E+02  0.14093098849E+03  0.28356159189E+03  0.31776944709E+03  0.00000000000E+00 0. -1.
         13    1    4    4    0    0  0.31781114055E+02 -0.83871146928E+01  0.65081810682E+02  0.72911075874E+02  0.00000000000E+00 0.  1.
         21    1    1    2  502  501 -0.19689923377E+02 -0.59681249830E+01 -0.54845840631E+02  0.58577963715E+02  0.00000000000E+00 0.  1.
<scales pt_clust_5="13000.00000" pt_clust_6="13000.00000" pt_clust_7="13000.00000" pt_clust_8="13000.00000" pt_clust_9="20.57454"></scales>
<clustering>
<clus scale="   20.575">  2  9  1 -1</clus>
<clus scale="   92.163">  5  6 -1 -1</clus>
<clus scale="  100.500">  7  8 -1 -1</clus>
<clus scale="  169.596">  2  5  1 -1</clus>
<clus scale="  174.268">  1  5  2 -1</clus>
</clustering>
</event>
<event>
 9    1  0.1612788E-005  0.9517648E+02  0.7546771E-02  0.1291719E+00
         -1   -1    0    0    0  501 -0.00000000000E+00  0.00000000000E+00  0.55230431355E+02  0.55230431355E+02  0.00000000000E+00 0.  1.
          1   -1    0    0  502    0  0.00000000000E+00 -0.00000000000E+00 -0.23578225844E+03  0.23578225844E+03  0.00000000000E+00 0. -1.
         23    2    1    2    0    0 -0.34437579125E+02 -0.20688227390E+02 -0.49263383879E+02  0.11081751799E+03  0.90772747525E+02 0.  0.
         23    2    1    2    0    0  0.13667641297E+02  0.26705527326E+00 -0.10845251324E+03  0.14318308884E+03  0.92480125243E+02 0.  0.
        -11    1    3    3    0    0 -0.24583971793E+02 -0.42380903797E+02 -0.65637846113E+02  0.81907505871E+02  0.00000000000E+00 0. -1.
         11    1    3    3    0    0 -0.98536073322E+01  0.21692676407E+02  0.16374462234E+02  0.28910012117E+02  0.00000000000E+00 0.  1.
        -13    1    4    4    0    0 -0.38649487635E+02 -0.51577473028E+00 -0.62807862086E+02  0.73748738687E+02  0.00000000000E+00 0. -1.
         13    1    4    4    0    0  0.52317128932E+02  0.78283000354E+00 -0.45644651155E+02  0.69434350156E+02  0.00000000000E+00 0.  1.
         21    1    1    2  502  501  0.20769937828E+02  0.20421172117E+02 -0.22835929963E+02  0.37012082963E+02  0.00000000000E+00 0. -1.
<scales pt_clust_5="13000.00000" pt_clust_6="13000.00000" pt_clust_7="13000.00000" pt_clust_8="13000.00000" pt_clust_9="29.12756"></scales>
<clustering>
<clus scale="   29.128">  1  9  2 -1</clus>
<clus scale="   90.773">  5  6 -1 -1</clus>
<clus scale="   92.480">  7  8 -1 -1</clus>
<clus scale="   93.518">  1  5  2 -1</clus>
<clus scale="   95.176">  2  5  1 -1</clus>
</clustering>
</event>
<event>
 9    1  0.1612788E-005  0.9411228E+02  0.7546771E-02  0.1293257E+00
          4   -1    0    0  502    0  0.00000000000E+00  0.00000000000E+00  0.28134867435E+03  0.28134867435E+03  0.00000000000E+00 0. -1.
         -4   -1    0    0    0  501 -0.00000000000E+00 -0.00000000000E+00 -0.52253248708E+02  0.52253248708E+02  0.00000000000E+00 0.  1.
         23    2    1    2    0    0 -0.33044420815E+02 -0.31308411872E+01  0.98841127477E+02  0.13815583924E+03  0.90640672554E+02 0.  0.
         23    2    1    2    0    0  0.83506010782E+01  0.25773059527E+02  0.13132984787E+03  0.16192576771E+03  0.90765864579E+02 0.  0.
        -11    1    4    4    0    0 -0.12688132579E+02  0.55984269814E+02  0.88001814986E+02  0.10506924676E+03  0.00000000000E+00 0.  1.
         11    1    4    4    0    0  0.21038733657E+02 -0.30211210287E+02  0.43328032883E+02  0.56856520949E+02  0.00000000000E+00 0. -1.
        -11    1    3    3    0    0 -0.49785610405E+02  0.21025051402E+02  0.26743934140E+02  0.60298406307E+02  0.00000000000E+00 0.  1.
         11    1    3    3    0    0  0.16741189589E+02 -0.24155892589E+02  0.72097193337E+02  0.77857432931E+02  0.00000000000E+00 0. -1.
         21    1    1    2  502  501  0.24693819737E+02 -0.22642218340E+02 -0.10755497052E+01  0.33520316104E+02  0.00000000000E+00 0. -1.
<scales pt_clust_5="13000.00000" pt_clust_6="13000.00000" pt_clust_7="13000.00000" pt_clust_8="13000.00000" pt_clust_9="33.50306"></scales>
<clustering>
<clus scale="   33.503">  2  9  1 -1</clus>
<clus scale="   90.641">  7  8 -1 -1</clus>
<clus scale="   90.766">  5  6 -1 -1</clus>
<clus scale="   93.992">  2  7  1 -1</clus>
<clus scale="   94.112">  1  5  2 -1</clus>
</clustering>
</event>
<event>
 9    1  0.1612788E-005  0.1943085E+03  0.7546771E-02  0.1155532E+00
         -2   -1    0    0    0  501 -0.00000000000E+00  0.00000000000E+00  0.84096504350E+02  0.84096504350E+02  0.00000000000E+00 0.  1.
          2   -1    0    0  502    0  0.00000000000E+00 -0.00000000000E+00 -0.67010082294E+03  0.67010082294E+03  0.00000000000E+00 0. -1.
         23    2    1    2    0    0 -0.18387344824E+03  0.44318461982E+02 -0.24090877570E+03  0.32224410296E+03  0.10015314595E+03 0.  0.
         23    2    1    2    0    0  0.15514368368E+03 -0.51142249039E+01 -0.33756175342E+03  0.38276857672E+03  0.92022432413E+02 0.  0.
        -13    1    4    4    0    0  0.78414505132E+02  0.41662105966E+02 -0.19472791183E+03  0.21401758183E+03  0.00000000000E+00 0. -1.
         13    1    4    4    0    0  0.76729178552E+02 -0.46776330870E+02 -0.14283384159E+03  0.16875099489E+03  0.00000000000E+00 0.  1.
        -13    1    3    3    0    0 -0.96031511402E+02 -0.21599406381E+02 -0.77124466927E+02  0.12504706689E+03  0.00000000000E+00 0.  1.
         13    1    3    3    0    0 -0.87841936842E+02  0.65917868363E+02 -0.16378430877E+03  0.19719703607E+03  0.00000000000E+00 0. -1.
         21    1    1    2  502  501  0.28729764560E+02 -0.39204237078E+02 -0.75337894721E+01  0.49184647609E+02  0.00000000000E+00 0. -1.
<scales pt_clust_5="13000.00000" pt_clust_6="13000.00000" pt_clust_7="13000.00000" pt_clust_8="13000.00000" pt_clust_9="48.60423"></scales>
<clustering>
<clus scale="   48.604">  1  9  2 -1</clus>
<clus scale="   92.022">  5  6 -1 -1</clus>
<clus scale="  100.153">  7  8 -1 -1</clus>
<clus scale="  190.245">  2  5  1 -1</clus>
<clus scale="  190.245">  2  5  1 -1</clus>
</clustering>
</event>
<event>
 9    1  0.1612788E-005  0.9399431E+02  0.7546771E-02  0.1295186E+00
         -1   -1    0    0    0  501 -0.00000000000E+00  0.00000000000E+00  0.50968130728E+02  0.50968130728E+02  0.00000000000E+00 0.  1.
          1   -1    0    0  502    0  0.00000000000E+00 -0.00000000000E+00 -0.44947601693E+03  0.44947601693E+03  0.00000000000E+00 0. -1.
         23    2    1    2    0    0  0.13636091780E+02 -0.79190669939E+00 -0.33787999668E+02  0.99005648418E+02  0.92053893898E+02 0.  0.
         23    2    1    2    0    0 -0.61483115238E+01 -0.20729361101E+02 -0.36725899800E+03  0.37851081056E+03  0.89015470321E+02 0.  0.
        -13    1    4    4    0    0 -0.44628256622E+02  0.55019537734E+01 -0.18767671948E+03  0.19298835151E+03  0.00000000000E+00 0.  1.
         13    1    4    4    0    0  0.38479945098E+02 -0.26231314875E+02 -0.17958227852E+03  0.18552245905E+03  0.00000000000E+00 0. -1.
        -13    1    3    3    0    0 -0.14990735478E+02 -0.33476551232E+02  0.92727781570E+01  0.37833662885E+02  0.00000000000E+00 0.  1.
         13    1    3    3    0    0  0.28626827258E+02  0.32684644533E+02 -0.43060777825E+02  0.61171985533E+02  0.00000000000E+00 0. -1.
         21    1    1    2  502  501 -0.74877802562E+01  0.21521267801E+02  0.25391114664E+01  0.22927688674E+02  0.00000000000E+00 0.  1.
<scales pt_clust_5="13000.00000" pt_clust_6="13000.00000" pt_clust_7="13000.00000" pt_clust_8="13000.00000" pt_clust_9="22.78666"></scales>
<clustering>
<clus scale="   22.787">  1  9  2 -1</clus>
<clus scale="   89.015">  5  6 -1 -1</clus>
<clus scale="   91.021">  2  5  1 -1</clus>
<clus scale="   92.054">  7  8 -1 -1</clus>
<clus scale="   91.021">  2  5  1 -1</clus>
</clustering>
</event>
<event>
 9    1  0.1612788E-005  0.1066253E+03  0.7546771E-02  0.1268198E+00
          1   -1    0    0  502    0  0.00000000000E+00  0.00000000000E+00  0.27040395124E+03  0.27040395124E+03  0.00000000000E+00 0. -1.
         -1   -1    0    0    0  501 -0.00000000000E+00 -0.00000000000E+00 -0.84074189337E+02  0.84074189337E+02  0.00000000000E+00 0.  1.
         23    2    1    2    0    0  0.16788468818E+02  0.44881480708E+01 -0.12530972842E+02  0.91962663241E+02  0.89432153008E+02 0.  0.
         23    2    1    2    0    0 -0.61651377637E+02 -0.18504317624E+02  0.17904167496E+03  0.21150637298E+03  0.92388972828E+02 0.  0.
        -11    1    3    3    0    0 -0.27191432165E+02  0.25454422166E+02 -0.20620942861E+02  0.42573758062E+02  0.00000000000E+00 0. -1.
         11    1    3    3    0    0  0.43979900983E+02 -0.20966274096E+02  0.80899700185E+01  0.49388905179E+02  0.00000000000E+00 0.  1.
        -13    1    4    4    0    0 -0.57114250954E+02  0.28933668286E+02  0.89068993371E+02  0.10969266339E+03  0.00000000000E+00 0.  1.
         13    1    4    4    0    0 -0.45371266832E+01 -0.47437985909E+02  0.89972681593E+02  0.10181370958E+03  0.00000000000E+00 0. -1.
         21    1    1    2  502  501  0.44862908820E+02  0.14016169553E+02  0.19819059777E+02  0.51009104356E+02  0.00000000000E+00 0.  1.
<scales pt_clust_5="13000.00000" pt_clust_6="13000.00000" pt_clust_7="13000.00000" pt_clust_8="13000.00000" pt_clust_9="47.00142"></scales>
<clustering>
<clus scale="   47.001">  2  9  1 -1</clus>
<clus scale="   89.432">  5  6 -1 -1</clus>
<clus scale="   92.389">  7  8 -1 -1</clus>
<clus scale="  104.074">  2  5  1 -1</clus>
<clus scale="  106.625">  1  5  2 -1</clus>
</clustering>
</event>
<event>
 9    1  0.1612788E-005  0.1603395E+03  0.7546771E-02  0.1191245E+00
         -1   -1    0    0    0  501 -0.00000000000E+00  0.00000000000E+00  0.19223555646E+03  0.19223555646E+03  0.00000000000E+00 0.  1.
          1   -1    0    0  502    0  0.00000000000E+00 -0.00000000000E+00 -0.45497868053E+03  0.45497868053E+03  0.00000000000E+00 0. -1.
         23    2    1    2    0    0 -0.60670050714E+02 -0.82845736375E+02 -0.10606287564E+03  0.16970382969E+03  0.83700568304E+02 0.  0.
         23    2    1    2    0    0  0.93982863516E+02  0.10613685350E+03 -0.29000471691E+03  0.33812736125E+03  0.10064574651E+03 0.  0.
        -13    1    3    3    0    0 -0.25286802457E+02 -0.59365763083E+02 -0.10826314842E+02  0.65428780349E+02  0.00000000000E+00 0.  1.
         13    1    3    3    0    0 -0.35383248257E+02 -0.23479973292E+02 -0.95236560799E+02  0.10427504934E+03  0.00000000000E+00 0. -1.
        -13    1    4    4    0    0  0.30863284931E+02 -0.14057044789E+02 -0.91996031579E+02  0.98048012173E+02  0.00000000000E+00 0.  1.
         13    1    4    4    0    0  0.63119578585E+02  0.12019389829E+03 -0.19800868533E+03  0.24007934907E+03  0.00000000000E+00 0. -1.
         21    1    1    2  502  501 -0.33312812802E+02 -0.23291117126E+02  0.13332446847E+03  0.13938304606E+03  0.00000000000E+00 0.  1.
<scales pt_clust_5="13000.00000" pt_clust_6="13000.00000" pt_clust_7="13000.00000" pt_clust_8="13000.00000" pt_clust_9="40.64750"></scales>
<clustering>
<clus scale="   40.648">  1  9  2 -1</clus>
<clus scale="   83.701">  5  6 -1 -1</clus>
<clus scale="  100.646">  7  8 -1 -1</clus>
<clus scale="  150.283">  1  5  2 -1</clus>
<clus scale="  160.340">  2  5  1 -1</clus>
</clustering>
</event>
<event>
 9    1  0.1612788E-005  0.9165815E+02  0.7546771E-02  0.1299332E+00
         -1   -1    0    0    0  501 -0.00000000000E+00  0.00000000000E+00  0.44909315775E+03  0.44909315775E+03  0.00000000000E+00 0.  1.
          1   -1    0    0  502    0  0.00000000000E+00 -0.00000000000E+00 -0.58211305107E+02  0.58211305107E+02  0.00000000000E+00 0. -1.
         23    2    1    2    0    0 -0.91134348823E+01  0.21445129528E+02  0.17858756532E+03  0.20156305297E+03  0.90505234980E+02 0.  0.
         23    2    1    2    0    0 -0.12133032745E+02  0.14692351030E+01  0.93148996348E+00  0.92081136089E+02  0.91261705082E+02 0.  0.
        -11    1    3    3    0    0  0.28200185343E+01  0.52691084331E+02  0.68260724050E+02  0.86277629315E+02  0.00000000000E+00 0.  1.
         11    1    3    3    0    0 -0.11933453417E+02 -0.31245954803E+02  0.11032684127E+03  0.11528542365E+03  0.00000000000E+00 0. -1.
        -11    1    4    4    0    0 -0.15812881593E+02 -0.43735448019E+02  0.36223728503E+01  0.46647167360E+02  0.00000000000E+00 0. -1.
         11    1    4    4    0    0  0.36798488476E+01  0.45204683122E+02 -0.26908828868E+01  0.45433968728E+02  0.00000000000E+00 0.  1.
         21    1    1    2  502  501  0.21246467627E+02 -0.22914364631E+02  0.21136279736E+03  0.21366027380E+03  0.00000000000E+00 0.  1.
<scales pt_clust_5="13000.00000" pt_clust_6="13000.00000" pt_clust_7="13000.00000" pt_clust_8="13000.00000" pt_clust_9="31.24869"></scales>
<clustering>
<clus scale="   31.249">  1  9  2 -1</clus>
<clus scale="   90.505">  5  6 -1 -1</clus>
<clus scale="   90.905">  1  5  2 -1</clus>
<clus scale="   91.262">  7  8 -1 -1</clus>
<clus scale="   91.658">  2  5  1 -1</clus>
</clustering>
</event>
<event>
 9    1  0.1612788E-005  0.2411015E+03  0.7546771E-02  0.1119104E+00
          1   -1    0    0  502    0  0.00000000000E+00  0.00000000000E+00  0.83282582973E+03  0.83282582973E+03  0.00000000000E+00 0. -1.
         -1   -1    0    0    0  501 -0.00000000000E+00 -0.00000000000E+00 -0.18765289386E+03  0.18765289386E+03  0.00000000000E+00 0.  1.
         23    2    1    2    0    0  0.18294512849E+03 -0.78307490266E+02 -0.82883831318E+02  0.23357355929E+03  0.89921604952E+02 0.  0.
         23    2    1    2    0    0 -0.21302977129E+03  0.77238395256E+02  0.71225808281E+03  0.75290770668E+03  0.90614486061E+02 0.  0.
        -11    1    4    4    0    0 -0.19921959160E+03  0.40227881018E+02  0.62259053912E+03  0.65492419980E+03  0.00000000000E+00 0. -1.
         11    1    4    4    0    0 -0.13810179694E+02  0.37010514238E+02  0.89667543696E+02  0.97983506877E+02  0.00000000000E+00 0.  1.
        -13    1    3    3    0    0  0.63656409844E+02 -0.49322021837E+02  0.78669949965E+01  0.80911618217E+02  0.00000000000E+00 0. -1.
         13    1    3    3    0    0  0.11928871864E+03 -0.28985468429E+02 -0.90750826315E+02  0.15266194107E+03  0.00000000000E+00 0.  1.
         21    1    1    2  502  501  0.30084642805E+02  0.10690950098E+01  0.15798684371E+02  0.33997457621E+02  0.00000000000E+00 0.  1.
<scales pt_clust_5="13000.00000" pt_clust_6="13000.00000" pt_clust_7="13000.00000" pt_clust_8="13000.00000" pt_clust_9="30.10363"></scales>
<clustering>
<clus scale="   30.104">  2  9  1 -1</clus>
<clus scale="   89.922">  7  8 -1 -1</clus>
<clus scale="   90.614">  5  6 -1 -1</clus>
<clus scale="  240.842">  2  7  1 -1</clus>
<clus scale="  241.101">  1  5  2 -1</clus>
</clustering>
</event>
<event>
 9    1  0.1612788E-005  0.1236388E+03  0.7546771E-02  0.1258883E+00
         -1   -1    0    0    0  501 -0.00000000000E+00  0.00000000000E+00  0.15911246471E+03  0.15911246471E+03  0.00000000000E+00 0.  1.
          1   -1    0    0  502    0  0.00000000000E+00 -0.00000000000E+00 -0.22782047579E+03  0.22782047579E+03  0.00000000000E+00 0. -1.
         23    2    1    2    0    0 -0.11303487170E+01  0.25674435829E+02 -0.35555189609E+02  0.90529384204E+02  0.79189289382E+02 0.  0.
         23    2    1    2    0    0  0.16719817883E+02  0.88991612059E+01 -0.13742762750E+03  0.18544590521E+03  0.12306536303E+03 0.  0.
        -13    1    4    4    0    0 -0.88073180624E+01 -0.52460694615E+02 -0.36169746493E+02  0.64326852032E+02  0.00000000000E+00 0.  1.
         13    1    4    4    0    0  0.25527135945E+02  0.61359855821E+02 -0.10125788101E+03  0.12111905318E+03  0.00000000000E+00 0. -1.
        -13    1    3    3    0    0  0.24926732291E+02 -0.15130492167E+02 -0.29934280735E+02  0.41789172510E+02  0.00000000000E+00 0. -1.
         13    1    3    3    0    0 -0.26057081008E+02  0.40804927996E+02 -0.56209088740E+01  0.48740211694E+02  0.00000000000E+00 0.  1.
         21    1    1    2  502  501 -0.15589469166E+02 -0.34573597035E+02  0.10427480603E+03  0.11095765108E+03  0.00000000000E+00 0.  1.
<scales pt_clust_5="13000.00000" pt_clust_6="13000.00000" pt_clust_7="13000.00000" pt_clust_8="13000.00000" pt_clust_9="37.92578"></scales>
<clustering>
<clus scale="   37.926">  1  9  2 -1</clus>
<clus scale="   79.189">  7  8 -1 -1</clus>
<clus scale="   80.077">  1  7  2 -1</clus>
<clus scale="  123.065">  5  6 -1 -1</clus>
<clus scale="  123.639">  2  5  1 -1</clus>
</clustering>
</event>
<event>
 9    1  0.1612788E-005  0.1073338E+03  0.7546771E-02  0.1265788E+00
         -1   -1    0    0    0  501 -0.00000000000E+00  0.00000000000E+00  0.11322125390E+03  0.11322125390E+03  0.00000000000E+00 0.  1.
          1   -1    0    0  502    0  0.00000000000E+00 -0.00000000000E+00 -0.38025009249E+03  0.38025009249E+03  0.00000000000E+00 0. -1.
         23    2    1    2    0    0 -0.47795770341E+02 -0.52008255586E+02  0.42947325799E+02  0.12276768831E+03  0.90764190015E+02 0.  0.
         23    2    1    2    0    0 -0.24070814876E+02 -0.77943814287E+01 -0.22738852119E+03  0.24595639249E+03  0.90270986052E+02 0.  0.
        -11    1    3    3    0    0 -0.83162544007E+01 -0.55301727330E+02 -0.98247943710E+01  0.56779993989E+02  0.00000000000E+00 0. -1.
         11    1    3    3    0    0 -0.39479515940E+02  0.32934717447E+01  0.52772120170E+02  0.65987694325E+02  0.00000000000E+00 0.  1.
        -13    1    4    4    0    0 -0.15252482030E+02 -0.43419788494E+02 -0.66084917136E+02  0.80530320462E+02  0.00000000000E+00 0. -1.
         13    1    4    4    0    0 -0.88183328465E+01  0.35625407065E+02 -0.16130360406E+03  0.16542607202E+03  0.00000000000E+00 0.  1.
         21    1    1    2  502  501  0.71866585217E+02  0.59802637014E+02 -0.82587643194E+02  0.12474726559E+03  0.00000000000E+00 0.  1.
<scales pt_clust_5="13000.00000" pt_clust_6="13000.00000" pt_clust_7="13000.00000" pt_clust_8="13000.00000" pt_clust_9="93.49418"></scales>
<clustering>
<clus scale="   90.271">  7  8 -1 -1</clus>
<clus scale="   90.764">  5  6 -1 -1</clus>
<clus scale="   93.494">  2  9  1 -1</clus>
<clus scale="  106.917">  2  7  1 -1</clus>
<clus scale="   93.494">  2  5  1 -1</clus>
</clustering>
</event>
<event>
 9    1  0.1612788E-005  0.1339361E+03  0.7546771E-02  0.1222075E+00
         -1   -1    0    0    0  501 -0.00000000000E+00  0.00000000000E+00  0.36324373778E+03  0.36324373778E+03  0.00000000000E+00 0.  1.
          1   -1    0    0  502    0  0.00000000000E+00 -0.00000000000E+00 -0.87386415356E+02  0.87386415356E+02  0.00000000000E+00 0. -1.
         23    2    1    2    0    0 -0.10888915039E+03 -0.79452800095E+01  0.25515196430E+03  0.29169709738E+03  0.89803659089E+02 0.  0.
         23    2    1    2    0    0  0.66333382243E+02 -0.30712980237E+01  0.77360517173E+01  0.11310117490E+03  0.91227620795E+02 0.  0.
        -13    1    4    4    0    0 -0.22769362730E+02 -0.58806852513E+01 -0.92287812116E+00  0.23534613704E+02  0.00000000000E+00 0. -1.
         13    1    4    4    0    0  0.89102744973E+02  0.28093872276E+01  0.86589298385E+01  0.89566561195E+02  0.00000000000E+00 0.  1.
        -13    1    3    3    0    0 -0.34960623055E+02  0.34973034575E+02  0.54477903559E+02  0.73574454045E+02  0.00000000000E+00 0.  1.
         13    1    3    3    0    0 -0.73928527334E+02 -0.42918314584E+02  0.20067406074E+03  0.21812264334E+03  0.00000000000E+00 0. -1.
         21    1    1    2  502  501  0.42555768146E+02  0.11016578033E+02  0.12969306400E+02  0.45831880853E+02  0.00000000000E+00 0.  1.
<scales pt_clust_5="13000.00000" pt_clust_6="13000.00000" pt_clust_7="13000.00000" pt_clust_8="13000.00000" pt_clust_9="43.95860"></scales>
<clustering>
<clus scale="   43.959">  2  9  1 -1</clus>
<clus scale="   89.804">  7  8 -1 -1</clus>
<clus scale="   91.228">  5  6 -1 -1</clus>
<clus scale="  132.970">  1  7  2 -1</clus>
<clus scale="   43.959">  2  5  1 -1</clus>
</clustering>
</event>
<event>
 9    1  0.1612788E-005  0.1960257E+03  0.7546771E-02  0.1153336E+00
         -2   -1    0    0    0  501 -0.00000000000E+00  0.00000000000E+00  0.73537601980E+02  0.73537601980E+02  0.00000000000E+00 0.  1.
          2   -1    0    0  502    0  0.00000000000E+00 -0.00000000000E+00 -0.82132428824E+03  0.82132428824E+03  0.00000000000E+00 0. -1.
         23    2    1    2    0    0 -0.20234250602E+03 -0.23446310667E+02 -0.20865839623E+03  0.30559413021E+03  0.91417869557E+02 0.  0.
         23    2    1    2    0    0  0.16120147870E+03  0.37020361313E+01 -0.47763808175E+03  0.51269448648E+03  0.93369574911E+02 0.  0.
        -11    1    4    4    0    0  0.14275555181E+03  0.37028048413E+02 -0.39713645864E+03  0.42363615370E+03  0.00000000000E+00 0. -1.
         11    1    4    4    0    0  0.18445926892E+02 -0.33326012282E+02 -0.80501623118E+02  0.89058332783E+02  0.00000000000E+00 0.  1.
        -13    1    3    3    0    0 -0.17319423987E+03 -0.53275008664E+02 -0.17619169315E+03  0.25274094249E+03  0.00000000000E+00 0.  1.
         13    1    3    3    0    0 -0.29148266144E+02  0.29828697997E+02 -0.32466703082E+02  0.52853187723E+02  0.00000000000E+00 0. -1.
         21    1    1    2  502  501  0.41141027317E+02  0.19744274535E+02 -0.61490208270E+02  0.76573273528E+02  0.00000000000E+00 0. -1.
<scales pt_clust_5="13000.00000" pt_clust_6="13000.00000" pt_clust_7="13000.00000" pt_clust_8="13000.00000" pt_clust_9="45.63355"></scales>
<clustering>
<clus scale="   45.634">  1  9  2 -1</clus>
<clus scale="   91.418">  7  8 -1 -1</clus>
<clus scale="   93.370">  5  6 -1 -1</clus>
<clus scale="  195.104">  1  7  2 -1</clus>
<clus scale="  196.026">  2  5  1 -1</clus>
</clustering>
</event>
<event>
 9    1  0.1612788E-005  0.9673459E+02  0.7546771E-02  0.1288086E+00
         -1   -1    0    0    0  501 -0.00000000000E+00  0.00000000000E+00  0.47680665097E+03  0.47680665097E+03  0.00000000000E+00 0.  1.
          1   -1    0    0  502    0  0.00000000000E+00 -0.00000000000E+00 -0.40332910459E+02  0.40332910459E+02  0.00000000000E+00 0. -1.
         23    2    1    2    0    0  0.27440572182E+01 -0.48081991723E+02  0.12112894926E+03  0.15934812565E+03  0.91652577829E+02 0.  0.
         23    2    1    2    0    0  0.94281631927E+01  0.17444779807E+02  0.86307959840E+02  0.12639421918E+03  0.90184389488E+02 0.  0.
        -11    1    4    4    0    0 -0.82445760381E+01  0.35318263416E+02  0.93468964961E+02  0.10025866634E+03  0.00000000000E+00 0.  1.
         11    1    4    4    0    0  0.17672739231E+02 -0.17873483609E+02 -0.71610051208E+01  0.26135552846E+02  0.00000000000E+00 0. -1.
        -11    1    3    3    0    0 -0.30033804605E+02 -0.51139354734E+02  0.10932575690E+03  0.12437597896E+03  0.00000000000E+00 0. -1.
         11    1    3    3    0    0  0.32777861824E+02  0.30573630111E+01  0.11803192364E+02  0.34972146693E+02  0.00000000000E+00 0.  1.
         21    1    1    2  502  501 -0.12172220411E+02  0.30637211916E+02  0.22903683141E+03  0.23139721659E+03  0.00000000000E+00 0. -1.
<scales pt_clust_5="13000.00000" pt_clust_6="13000.00000" pt_clust_7="13000.00000" pt_clust_8="13000.00000" pt_clust_9="32.96668"></scales>
<clustering>
<clus scale="   32.967">  1  9  2 -1</clus>
<clus scale="   90.184">  5  6 -1 -1</clus>
<clus scale="   91.653">  7  8 -1 -1</clus>
<clus scale="   95.345">  2  5  1 -1</clus>
<clus scale="   95.345">  2  5  1 -1</clus>
</clustering>
</event>
<event>
 9    1  0.1612788E-005  0.1207870E+03  0.7546771E-02  0.1241873E+00
          1   -1    0    0  502    0  0.00000000000E+00  0.00000000000E+00  0.32849461910E+03  0.32849461910E+03  0.00000000000E+00 0. -1.
         -1   -1    0    0    0  501 -0.00000000000E+00 -0.00000000000E+00 -0.11416611466E+03  0.11416611466E+03  0.00000000000E+00 0.  1.
         23    2    1    2    0    0  0.16374054807E+02  0.48361852506E+02 -0.39074521738E+02  0.11178419000E+03  0.91443471261E+02 0.  0.
         23    2    1    2    0    0 -0.65352123079E+02 -0.54883852892E+02  0.25204613268E+03  0.28144751564E+03  0.91664135642E+02 0.  0.
        -11    1    3    3    0    0  0.39981479700E+02 -0.38610024479E+01 -0.36724235938E+02  0.54425137245E+02  0.00000000000E+00 0.  1.
         11    1    3    3    0    0 -0.23607424893E+02  0.52222854954E+02 -0.23502858001E+01  0.57359052755E+02  0.00000000000E+00 0. -1.
        -11    1    4    4    0    0  0.22506369250E+02 -0.26594066015E+01  0.37864057753E+02  0.44128176597E+02  0.00000000000E+00 0.  1.
         11    1    4    4    0    0 -0.87858492329E+02 -0.52224446291E+02  0.21418207492E+03  0.23731933904E+03  0.00000000000E+00 0. -1.
         21    1    1    2  502  501  0.48978068272E+02  0.65220003858E+01  0.13568935027E+01  0.49429028118E+02  0.00000000000E+00 0.  1.
<scales pt_clust_5="13000.00000" pt_clust_6="13000.00000" pt_clust_7="13000.00000" pt_clust_8="13000.00000" pt_clust_9="49.41040"></scales>
<clustering>
<clus scale="   49.410">  2  9  1 -1</clus>
<clus scale="   91.443">  5  6 -1 -1</clus>
<clus scale="   91.664">  7  8 -1 -1</clus>
<clus scale="  120.620">  2  5  1 -1</clus>
<clus scale="  120.787">  1  5  2 -1</clus>
</clustering>
</event>
<event>
 9    1  0.1612788E-005  0.1054450E+03  0.7546771E-02  0.1269343E+00
         -2   -1    0    0    0  501 -0.00000000000E+00  0.00000000000E+00  0.10281352283E+03  0.10281352283E+03  0.00000000000E+00 0.  1.
          2   -1    0    0  502    0  0.00000000000E+00 -0.00000000000E+00 -0.35610534274E+03  0.35610534274E+03  0.00000000000E+00 0. -1.
         23    2    1    2    0    0 -0.36618275792E+02 -0.25238953726E+01  0.33183930660E+02  0.10317948191E+03  0.90540400176E+02 0.  0.
         23    2    1    2    0    0  0.52018868584E+02  0.21071711929E+02 -0.30640608352E+03  0.32445971087E+03  0.90771340351E+02 0.  0.
        -11    1    3    3    0    0 -0.14160954025E+02 -0.20086635619E+02  0.59503231625E+02  0.64378879480E+02  0.00000000000E+00 0.  1.
         11    1    3    3    0    0 -0.22457321768E+02  0.17562740247E+02 -0.26319300964E+02  0.38800602433E+02  0.00000000000E+00 0. -1.
        -13    1    4    4    0    0  0.57701998703E+02  0.47136076934E+02 -0.26441037273E+03  0.27470743639E+03  0.00000000000E+00 0. -1.
         13    1    4    4    0    0 -0.56831301188E+01 -0.26064365005E+02 -0.41995710792E+02  0.49752274481E+02  0.00000000000E+00 0.  1.
         21    1    1    2  502  501 -0.15400592792E+02 -0.18547816557E+02  0.19930332951E+02  0.31279672775E+02  0.00000000000E+00 0.  1.
<scales pt_clust_5="13000.00000" pt_clust_6="13000.00000" pt_clust_7="13000.00000" pt_clust_8="13000.00000" pt_clust_9="24.10808"></scales>
<clustering>
<clus scale="   24.108">  1  9  2 -1</clus>
<clus scale="   90.540">  5  6 -1 -1</clus>
<clus scale="   90.771">  7  8 -1 -1</clus>
<clus scale="  105.246">  1  5  2 -1</clus>
<clus scale="  105.445">  2  5  1 -1</clus>
</clustering>
</event>
<event>
 9    1  0.2561994E-005  0.1103849E+03  0.7546771E-02  0.1265359E+00
          3   -1    0    0  502    0  0.00000000000E+00  0.00000000000E+00  0.11544589318E+03  0.11544589318E+03  0.00000000000E+00 0. -1.
         -3   -1    0    0    0  501 -0.00000000000E+00 -0.00000000000E+00 -0.28652909953E+03  0.28652909953E+03  0.00000000000E+00 0.  1.
         23    2    1    2    0    0  0.17073943309E+02 -0.37796458866E+02 -0.23471908176E+03  0.25979181898E+03  0.10333755379E+03 0.  0.
         23    2    1    2    0    0 -0.54618738892E+01  0.17980013807E+02  0.72031454657E+02  0.11772877940E+03  0.91205384027E+02 0.  0.
        -13    1    3    3    0    0 -0.36188898559E+02 -0.41784539402E+02 -0.14749922176E+03  0.15751699760E+03  0.00000000000E+00 0.  1.
         13    1    3    3    0    0  0.53262841868E+02  0.39880805363E+01 -0.87219859997E+02  0.10227482138E+03  0.00000000000E+00 0. -1.
        -13    1    4    4    0    0 -0.47903657971E+02  0.13341778665E+02  0.45897141530E+02  0.67670607398E+02  0.00000000000E+00 0. -1.
         13    1    4    4    0    0  0.42441784082E+02  0.46382351417E+01  0.26134313126E+02  0.50058171999E+02  0.00000000000E+00 0.  1.
         21    1    1    2  502  501 -0.11612069419E+02  0.19816445059E+02 -0.83955792464E+01  0.24454394326E+02  0.00000000000E+00 0.  1.
<scales pt_clust_5="13000.00000" pt_clust_6="13000.00000" pt_clust_7="13000.00000" pt_clust_8="13000.00000" pt_clust_9="22.96806"></scales>
<clustering>
<clus scale="   22.968">  1  9  2 -1</clus>
<clus scale="   91.205">  7  8 -1 -1</clus>
<clus scale="   99.119">  1  7  2 -1</clus>
<clus scale="  103.338">  5  6 -1 -1</clus>
<clus scale="   22.968">  1  5  2 -1</clus>
</clustering>
</event>
<event>
 9    1  0.1612788E-005  0.1018405E+03  0.7546771E-02  0.1281046E+00
          1   -1    0    0  502    0  0.00000000000E+00  0.00000000000E+00  0.18778671759E+03  0.18778671759E+03  0.00000000000E+00 0. -1.
         -1   -1    0    0    0  501 -0.00000000000E+00 -0.00000000000E+00 -0.70968318141E+02  0.70968318141E+02  0.00000000000E+00 0.  1.
         23    2    1    2    0    0  0.14050481657E+02  0.27116218600E+02  0.24173873945E+02  0.92747502405E+02  0.84172547038E+02 0.  0.
         23    2    1    2    0    0 -0.23363238302E+02 -0.53102839809E+02  0.76528188926E+02  0.13404242387E+03  0.93514999844E+02 0.  0.
        -11    1    3    3    0    0 -0.15759767975E+02  0.49701565230E+02  0.14344939843E+02  0.54077658714E+02  0.00000000000E+00 0.  1.
         11    1    3    3    0    0  0.29810249632E+02 -0.22585346630E+02  0.98289341021E+01  0.38669843691E+02  0.00000000000E+00 0. -1.
        -13    1    4    4    0    0 -0.16903780736E+01 -0.42911935806E+02 -0.10140027784E+02  0.44126089518E+02  0.00000000000E+00 0.  1.
         13    1    4    4    0    0 -0.21672860228E+02 -0.10190904003E+02  0.86668216710E+02  0.89916334348E+02  0.00000000000E+00 0. -1.
         21    1    1    2  502  501  0.93127566447E+01  0.25986621209E+02  0.16116336579E+02  0.31965109462E+02  0.00000000000E+00 0.  1.
<scales pt_clust_5="13000.00000" pt_clust_6="13000.00000" pt_clust_7="13000.00000" pt_clust_8="13000.00000" pt_clust_9="27.60493"></scales>
<clustering>
<clus scale="   27.605">  1  9  2 -1</clus>
<clus scale="   84.173">  5  6 -1 -1</clus>
<clus scale="   93.335">  2  5  1 -1</clus>
<clus scale="   93.515">  7  8 -1 -1</clus>
<clus scale="   27.605">  1  5  2 -1</clus>
</clustering>
</event>
<event>
 9    1  0.1612788E-005  0.1703265E+03  0.7546771E-02  0.1177705E+00
          2   -1    0    0  502    0  0.00000000000E+00  0.00000000000E+00  0.34885689434E+03  0.34885689434E+03  0.00000000000E+00 0. -1.
         -2   -1    0    0    0  501 -0.00000000000E+00 -0.00000000000E+00 -0.98207066953E+02  0.98207066953E+02  0.00000000000E+00 0.  1.
         23    2    1    2    0    0  0.81368602694E+01 -0.14200820741E+03  0.72550839425E+02  0.18373684113E+03  0.90901391744E+02 0.  0.
         23    2    1    2    0    0  0.13740127690E+02  0.14374335908E+03  0.16422333489E+03  0.23736277727E+03  0.92308395736E+02 0.  0.
        -13    1    3    3    0    0  0.15426993615E+02 -0.17632563184E+02  0.52571772586E+02  0.57555978745E+02  0.00000000000E+00 0. -1.
         13    1    3    3    0    0 -0.72901333456E+01 -0.12437564423E+03  0.19979066839E+02  0.12618086239E+03  0.00000000000E+00 0.  1.
        -13    1    4    4    0    0  0.13361946481E+02  0.11814997239E+03  0.17333129625E+03  0.21019442393E+03  0.00000000000E+00 0. -1.
         13    1    4    4    0    0  0.37818120840E+00  0.25593386685E+02 -0.91079613644E+01  0.27168353341E+02  0.00000000000E+00 0.  1.
         21    1    1    2  502  501 -0.21876987959E+02 -0.17351516664E+01  0.13875653075E+02  0.25964342890E+02  0.00000000000E+00 0. -1.
<scales pt_clust_5="13000.00000" pt_clust_6="13000.00000" pt_clust_7="13000.00000" pt_clust_8="13000.00000" pt_clust_9="21.94569"></scales>
<clustering>
<clus scale="   21.946">  2  9  1 -1</clus>
<clus scale="   90.901">  5  6 -1 -1</clus>
<clus scale="   92.308">  7  8 -1 -1</clus>
<clus scale="  169.568">  2  5  1 -1</clus>
<clus scale="  170.327">  1  5  2 -1</clus>
</clustering>
</event>
<event>
 9    1  0.1612788E-005  0.1024508E+03  0.7546771E-02  0.1275627E+00
         -2   -1    0    0    0  501 -0.00000000000E+00  0.00000000000E+00  0.82346692570E+02  0.82346692570E+02  0.00000000000E+00 0.  1.
          2   -1    0    0  502    0  0.00000000000E+00 -0.00000000000E+00 -0.43363036053E+03  0.43363036053E+03  0.00000000000E+00 0. -1.
         23    2    1    2    0    0  0.19793309713E+02  0.64404725747E+00 -0.65833982285E+02  0.11460889995E+03  0.91700037181E+02 0.  0.
         23    2    1    2    0    0 -0.47520125089E+02 -0.28493714927E+02 -0.32718221286E+03  0.34404464920E+03  0.90821066646E+02 0.  0.
        -11    1    4    4    0    0 -0.46447442557E+02  0.19713427944E+02 -0.10249808624E+03  0.11424465783E+03  0.00000000000E+00 0.  1.
         11    1    4    4    0    0 -0.10726825313E+01 -0.48207142871E+02 -0.22468412663E+03  0.22979999136E+03  0.00000000000E+00 0. -1.
        -13    1    3    3    0    0 -0.35344675132E+02  0.12183591609E+02 -0.23738781969E+02  0.44285615430E+02  0.00000000000E+00 0.  1.
         13    1    3    3    0    0  0.55137984844E+02 -0.11539544352E+02 -0.42095200316E+02  0.70323284524E+02  0.00000000000E+00 0. -1.
         21    1    1    2  502  501  0.27726815376E+02  0.27849667670E+02  0.41732527185E+02  0.57323503953E+02  0.00000000000E+00 0.  1.
<scales pt_clust_5="13000.00000" pt_clust_6="13000.00000" pt_clust_7="13000.00000" pt_clust_8="13000.00000" pt_clust_9="39.29860"></scales>
<clustering>
<clus scale="   39.299">  1  9  2 -1</clus>
<clus scale="   90.821">  5  6 -1 -1</clus>
<clus scale="   91.700">  7  8 -1 -1</clus>
<clus scale="  101.665">  2  5  1 -1</clus>
<clus scale="  101.665">  2  5  1 -1</clus>
</clustering>
</event>
<event>
 9    1  0.1612788E-005  0.1991374E+03  0.7546771E-02  0.1150524E+00
          1   -1    0    0  502    0  0.00000000000E+00  0.00000000000E+00  0.10135623588E+03  0.10135623588E+03  0.00000000000E+00 0. -1.
         -1   -1    0    0    0  501 -0.00000000000E+00 -0.00000000000E+00 -0.88797910887E+03  0.88797910887E+03  0.00000000000E+00 0.  1.
         23    2    1    2    0    0  0.82693304695E+02 -0.14037213485E+03 -0.27018370875E+03  0.32845246250E+03  0.91319574928E+02 0.  0.
         23    2    1    2    0    0 -0.19571448235E+02  0.18906938145E+03 -0.93425179556E+02  0.23042194113E+03  0.90750945943E+02 0.  0.
        -13    1    4    4    0    0 -0.25687661356E+02  0.52909272509E+02  0.95659825011E+01  0.59588212631E+02  0.00000000000E+00 0.  1.
         13    1    4    4    0    0  0.61162131212E+01  0.13616010894E+03 -0.10299116206E+03  0.17083372850E+03  0.00000000000E+00 0. -1.
        -13    1    3    3    0    0  0.52660506714E+02 -0.59679887427E+02 -0.20665413359E+03  0.22145145938E+03  0.00000000000E+00 0.  1.
         13    1    3    3    0    0  0.30032797981E+02 -0.80692247424E+02 -0.63529575151E+02  0.10700100312E+03  0.00000000000E+00 0. -1.
         21    1    1    2  502  501 -0.63121856460E+02 -0.48697246601E+02 -0.42301398469E+03  0.43046094112E+03  0.00000000000E+00 0.  1.
<scales pt_clust_5="13000.00000" pt_clust_6="13000.00000" pt_clust_7="13000.00000" pt_clust_8="13000.00000" pt_clust_9="79.72321"></scales>
<clustering>
<clus scale="   79.723">  2  9  1 -1</clus>
<clus scale="   90.751">  5  6 -1 -1</clus>
<clus scale="   91.320">  7  8 -1 -1</clus>
<clus scale="  198.877">  1  5  2 -1</clus>
<clus scale="  198.877">  1  5  2 -1</clus>
</clustering>
</event>
<event>
 9    1  0.1612788E-005  0.1275475E+03  0.7546771E-02  0.1231243E+00
          1   -1    0    0  502    0  0.00000000000E+00  0.00000000000E+00  0.31653548348E+03  0.31653548348E+03  0.00000000000E+00 0. -1.
         -1   -1    0    0    0  501 -0.00000000000E+00 -0.00000000000E+00 -0.78502856005E+02  0.78502856005E+02  0.00000000000E+00 0.  1.
         23    2    1    2    0    0  0.47498774836E+02  0.57383726268E+02  0.92576547479E+02  0.14977861955E+03  0.91182191676E+02 0.  0.
         23    2    1    2    0    0 -0.41937793009E+02 -0.94793236786E+02  0.15347812156E+03  0.20659773413E+03  0.91556287203E+02 0.  0.
        -11    1    4    4    0    0 -0.28600729718E+02 -0.54739756816E+02  0.15232146516E+03  0.16436627229E+03  0.00000000000E+00 0. -1.
         11    1    4    4    0    0 -0.13337063291E+02 -0.40053479970E+02  0.11566563942E+01  0.42231461837E+02  0.00000000000E+00 0.  1.
        -13    1    3    3    0    0  0.25127472372E+02  0.36759956457E+02 -0.75215487368E+01  0.45158143915E+02  0.00000000000E+00 0.  1.
         13    1    3    3    0    0  0.22371302464E+02  0.20623769811E+02  0.10009809622E+03  0.10462047563E+03  0.00000000000E+00 0. -1.
         21    1    1    2  502  501 -0.55609818271E+01  0.37409510518E+02 -0.80220415627E+01  0.38661985812E+02  0.00000000000E+00 0.  1.
<scales pt_clust_5="13000.00000" pt_clust_6="13000.00000" pt_clust_7="13000.00000" pt_clust_8="13000.00000" pt_clust_9="37.82058"></scales>
<clustering>
<clus scale="   37.821">  2  9  1 -1</clus>
<clus scale="   91.182">  7  8 -1 -1</clus>
<clus scale="   91.556">  5  6 -1 -1</clus>
<clus scale="  127.279">  2  7  1 -1</clus>
<clus scale="  127.547">  1  5  2 -1</clus>
</clustering>
</event>
<event>
 9    1  0.1612788E-005  0.1211351E+03  0.7546771E-02  0.1242314E+00
          1   -1    0    0  502    0  0.00000000000E+00  0.00000000000E+00  0.25349049787E+02  0.25349049787E+02  0.00000000000E+00 0. -1.
         -1   -1    0    0    0  501 -0.00000000000E+00 -0.00000000000E+00 -0.81093076367E+03  0.81093076367E+03  0.00000000000E+00 0.  1.
         23    2    1    2    0    0  0.30660529429E+02 -0.58902944651E+02 -0.40012231492E+03  0.41621577385E+03  0.93424186096E+02 0.  0.
         23    2    1    2    0    0 -0.22810154690E+02  0.80447150517E+02 -0.21144500469E+03  0.24454540640E+03  0.90007880766E+02 0.  0.
        -11    1    3    3    0    0  0.62499228550E+02 -0.30104231572E+02 -0.28579011238E+03  0.29408911347E+03  0.00000000000E+00 0. -1.
         11    1    3    3    0    0 -0.31838699121E+02 -0.28798713078E+02 -0.11433220254E+03  0.12212666038E+03  0.00000000000E+00 0.  1.
        -13    1    4    4    0    0  0.21082744271E+02  0.40036424339E+02 -0.15831877949E+03  0.16465792820E+03  0.00000000000E+00 0. -1.
         13    1    4    4    0    0 -0.43892898961E+02  0.40410726178E+02 -0.53126225202E+02  0.79887478203E+02  0.00000000000E+00 0.  1.
         21    1    1    2  502  501 -0.78503747389E+01 -0.21544205867E+02 -0.17401439427E+03  0.17551863321E+03  0.00000000000E+00 0.  1.
<scales pt_clust_5="13000.00000" pt_clust_6="13000.00000" pt_clust_7="13000.00000" pt_clust_8="13000.00000" pt_clust_9="22.92992"></scales>
<clustering>
<clus scale="   22.930">  2  9  1 -1</clus>
<clus scale="   90.008">  7  8 -1 -1</clus>
<clus scale="   93.424">  5  6 -1 -1</clus>
<clus scale="  118.520">  1  7  2 -1</clus>
<clus scale="  118.520">  1  5  2 -1</clus>
</clustering>
</event>
<event>
 9    1  0.1612788E-005  0.2476022E+03  0.7546771E-02  0.1116010E+00
         -1   -1    0    0    0  501 -0.00000000000E+00  0.00000000000E+00  0.12269546426E+03  0.12269546426E+03  0.00000000000E+00 0.  1.
          1   -1    0    0  502    0  0.00000000000E+00 -0.00000000000E+00 -0.78298212718E+03  0.78298212718E+03  0.00000000000E+00 0. -1.
         23    2    1    2    0    0 -0.14872569636E+03 -0.15222754959E+03 -0.19391317602E+03  0.30820522072E+03  0.10997990103E+03 0.  0.
         23    2    1    2    0    0  0.13763618816E+03  0.18035905778E+03 -0.49720382189E+03  0.55428824748E+03  0.92470053361E+02 0.  0.
        -13    1    4    4    0    0  0.74744358970E+02  0.16016912906E+03 -0.39293352263E+03  0.43085684665E+03  0.00000000000E+00 0. -1.
         13    1    4    4    0    0  0.62891829186E+02  0.20189928721E+02 -0.10427029927E+03  0.12343140082E+03  0.00000000000E+00 0.  1.
        -13    1    3    3    0    0 -0.16055976219E+03 -0.12636209483E+03 -0.14137921934E+03  0.24846508790E+03  0.00000000000E+00 0.  1.
         13    1    3    3    0    0  0.11834065834E+02 -0.25865454762E+02 -0.52533956681E+02  0.59740132815E+02  0.00000000000E+00 0. -1.
         21    1    1    2  502  501  0.11089508199E+02 -0.28131508192E+02  0.30830334988E+02  0.43184123248E+02  0.00000000000E+00 0.  1.
<scales pt_clust_5="13000.00000" pt_clust_6="13000.00000" pt_clust_7="13000.00000" pt_clust_8="13000.00000" pt_clust_9="30.23837"></scales>
<clustering>
<clus scale="   30.238">  1  9  2 -1</clus>
<clus scale="   92.470">  5  6 -1 -1</clus>
<clus scale="  109.980">  7  8 -1 -1</clus>
<clus scale="  240.337">  2  5  1 -1</clus>
<clus scale="  240.337">  2  5  1 -1</clus>
</clustering>
</event>
<event>
 9    1  0.1612788E-005  0.1326486E+03  0.7546771E-02  0.1223811E+00
          1   -1    0    0  502    0  0.00000000000E+00  0.00000000000E+00  0.41047247527E+03  0.41047247527E+03  0.00000000000E+00 0. -1.
         -1   -1    0    0    0  501 -0.00000000000E+00 -0.00000000000E+00 -0.98534320286E+02  0.98534320286E+02  0.00000000000E+00 0.  1.
         23    2    1    2    0    0  0.21787467841E+02  0.10706855989E+03  0.14704992597E+03  0.20472256704E+03  0.91374386202E+02 0.  0.
         23    2    1    2    0    0 -0.22923727717E+02 -0.85383976069E+02  0.21512991315E+03  0.24955088322E+03  0.90436956627E+02 0.  0.
        -11    1    3    3    0    0 -0.20147680160E+02  0.16140451256E+02  0.80384419512E+02  0.84428064545E+02  0.00000000000E+00 0. -1.
         11    1    3    3    0    0  0.41935148002E+02  0.90928108638E+02  0.66665506457E+02  0.12029450249E+03  0.00000000000E+00 0.  1.
        -13    1    4    4    0    0  0.23653192072E+02 -0.65468041198E+02  0.84729115286E+02  0.10965655881E+03  0.00000000000E+00 0.  1.
         13    1    4    4    0    0 -0.46576919789E+02 -0.19915934871E+02  0.13040079786E+03  0.13989432441E+03  0.00000000000E+00 0. -1.
         21    1    1    2  502  501  0.11362598760E+01 -0.21684583826E+02 -0.50241684137E+02  0.54733345294E+02  0.00000000000E+00 0.  1.
<scales pt_clust_5="13000.00000" pt_clust_6="13000.00000" pt_clust_7="13000.00000" pt_clust_8="13000.00000" pt_clust_9="21.71433"></scales>
<clustering>
<clus scale="   21.714">  2  9  1 -1</clus>
<clus scale="   90.437">  7  8 -1 -1</clus>
<clus scale="   91.374">  5  6 -1 -1</clus>
<clus scale="  132.005">  1  7  2 -1</clus>
<clus scale="  132.005">  1  5  2 -1</clus>
</clustering>
</event>
<event>
 9    1  0.1612788E-005  0.1298787E+03  0.7546771E-02  0.1230249E+00
         -1   -1    0    0    0  501 -0.00000000000E+00  0.00000000000E+00  0.95111527510E+02  0.95111527510E+02  0.00000000000E+00 0.  1.
          1   -1    0    0  502    0  0.00000000000E+00 -0.00000000000E+00 -0.39812037309E+03  0.39812037309E+03  0.00000000000E+00 0. -1.
         23    2    1    2    0    0 -0.56895462197E+02 -0.80627575174E-01  0.99757298637E+01  0.10815908198E+03  0.91442723655E+02 0.  0.
         23    2    1    2    0    0  0.83669644066E+02 -0.29889536415E+02 -0.31747253912E+03  0.34463509659E+03  0.10045169478E+03 0.  0.
        -11    1    3    3    0    0 -0.62037394651E+02 -0.23324797314E+02  0.33869584472E+02  0.74430056141E+02  0.00000000000E+00 0.  1.
         11    1    3    3    0    0  0.51419324538E+01  0.23244169738E+02 -0.23893854608E+02  0.33729025842E+02  0.00000000000E+00 0. -1.
        -11    1    4    4    0    0  0.25805545592E+02 -0.62509169415E+02 -0.15522352424E+03  0.16931528260E+03  0.00000000000E+00 0.  1.
         11    1    4    4    0    0  0.57864098474E+02  0.32619633000E+02 -0.16224901488E+03  0.17531981400E+03  0.00000000000E+00 0. -1.
         21    1    1    2  502  501 -0.26774181869E+02  0.29970163990E+02  0.44879636784E+01  0.40437722022E+02  0.00000000000E+00 0. -1.
<scales pt_clust_5="13000.00000" pt_clust_6="13000.00000" pt_clust_7="13000.00000" pt_clust_8="13000.00000" pt_clust_9="40.18790"></scales>
<clustering>
<clus scale="   40.188">  1  9  2 -1</clus>
<clus scale="   91.443">  5  6 -1 -1</clus>
<clus scale="  100.452">  7  8 -1 -1</clus>
<clus scale="  123.043">  1  5  2 -1</clus>
<clus scale="  129.879">  2  5  1 -1</clus>
</clustering>
</event>
<event>
 9    1  0.1612788E-005  0.9184798E+02  0.7546771E-02  0.1299743E+00
         -1   -1    0    0    0  501 -0.00000000000E+00  0.00000000000E+00  0.23415947308E+03  0.23415947308E+03  0.00000000000E+00 0.  1.
          1   -1    0    0  502    0  0.00000000000E+00 -0.00000000000E+00 -0.28055196252E+03  0.28055196252E+03  0.00000000000E+00 0. -1.
         23    2    1    2    0    0 -0.29264410852E+02 -0.29872503049E+02  0.16627642976E+03  0.19323296181E+03  0.89119886981E+02 0.  0.
         23    2    1    2    0    0  0.64303420218E+01  0.54179373568E+01 -0.25298138642E+03  0.26909035018E+03  0.91319939454E+02 0.  0.
        -11    1    4    4    0    0  0.14367959327E+02  0.43887167004E+02 -0.18403062759E+03  0.18973611563E+03  0.00000000000E+00 0. -1.
         11    1    4    4    0    0 -0.79376173053E+01 -0.38469229647E+02 -0.68950758833E+02  0.79354234555E+02  0.00000000000E+00 0.  1.
        -13    1    3    3    0    0  0.15683005562E+02 -0.40659176593E+02  0.12066940447E+03  0.12829742975E+03  0.00000000000E+00 0.  1.
         13    1    3    3    0    0 -0.44947416414E+02  0.10786673544E+02  0.45607025286E+02  0.64935532059E+02  0.00000000000E+00 0. -1.
         21    1    1    2  502  501  0.22834068830E+02  0.24454565692E+02  0.40312467223E+02  0.52388123617E+02  0.00000000000E+00 0.  1.
<scales pt_clust_5="13000.00000" pt_clust_6="13000.00000" pt_clust_7="13000.00000" pt_clust_8="13000.00000" pt_clust_9="33.45774"></scales>
<clustering>
<clus scale="   33.458">  1  9  2 -1</clus>
<clus scale="   89.120">  7  8 -1 -1</clus>
<clus scale="   89.661">  1  7  2 -1</clus>
<clus scale="   91.320">  5  6 -1 -1</clus>
<clus scale="   91.848">  2  5  1 -1</clus>
</clustering>
</event>
<event>
 9    1  0.1612788E-005  0.9636994E+02  0.7546771E-02  0.1288503E+00
          2   -1    0    0  502    0  0.00000000000E+00  0.00000000000E+00  0.29919873990E+02  0.29919873990E+02  0.00000000000E+00 0. -1.
         -2   -1    0    0    0  501 -0.00000000000E+00 -0.00000000000E+00 -0.93437222578E+03  0.93437222578E+03  0.00000000000E+00 0.  1.
         23    2    1    2    0    0 -0.50323532413E+02  0.48671138626E+02 -0.33931451394E+03  0.35769375433E+03  0.88933373182E+02 0.  0.
         23    2    1    2    0    0 -0.18695088463E+02 -0.30305352422E+02 -0.11184215894E+03  0.14771072887E+03  0.89676475104E+02 0.  0.
        -11    1    3    3    0    0  0.25368637860E+02  0.19663916732E+02 -0.92819085241E+02  0.98212117344E+02  0.00000000000E+00 0.  1.
         11    1    3    3    0    0 -0.75692170274E+02  0.29007221894E+02 -0.24649542870E+03  0.25948163698E+03  0.00000000000E+00 0. -1.
        -13    1    4    4    0    0  0.18007111354E+02 -0.50775622494E+02 -0.70828677695E+02  0.88989445908E+02  0.00000000000E+00 0. -1.
         13    1    4    4    0    0 -0.36702199818E+02  0.20470270071E+02 -0.41013481247E+02  0.58721282958E+02  0.00000000000E+00 0.  1.
         21    1    1    2  502  501  0.69018620877E+02 -0.18365786203E+02 -0.45329567891E+03  0.45888761658E+03  0.00000000000E+00 0.  1.
<scales pt_clust_5="13000.00000" pt_clust_6="13000.00000" pt_clust_7="13000.00000" pt_clust_8="13000.00000" pt_clust_9="71.42039"></scales>
<clustering>
<clus scale="   71.420">  2  9  1 -1</clus>
<clus scale="   88.933">  5  6 -1 -1</clus>
<clus scale="   89.676">  7  8 -1 -1</clus>
<clus scale="   95.679">  2  5  1 -1</clus>
<clus scale="   96.370">  1  5  2 -1</clus>
</clustering>
</event>
<event>
 9    1  0.1612788E-005  0.9707093E+02  0.7546771E-02  0.1286931E+00
         -2   -1    0    0    0  501 -0.00000000000E+00  0.00000000000E+00  0.85907567184E+02  0.85907567184E+02  0.00000000000E+00 0.  1.
          2   -1    0    0  502    0  0.00000000000E+00 -0.00000000000E+00 -0.15912203258E+03  0.15912203258E+03  0.00000000000E+00 0. -1.
         23    2    1    2    0    0 -0.18458516930E+02  0.13972279964E+02 -0.32019704534E+02  0.99299830729E+02  0.91100238472E+02 0.  0.
         23    2    1    2    0    0  0.43740000481E+02 -0.68989872673E+01 -0.56393741110E+02  0.11539507140E+03  0.90415622536E+02 0.  0.
        -11    1    4    4    0    0  0.47011134190E+02 -0.39839302874E+02 -0.54456987348E+02  0.82236125044E+02  0.00000000000E+00 0.  1.
         11    1    4    4    0    0 -0.32711337088E+01  0.32940315606E+02 -0.19367537624E+01  0.33158946351E+02  0.00000000000E+00 0. -1.
        -13    1    3    3    0    0 -0.47905652187E+02 -0.11084201558E+02 -0.11514601561E+00  0.49171376778E+02  0.00000000000E+00 0.  1.
         13    1    3    3    0    0  0.29447135258E+02  0.25056481523E+02 -0.31904558519E+02  0.50128453950E+02  0.00000000000E+00 0. -1.
         21    1    1    2  502  501 -0.25281483552E+02 -0.70732926970E+01  0.15198980251E+02  0.30334697638E+02  0.00000000000E+00 0.  1.
<scales pt_clust_5="13000.00000" pt_clust_6="13000.00000" pt_clust_7="13000.00000" pt_clust_8="13000.00000" pt_clust_9="26.25233"></scales>
<clustering>
<clus scale="   26.252">  1  9  2 -1</clus>
<clus scale="   90.416">  5  6 -1 -1</clus>
<clus scale="   91.100">  7  8 -1 -1</clus>
<clus scale="   96.429">  2  5  1 -1</clus>
<clus scale="   96.429">  2  5  1 -1</clus>
</clustering>
</event>
<event>
 9    1  0.1612788E-005  0.1063831E+03  0.7546771E-02  0.1270489E+00
         -1   -1    0    0    0  501 -0.00000000000E+00  0.00000000000E+00  0.47295652864E+03  0.47295652864E+03  0.00000000000E+00 0.  1.
          1   -1    0    0  502    0  0.00000000000E+00 -0.00000000000E+00 -0.36095298865E+02  0.36095298865E+02  0.00000000000E+00 0. -1.
         23    2    1    2    0    0  0.48030793720E+02  0.88718434251E+01  0.14798826380E+03  0.18132794115E+03  0.92701829913E+02 0.  0.
         23    2    1    2    0    0 -0.27573143167E+02  0.20534082547E+02  0.14268910190E+03  0.17721492959E+03  0.99312762019E+02 0.  0.
        -11    1    3    3    0    0  0.93354344728E+00  0.43957541551E+02  0.81594690722E+02  0.92686733229E+02  0.00000000000E+00 0. -1.
         11    1    3    3    0    0  0.47097250273E+02 -0.35085698126E+02  0.66393573074E+02  0.88641207922E+02  0.00000000000E+00 0.  1.
        -13    1    4    4    0    0  0.25545201575E+02  0.39858453128E+02  0.78642684513E+02  0.91792839789E+02  0.00000000000E+00 0.  1.
         13    1    4    4    0    0 -0.53118344742E+02 -0.19324370581E+02  0.64046417388E+02  0.85422089805E+02  0.00000000000E+00 0. -1.
         21    1    1    2  502  501 -0.20457650553E+02 -0.29405925972E+02  0.14618386408E+03  0.15050895676E+03  0.00000000000E+00 0. -1.
<scales pt_clust_5="13000.00000" pt_clust_6="13000.00000" pt_clust_7="13000.00000" pt_clust_8="13000.00000" pt_clust_9="35.82212"></scales>
<clustering>
<clus scale="   35.822">  1  9  2 -1</clus>
<clus scale="   92.702">  5  6 -1 -1</clus>
<clus scale="   99.313">  7  8 -1 -1</clus>
<clus scale="  100.240">  1  5  2 -1</clus>
<clus scale="  106.383">  2  5  1 -1</clus>
</clustering>
</event>
<event>
 9    1  0.1612788E-005  0.1243104E+03  0.7546771E-02  0.1236187E+00
         -1   -1    0    0    0  501 -0.00000000000E+00  0.00000000000E+00  0.70343192086E+02  0.70343192086E+02  0.00000000000E+00 0.  1.
          1   -1    0    0  502    0  0.00000000000E+00 -0.00000000000E+00 -0.31318619189E+03  0.31318619189E+03  0.00000000000E+00 0. -1.
         23    2    1    2    0    0  0.63300646942E+02  0.38674141229E+02 -0.10687054922E+03  0.15843881144E+03  0.90437169223E+02 0.  0.
         23    2    1    2    0    0 -0.80639963318E+02 -0.51629537129E+02 -0.14970779929E+03  0.19945555782E+03  0.90563135935E+02 0.  0.
        -13    1    4    4    0    0 -0.14600693061E+02 -0.28623362898E+02 -0.11867370111E+03  0.12294683597E+03  0.00000000000E+00 0.  1.
         13    1    4    4    0    0 -0.66039270257E+02 -0.23006174231E+02 -0.31034098178E+02  0.76508721846E+02  0.00000000000E+00 0. -1.
        -13    1    3    3    0    0  0.64978463835E+02  0.17689997630E+02 -0.11706193720E+03  0.13505048656E+03  0.00000000000E+00 0. -1.
         13    1    3    3    0    0 -0.16778168928E+01  0.20984143599E+02  0.10191387976E+02  0.23388324887E+02  0.00000000000E+00 0.  1.
         21    1    1    2  502  501  0.17339316376E+02  0.12955395900E+02  0.13735348705E+02  0.25635014713E+02  0.00000000000E+00 0.  1.
<scales pt_clust_5="13000.00000" pt_clust_6="13000.00000" pt_clust_7="13000.00000" pt_clust_8="13000.00000" pt_clust_9="21.64473"></scales>
<clustering>
<clus scale="   21.645">  1  9  2 -1</clus>
<clus scale="   90.437">  7  8 -1 -1</clus>
<clus scale="   90.563">  5  6 -1 -1</clus>
<clus scale="  124.219">  1  7  2 -1</clus>
<clus scale="  124.310">  2  5  1 -1</clus>
</clustering>
</event>
<event>
 9    1  0.1612788E-005  0.9976544E+02  0.7546771E-02  0.1282250E+00
          3   -1    0    0  502    0  0.00000000000E+00  0.00000000000E+00  0.27431827546E+03  0.27431827546E+03  0.00000000000E+00 0. -1.
         -3   -1    0    0    0  501 -0.00000000000E+00 -0.00000000000E+00 -0.11953509435E+03  0.11953509435E+03  0.00000000000E+00 0.  1.
         23    2    1    2    0    0 -0.21626795678E+02 -0.50263270643E+02 -0.13100724962E+02  0.11016256588E+03  0.94710333434E+02 0.  0.
         23    2    1    2    0    0  0.25522496511E+02 -0.34921510400E+02  0.17044011820E+03  0.19837868506E+03  0.91833322279E+02 0.  0.
        -11    1    4    4    0    0  0.53239516261E+02 -0.22696715557E+02  0.15263778102E+03  0.16324178136E+03  0.00000000000E+00 0. -1.
         11    1    4    4    0    0 -0.27717019749E+02 -0.12224794843E+02  0.17802337178E+02  0.35136903701E+02  0.00000000000E+00 0.  1.
        -13    1    3    3    0    0 -0.19645705025E+02 -0.16745186793E+02 -0.52435960328E+02  0.58445572477E+02  0.00000000000E+00 0.  1.
         13    1    3    3    0    0 -0.19810906530E+01 -0.33518083850E+02  0.39335235366E+02  0.51716993401E+02  0.00000000000E+00 0. -1.
         21    1    1    2  502  501 -0.38957008331E+01  0.85184781043E+02 -0.25562121261E+01  0.85312118874E+02  0.00000000000E+00 0.  1.
<scales pt_clust_5="13000.00000" pt_clust_6="13000.00000" pt_clust_7="13000.00000" pt_clust_8="13000.00000" pt_clust_9="85.27381"></scales>
<clustering>
<clus scale="   85.274">  2  9  1 -1</clus>
<clus scale="   91.833">  5  6 -1 -1</clus>
<clus scale="   94.710">  7  8 -1 -1</clus>
<clus scale="   97.038">  1  5  2 -1</clus>
<clus scale="   97.038">  1  5  2 -1</clus>
</clustering>
</event>
<event>
 9    1  0.1612788E-005  0.1027977E+03  0.7546771E-02  0.1274796E+00
         -2   -1    0    0    0  501 -0.00000000000E+00  0.00000000000E+00  0.11122274087E+03  0.11122274087E+03  0.00000000000E+00 0.  1.
          2   -1    0    0  502    0  0.00000000000E+00 -0.00000000000E+00 -0.33310676522E+03  0.33310676522E+03  0.00000000000E+00 0. -1.
         23    2    1    2    0    0 -0.14276141506E+02 -0.47123252657E+02 -0.66671370167E+02  0.12508701650E+03  0.93687143943E+02 0.  0.
         23    2    1    2    0    0 -0.94178754084E+01  0.38492948069E+02 -0.22385788166E+03  0.24611208654E+03  0.94278335441E+02 0.  0.
        -11    1    3    3    0    0  0.28624222768E+02 -0.26523727695E+02  0.46985700138E+01  0.39305607998E+02  0.00000000000E+00 0.  1.
         11    1    3    3    0    0 -0.42900364275E+02 -0.20599524962E+02 -0.71369940180E+02  0.85781408504E+02  0.00000000000E+00 0. -1.
        -11    1    4    4    0    0 -0.36978960803E+02 -0.91436296120E+01 -0.14519268503E+03  0.15010651316E+03  0.00000000000E+00 0. -1.
         11    1    4    4    0    0  0.27561085395E+02  0.47636577681E+02 -0.78665196626E+02  0.96005573388E+02  0.00000000000E+00 0.  1.
         21    1    1    2  502  501  0.23694016915E+02  0.86303045876E+01  0.68645227472E+02  0.73130403045E+02  0.00000000000E+00 0.  1.
<scales pt_clust_5="13000.00000" pt_clust_6="13000.00000" pt_clust_7="13000.00000" pt_clust_8="13000.00000" pt_clust_9="25.21683"></scales>
<clustering>
<clus scale="   25.217">  1  9  2 -1</clus>
<clus scale="   93.687">  5  6 -1 -1</clus>
<clus scale="   94.278">  7  8 -1 -1</clus>
<clus scale="  102.256">  1  5  2 -1</clus>
<clus scale="  102.798">  2  5  1 -1</clus>
</clustering>
</event>
<event>
 9    1  0.1612788E-005  0.9994785E+02  0.7546771E-02  0.1281678E+00
          2   -1    0    0  502    0  0.00000000000E+00  0.00000000000E+00  0.30541500371E+03  0.30541500371E+03  0.00000000000E+00 0. -1.
         -2   -1    0    0    0  501 -0.00000000000E+00 -0.00000000000E+00 -0.59236346067E+02  0.59236346067E+02  0.00000000000E+00 0.  1.
         23    2    1    2    0    0 -0.31386156231E+02  0.68885982662E+01  0.62565435789E+02  0.11692388627E+03  0.93403521543E+02 0.  0.
         23    2    1    2    0    0  0.80393626499E+01 -0.58001923099E+02  0.10180062712E+03  0.14847553454E+03  0.90844714982E+02 0.  0.
        -13    1    4    4    0    0  0.39914315073E+01  0.24560155881E+02  0.17573585857E+02  0.30462496652E+02  0.00000000000E+00 0. -1.
         13    1    4    4    0    0  0.40479311425E+01 -0.82562078980E+02  0.84227041267E+02  0.11801303789E+03  0.00000000000E+00 0.  1.
        -13    1    3    3    0    0  0.10945856208E+02  0.31751924928E+02  0.58762366362E+02  0.67683175201E+02  0.00000000000E+00 0. -1.
         13    1    3    3    0    0 -0.42332012439E+02 -0.24863326662E+02  0.38030694266E+01  0.49240711072E+02  0.00000000000E+00 0.  1.
         21    1    1    2  502  501  0.23346793581E+02  0.51113324833E+02  0.81812594730E+02  0.99251928961E+02  0.00000000000E+00 0. -1.
<scales pt_clust_5="13000.00000" pt_clust_6="13000.00000" pt_clust_7="13000.00000" pt_clust_8="13000.00000" pt_clust_9="56.19292"></scales>
<clustering>
<clus scale="   56.193">  1  9  2 -1</clus>
<clus scale="   90.845">  5  6 -1 -1</clus>
<clus scale="   93.404">  7  8 -1 -1</clus>
<clus scale="   97.561">  1  5  2 -1</clus>
<clus scale="   56.193">  1  5  2 -1</clus>
</clustering>
</event>
<event>
 9    1  0.1612788E-005  0.1021152E+03  0.7546771E-02  0.1277822E+00
          1   -1    0    0  502    0  0.00000000000E+00  0.00000000000E+00  0.73341467116E+02  0.73341467116E+02  0.00000000000E+00 0. -1.
         -1   -1    0    0    0  501 -0.00000000000E+00 -0.00000000000E+00 -0.21556225947E+03  0.21556225947E+03  0.00000000000E+00 0.  1.
         23    2    1    2    0    0  0.18621377662E+02 -0.52790092151E+02 -0.72032498520E+02  0.12893080596E+03  0.91109397684E+02 0.  0.
         23    2    1    2    0    0 -0.19146332306E+02  0.19455043413E+02 -0.21906739478E+02  0.10129916548E+03  0.95060690815E+02 0.  0.
        -11    1    3    3    0    0  0.31688716985E+02  0.93738841755E+01 -0.20885584425E+00  0.33046756413E+02  0.00000000000E+00 0. -1.
         11    1    3    3    0    0 -0.13067339323E+02 -0.62163976326E+02 -0.71823642676E+02  0.95884049544E+02  0.00000000000E+00 0.  1.
        -13    1    4    4    0    0 -0.88998431347E+01 -0.38763548319E+02 -0.79031884492E+01  0.40549725940E+02  0.00000000000E+00 0.  1.
         13    1    4    4    0    0 -0.10246489172E+02  0.58218591732E+02 -0.14003551028E+02  0.60749439545E+02  0.00000000000E+00 0. -1.
         21    1    1    2  502  501  0.52495464471E+00  0.33335048738E+02 -0.48281554360E+02  0.58673755148E+02  0.00000000000E+00 0. -1.
<scales pt_clust_5="13000.00000" pt_clust_6="13000.00000" pt_clust_7="13000.00000" pt_clust_8="13000.00000" pt_clust_9="33.33918"></scales>
<clustering>
<clus scale="   33.339">  2  9  1 -1</clus>
<clus scale="   91.109">  5  6 -1 -1</clus>
<clus scale="   95.061">  7  8 -1 -1</clus>
<clus scale="   98.447">  2  5  1 -1</clus>
<clus scale="  102.115">  1  5  2 -1</clus>
</clustering>
</event>
<event>
 9    1  0.1612788E-005  0.1635097E+03  0.7546771E-02  0.1185354E+00
         -3   -1    0    0    0  501 -0.00000000000E+00  0.00000000000E+00  0.48240261530E+03  0.48240261530E+03  0.00000000000E+00 0.  1.
          3   -1    0    0  502    0  0.00000000000E+00 -0.00000000000E+00 -0.16399236550E+03  0.16399236550E+03  0.00000000000E+00 0. -1.
         23    2    1    2    0    0  0.10342074663E+02 -0.16844536873E+03  0.31951410637E+03  0.37173895115E+03  0.87291367741E+02 0.  0.
         23    2    1    2    0    0 -0.34245813077E+02  0.12707708813E+03 -0.82685421244E+02  0.18011357862E+03  0.91009121944E+02 0.  0.
        -11    1    4    4    0    0 -0.22351725040E+02  0.48589372687E+02  0.13734525782E+02  0.55219235316E+02  0.00000000000E+00 0.  1.
         11    1    4    4    0    0 -0.11894088037E+02  0.78487715441E+02 -0.96419947025E+02  0.12489434331E+03  0.00000000000E+00 0. -1.
        -11    1    3    3    0    0  0.37176267605E+02 -0.56700837288E+02  0.72294502691E+02  0.99113848384E+02  0.00000000000E+00 0. -1.
         11    1    3    3    0    0 -0.26834192942E+02 -0.11174453144E+03  0.24721960368E+03  0.27262510277E+03  0.00000000000E+00 0.  1.
         21    1    1    2  502  501  0.23903738414E+02  0.41368280598E+02  0.81581564677E+02  0.94542451020E+02  0.00000000000E+00 0. -1.
<scales pt_clust_5="13000.00000" pt_clust_6="13000.00000" pt_clust_7="13000.00000" pt_clust_8="13000.00000" pt_clust_9="47.77785"></scales>
<clustering>
<clus scale="   47.778">  1  9  2 -1</clus>
<clus scale="   87.291">  7  8 -1 -1</clus>
<clus scale="   91.009">  5  6 -1 -1</clus>
<clus scale="  161.470">  1  7  2 -1</clus>
<clus scale="  163.510">  2  5  1 -1</clus>
</clustering>
</event>
<event>
 9    1  0.1612788E-005  0.9932836E+02  0.7546771E-02  0.1285584E+00
         -1   -1    0    0    0  501 -0.00000000000E+00  0.00000000000E+00  0.96014724147E+02  0.96014724147E+02  0.00000000000E+00 0.  1.
          1   -1    0    0  502    0  0.00000000000E+00 -0.00000000000E+00 -0.21478701672E+03  0.21478701672E+03  0.00000000000E+00 0. -1.
         23    2    1    2    0    0  0.33317353238E+02  0.17030908052E+02  0.22587667167E+02  0.10193286894E+03  0.92086965458E+02 0.  0.
         23    2    1    2    0    0  0.65557911592E+00  0.23308649425E+01 -0.13758247065E+03  0.16958391539E+03  0.99115616400E+02 0.  0.
        -11    1    4    4    0    0  0.28917469406E+02 -0.63017885701E+01 -0.13686064946E+03  0.14002417630E+03  0.00000000000E+00 0. -1.
         11    1    4    4    0    0 -0.28261890290E+02  0.86326535125E+01 -0.72182118311E+00  0.29559739093E+02  0.00000000000E+00 0.  1.
        -13    1    3    3    0    0  0.59796996530E+02 -0.65830778792E+01  0.27444090091E+02  0.66122581538E+02  0.00000000000E+00 0.  1.
         13    1    3    3    0    0 -0.26479643292E+02  0.23613985931E+02 -0.48564229247E+01  0.35810287405E+02  0.00000000000E+00 0. -1.
         21    1    1    2  502  501 -0.33972932353E+02 -0.19361772995E+02 -0.37774890951E+01  0.39284956536E+02  0.00000000000E+00 0.  1.
<scales pt_clust_5="13000.00000" pt_clust_6="13000.00000" pt_clust_7="13000.00000" pt_clust_8="13000.00000" pt_clust_9="39.10292"></scales>
<clustering>
<clus scale="   39.103">  1  9  2 -1</clus>
<clus scale="   92.087">  7  8 -1 -1</clus>
<clus scale="   92.316">  1  7  2 -1</clus>
<clus scale="   99.116">  5  6 -1 -1</clus>
<clus scale="   99.328">  2  5  1 -1</clus>
</clustering>
</event>
<event>
 9    1  0.1612788E-005  0.1077030E+03  0.7546771E-02  0.1266216E+00
          1   -1    0    0  502    0  0.00000000000E+00  0.00000000000E+00  0.64708652926E+03  0.64708652926E+03  0.00000000000E+00 0. -1.
         -1   -1    0    0    0  501 -0.00000000000E+00 -0.00000000000E+00 -0.30324903797E+02  0.30324903797E+02  0.00000000000E+00 0.  1.
         23    2    1    2    0    0 -0.50107608012E+02 -0.69801427896E+01  0.11970720568E+03  0.15777097193E+03  0.89455965246E+02 0.  0.
         23    2    1    2    0    0  0.49460791552E+02  0.28709556603E+02  0.47946406501E+03  0.49167608419E+03  0.92676715467E+02 0.  0.
        -13    1    3    3    0    0 -0.49768212659E+02 -0.43587306641E+02  0.77832315075E+02  0.10214987793E+03  0.00000000000E+00 0.  1.
         13    1    3    3    0    0 -0.33939535280E+00  0.36607163851E+02  0.41874890600E+02  0.55621093995E+02  0.00000000000E+00 0. -1.
        -13    1    4    4    0    0 -0.12709099441E+02 -0.18919034136E+02  0.47684526133E+02  0.52851349026E+02  0.00000000000E+00 0.  1.
         13    1    4    4    0    0  0.62169890993E+02  0.47628590739E+02  0.43177953888E+03  0.43882473517E+03  0.00000000000E+00 0. -1.
         21    1    1    2  502  501  0.64681645965E+00 -0.21729413813E+02  0.17590354772E+02  0.27964376932E+02  0.00000000000E+00 0. -1.
<scales pt_clust_5="13000.00000" pt_clust_6="13000.00000" pt_clust_7="13000.00000" pt_clust_8="13000.00000" pt_clust_9="21.73904"></scales>
<clustering>
<clus scale="   21.739">  2  9  1 -1</clus>
<clus scale="   89.456">  5  6 -1 -1</clus>
<clus scale="   92.677">  7  8 -1 -1</clus>
<clus scale="  104.944">  2  5  1 -1</clus>
<clus scale="  107.703">  1  5  2 -1</clus>
</clustering>
</event>
<event>
 9    1  0.1612788E-005  0.1165774E+03  0.7546771E-02  0.1248872E+00
         -1   -1    0    0    0  501 -0.00000000000E+00  0.00000000000E+00  0.61213153229E+02  0.61213153229E+02  0.00000000000E+00 0.  1.
          1   -1    0    0  502    0  0.00000000000E+00 -0.00000000000E+00 -0.31319841247E+03  0.31319841247E+03  0.00000000000E+00 0. -1.
         23    2    1    2    0    0 -0.31758644922E+02 -0.50443285174E+02 -0.63302462591E+02  0.12674120964E+03  0.92211690709E+02 0.  0.
         23    2    1    2    0    0  0.65547162145E+02  0.46907440815E+02 -0.16806622166E+03  0.20793109014E+03  0.92153919708E+02 0.  0.
        -13    1    4    4    0    0  0.39653518589E+01  0.53889789523E+02 -0.45718732637E+02  0.70781607386E+02  0.00000000000E+00 0.  1.
         13    1    4    4    0    0  0.61581810286E+02 -0.69823487074E+01 -0.12234748902E+03  0.13714948276E+03  0.00000000000E+00 0. -1.
        -13    1    3    3    0    0  0.22070032053E+02  0.13033298975E+02 -0.81391747556E+01  0.26892366253E+02  0.00000000000E+00 0. -1.
         13    1    3    3    0    0 -0.53828676975E+02 -0.63476584149E+02 -0.55163287836E+02  0.99848843383E+02  0.00000000000E+00 0.  1.
         21    1    1    2  502  501 -0.33788517223E+02  0.35358443583E+01 -0.20616574998E+02  0.39739265923E+02  0.00000000000E+00 0.  1.
<scales pt_clust_5="13000.00000" pt_clust_6="13000.00000" pt_clust_7="13000.00000" pt_clust_8="13000.00000" pt_clust_9="33.97302"></scales>
<clustering>
<clus scale="   33.973">  1  9  2 -1</clus>
<clus scale="   92.154">  5  6 -1 -1</clus>
<clus scale="   92.212">  7  8 -1 -1</clus>
<clus scale="  116.532">  2  5  1 -1</clus>
<clus scale="  116.532">  2  5  1 -1</clus>
</clustering>
</event>
<event>
 9    1  0.1612788E-005  0.1217017E+03  0.7546771E-02  0.1240529E+00
          1   -1    0    0  502    0  0.00000000000E+00  0.00000000000E+00  0.12955458498E+04  0.12955458498E+04  0.00000000000E+00 0. -1.
         -1   -1    0    0    0  501 -0.00000000000E+00 -0.00000000000E+00 -0.22948381358E+02  0.22948381358E+02  0.00000000000E+00 0.  1.
         23    2    1    2    0    0 -0.35376745655E+02 -0.62312354742E+02  0.28566754023E+03  0.30825060768E+03  0.90984338798E+02 0.  0.
         23    2    1    2    0    0  0.10316655377E+03  0.42952390853E+02  0.62316869730E+03  0.63971359851E+03  0.91684334166E+02 0.  0.
        -13    1    3    3    0    0  0.25198327637E+02 -0.12927491558E+02  0.31599968011E+02  0.42433874816E+02  0.00000000000E+00 0.  1.
         13    1    3    3    0    0 -0.60575073292E+02 -0.49384863184E+02  0.25406757222E+03  0.26581673286E+03  0.00000000000E+00 0. -1.
        -13    1    4    4    0    0  0.47774172942E+02 -0.17528725584E+02  0.12706306334E+03  0.13687457721E+03  0.00000000000E+00 0.  1.
         13    1    4    4    0    0  0.55392380829E+02  0.60481116437E+02  0.49610563396E+03  0.50283902130E+03  0.00000000000E+00 0. -1.
         21    1    1    2  502  501 -0.67789808115E+02  0.19359963889E+02  0.36376123088E+03  0.37053002493E+03  0.00000000000E+00 0.  1.
<scales pt_clust_5="13000.00000" pt_clust_6="13000.00000" pt_clust_7="13000.00000" pt_clust_8="13000.00000" pt_clust_9="70.50012"></scales>
<clustering>
<clus scale="   70.500">  1  9  2 -1</clus>
<clus scale="   90.984">  5  6 -1 -1</clus>
<clus scale="   91.684">  7  8 -1 -1</clus>
<clus scale="  121.175">  2  5  1 -1</clus>
<clus scale="   70.500">  1  5  2 -1</clus>
</clustering>
</event>
<event>
 9    1  0.1612788E-005  0.1286102E+03  0.7546771E-02  0.1230789E+00
         -1   -1    0    0    0  501 -0.00000000000E+00  0.00000000000E+00  0.13130000888E+03  0.13130000888E+03  0.00000000000E+00 0.  1.
          1   -1    0    0  502    0  0.00000000000E+00 -0.00000000000E+00 -0.20442958892E+03  0.20442958892E+03  0.00000000000E+00 0. -1.
         23    2    1    2    0    0 -0.79229846433E+02 -0.20231132137E+01  0.40341562172E+02  0.12715100080E+03  0.90876145454E+02 0.  0.
         23    2    1    2    0    0  0.10817559011E+03  0.10223486727E+02 -0.98793603166E+02  0.17510424331E+03  0.95366881161E+02 0.  0.
        -13    1    3    3    0    0 -0.95318341426E+02 -0.18775609700E+02  0.29588804468E+02  0.10155593081E+03  0.00000000000E+00 0.  1.
         13    1    3    3    0    0  0.16088494993E+02  0.16752496487E+02  0.10752757704E+02  0.25595069993E+02  0.00000000000E+00 0. -1.
        -13    1    4    4    0    0  0.80372050322E+02  0.44193791803E+02 -0.36099365251E+02  0.98569375966E+02  0.00000000000E+00 0.  1.
         13    1    4    4    0    0  0.27803539787E+02 -0.33970305075E+02 -0.62694237915E+02  0.76534867344E+02  0.00000000000E+00 0. -1.
         21    1    1    2  502  501 -0.28945743676E+02 -0.82003735137E+01 -0.14677539042E+02  0.33474353691E+02  0.00000000000E+00 0.  1.
<scales pt_clust_5="13000.00000" pt_clust_6="13000.00000" pt_clust_7="13000.00000" pt_clust_8="13000.00000" pt_clust_9="30.08492"></scales>
<clustering>
<clus scale="   30.085">  2  9  1 -1</clus>
<clus scale="   90.876">  5  6 -1 -1</clus>
<clus scale="   95.367">  7  8 -1 -1</clus>
<clus scale="  125.316">  1  5  2 -1</clus>
<clus scale="   30.085">  2  5  1 -1</clus>
</clustering>
</event>
<event>
 9    1  0.1612788E-005  0.1170753E+03  0.7546771E-02  0.1248305E+00
          1   -1    0    0  502    0  0.00000000000E+00  0.00000000000E+00  0.52929568318E+03  0.52929568318E+03  0.00000000000E+00 0. -1.
         -1   -1    0    0    0  501 -0.00000000000E+00 -0.00000000000E+00 -0.62258613710E+02  0.62258613710E+02  0.00000000000E+00 0.  1.
         23    2    1    2    0    0 -0.21048924476E+02  0.63833905318E+02  0.17752243171E+02  0.11460959662E+03  0.91117467092E+02 0.  0.
         23    2    1    2    0    0  0.47272565894E+02 -0.56825789781E+02  0.42300132066E+03  0.43916089790E+03  0.92023426905E+02 0.  0.
        -11    1    3    3    0    0  0.11903067128E+01  0.44671730963E+02  0.52616423456E+02  0.69032372077E+02  0.00000000000E+00 0. -1.
         11    1    3    3    0    0 -0.22239231189E+02  0.19162174356E+02 -0.34864180284E+02  0.45577224540E+02  0.00000000000E+00 0.  1.
        -13    1    4    4    0    0 -0.21088838700E+02 -0.40158118527E+02  0.20983762505E+03  0.21468405271E+03  0.00000000000E+00 0. -1.
         13    1    4    4    0    0  0.68361404594E+02 -0.16667671254E+02  0.21316369561E+03  0.22447684519E+03  0.00000000000E+00 0.  1.
         21    1    1    2  502  501 -0.26223641418E+02 -0.70081155372E+01  0.26283505637E+02  0.37783802365E+02  0.00000000000E+00 0.  1.
<scales pt_clust_5="13000.00000" pt_clust_6="13000.00000" pt_clust_7="13000.00000" pt_clust_8="13000.00000" pt_clust_9="27.14393"></scales>
<clustering>
<clus scale="   27.144">  2  9  1 -1</clus>
<clus scale="   91.117">  5  6 -1 -1</clus>
<clus scale="   92.023">  7  8 -1 -1</clus>
<clus scale="  116.365">  2  5  1 -1</clus>
<clus scale="  117.075">  1  5  2 -1</clus>
</clustering>
</event>
<event>
 9    1  0.1612788E-005  0.1154892E+03  0.7546771E-02  0.1251257E+00
          2   -1    0    0  502    0  0.00000000000E+00  0.00000000000E+00  0.35977870084E+03  0.35977870084E+03  0.00000000000E+00 0. -1.
         -2   -1    0    0    0  501 -0.00000000000E+00 -0.00000000000E+00 -0.32157318355E+03  0.32157318355E+03  0.00000000000E+00 0.  1.
         23    2    1    2    0    0  0.23237897368E+02 -0.48845576999E+02 -0.15627007362E+02  0.10674786182E+03  0.90691853976E+02 0.  0.
         23    2    1    2    0    0  0.34764273861E+02  0.67625755846E+02  0.29898268630E+03  0.32198662662E+03  0.92211406165E+02 0.  0.
        -11    1    3    3    0    0  0.24638812404E+02  0.11106054766E+01  0.30165480142E+02  0.38964865115E+02  0.00000000000E+00 0. -1.
         11    1    3    3    0    0 -0.14009150361E+01 -0.49956182475E+02 -0.45792487504E+02  0.67782996705E+02  0.00000000000E+00 0.  1.
        -11    1    4    4    0    0  0.41971745667E+02  0.36275789681E+02  0.27822733580E+03  0.28370409010E+03  0.00000000000E+00 0. -1.
         11    1    4    4    0    0 -0.72074718062E+01  0.31349966165E+02  0.20755350492E+02  0.38282536520E+02  0.00000000000E+00 0.  1.
         21    1    1    2  502  501 -0.58002171229E+02 -0.18780178847E+02 -0.24515016165E+03  0.25261739596E+03  0.00000000000E+00 0.  1.
<scales pt_clust_5="13000.00000" pt_clust_6="13000.00000" pt_clust_7="13000.00000" pt_clust_8="13000.00000" pt_clust_9="60.96677"></scales>
<clustering>
<clus scale="   60.967">  2  9  1 -1</clus>
<clus scale="   90.692">  5  6 -1 -1</clus>
<clus scale="   92.211">  7  8 -1 -1</clus>
<clus scale="  114.280">  2  5  1 -1</clus>
<clus scale="  115.489">  1  5  2 -1</clus>
</clustering>
</event>
<event>
 9    1  0.1612788E-005  0.1872454E+03  0.7546771E-02  0.1161314E+00
         -3   -1    0    0    0  501 -0.00000000000E+00  0.00000000000E+00  0.49478765071E+03  0.49478765071E+03  0.00000000000E+00 0.  1.
          3   -1    0    0  502    0  0.00000000000E+00 -0.00000000000E+00 -0.14982449692E+03  0.14982449692E+03  0.00000000000E+00 0. -1.
         23    2    1    2    0    0  0.65489839859E+02 -0.11209068962E+03  0.30758111552E+03  0.34716846909E+03  0.95218493414E+02 0.  0.
         23    2    1    2    0    0 -0.98736093482E+02  0.13640576247E+03 -0.52090614391E+02  0.19894549721E+03  0.92252536896E+02 0.  0.
        -11    1    4    4    0    0 -0.57640704538E+01  0.81950476500E+02 -0.80500053425E+01  0.82546397212E+02  0.00000000000E+00 0.  1.
         11    1    4    4    0    0 -0.92972023028E+02  0.54455285965E+02 -0.44040609049E+02  0.11639910000E+03  0.00000000000E+00 0. -1.
        -11    1    3    3    0    0  0.53121878264E+02 -0.34121202026E+02  0.22170572585E+03  0.23052032286E+03  0.00000000000E+00 0.  1.
         11    1    3    3    0    0  0.12367961595E+02 -0.77969487591E+02  0.85875389668E+02  0.11664814623E+03  0.00000000000E+00 0. -1.
         21    1    1    2  502  501  0.33246253623E+02 -0.24315072848E+02  0.89472652673E+02  0.98498181322E+02  0.00000000000E+00 0. -1.
<scales pt_clust_5="13000.00000" pt_clust_6="13000.00000" pt_clust_7="13000.00000" pt_clust_8="13000.00000" pt_clust_9="41.18903"></scales>
<clustering>
<clus scale="   41.189">  1  9  2 -1</clus>
<clus scale="   92.253">  5  6 -1 -1</clus>
<clus scale="   95.218">  7  8 -1 -1</clus>
<clus scale="  185.755">  2  5  1 -1</clus>
<clus scale="  185.755">  2  5  1 -1</clus>
</clustering>
</event>
<event>
 9    1  0.1612788E-005  0.9922811E+02  0.7546771E-02  0.1283044E+00
          1   -1    0    0  502    0  0.00000000000E+00  0.00000000000E+00  0.11806575427E+03  0.11806575427E+03  0.00000000000E+00 0. -1.
         -1   -1    0    0    0  501 -0.00000000000E+00 -0.00000000000E+00 -0.13529078728E+03  0.13529078728E+03  0.00000000000E+00 0.  1.
         23    2    1    2    0    0 -0.42106947450E+01  0.44598078159E+02 -0.28050001988E+00  0.10442440329E+03  0.94327402149E+02 0.  0.
         23    2    1    2    0    0 -0.30677127131E+02 -0.11615611717E+02  0.62989964975E+00  0.97806177236E+02  0.92139258557E+02 0.  0.
        -11    1    4    4    0    0  0.51502237651E+01 -0.25929655427E+02 -0.35961307047E+02  0.44632806767E+02  0.00000000000E+00 0. -1.
         11    1    4    4    0    0 -0.35827350896E+02  0.14314043709E+02  0.36591206697E+02  0.53173370469E+02  0.00000000000E+00 0.  1.
        -11    1    3    3    0    0 -0.20214692344E+02  0.28357983274E+02 -0.43401648956E+02  0.55646312852E+02  0.00000000000E+00 0.  1.
         11    1    3    3    0    0  0.16003997599E+02  0.16240094886E+02  0.43121148937E+02  0.48778090437E+02  0.00000000000E+00 0. -1.
         21    1    1    2  502  501  0.34887821876E+02 -0.32982466442E+02 -0.17574432635E+02  0.51125961021E+02  0.00000000000E+00 0. -1.
<scales pt_clust_5="13000.00000" pt_clust_6="13000.00000" pt_clust_7="13000.00000" pt_clust_8="13000.00000" pt_clust_9="48.01045"></scales>
<clustering>
<clus scale="   48.010">  2  9  1 -1</clus>
<clus scale="   92.139">  5  6 -1 -1</clus>
<clus scale="   94.327">  7  8 -1 -1</clus>
<clus scale="   97.150">  1  5  2 -1</clus>
<clus scale="   97.150">  1  5  2 -1</clus>
</clustering>
</event>
<event>
 9    1  0.1612788E-005  0.1064155E+03  0.7546771E-02  0.1267571E+00
          2   -1    0    0  502    0  0.00000000000E+00  0.00000000000E+00  0.62995597895E+03  0.62995597895E+03  0.00000000000E+00 0. -1.
         -2   -1    0    0    0  501 -0.00000000000E+00 -0.00000000000E+00 -0.57337884358E+02  0.57337884358E+02  0.00000000000E+00 0.  1.
         23    2    1    2    0    0 -0.11081392799E+02  0.57545919830E+02  0.13615088933E+02  0.10921103280E+03  0.91144659105E+02 0.  0.
         23    2    1    2    0    0  0.29190265153E+02 -0.46514162376E+02  0.53763952465E+03  0.54798251072E+03  0.90625243230E+02 0.  0.
        -11    1    3    3    0    0  0.20511026591E+02  0.65191273974E+02 -0.99512206244E+01  0.69062516650E+02  0.00000000000E+00 0.  1.
         11    1    3    3    0    0 -0.31592419390E+02 -0.76453541440E+01  0.23566309558E+02  0.40148516150E+02  0.00000000000E+00 0. -1.
        -13    1    4    4    0    0 -0.31168131488E+02 -0.35501113869E+01  0.18547083154E+03  0.18810498415E+03  0.00000000000E+00 0.  1.
         13    1    4    4    0    0  0.60358396641E+02 -0.42964050989E+02  0.35216869311E+03  0.35987752656E+03  0.00000000000E+00 0. -1.
         21    1    1    2  502  501 -0.18108872354E+02 -0.11031757454E+02  0.21363481017E+02  0.30100319793E+02  0.00000000000E+00 0.  1.
<scales pt_clust_5="13000.00000" pt_clust_6="13000.00000" pt_clust_7="13000.00000" pt_clust_8="13000.00000" pt_clust_9="21.20450"></scales>
<clustering>
<clus scale="   21.205">  2  9  1 -1</clus>
<clus scale="   90.625">  7  8 -1 -1</clus>
<clus scale="   91.145">  5  6 -1 -1</clus>
<clus scale="  105.971">  1  7  2 -1</clus>
<clus scale="  105.971">  1  5  2 -1</clus>
</clustering>
</event>
<event>
 9    1  0.1612788E-005  0.2036158E+03  0.7546771E-02  0.1146760E+00
          1   -1    0    0  502    0  0.00000000000E+00  0.00000000000E+00  0.99163697504E+03  0.99163697504E+03  0.00000000000E+00 0. -1.
         -1   -1    0    0    0  501 -0.00000000000E+00 -0.00000000000E+00 -0.82526544717E+02  0.82526544717E+02  0.00000000000E+00 0.  1.
         23    2    1    2    0    0  0.67631511763E+02 -0.10804281486E+03  0.86097487809E+02  0.17947173996E+03  0.92466517233E+02 0.  0.
         23    2    1    2    0    0 -0.47446957299E+02  0.19661702610E+03  0.73629199693E+03  0.76909986311E+03  0.92082712761E+02 0.  0.
        -11    1    3    3    0    0 -0.78726536960E+01 -0.74176877845E+02  0.44416981673E+02  0.86816220512E+02  0.00000000000E+00 0.  1.
         11    1    3    3    0    0  0.75504165459E+02 -0.33865937016E+02  0.41680506136E+02  0.92655519444E+02  0.00000000000E+00 0. -1.
        -11    1    4    4    0    0 -0.63998922240E+02  0.72175004335E+02  0.33755222327E+03  0.35106494660E+03  0.00000000000E+00 0. -1.
         11    1    4    4    0    0  0.16551964941E+02  0.12444202176E+03  0.39873977366E+03  0.41803491651E+03  0.00000000000E+00 0.  1.
         21    1    1    2  502  501 -0.20184554464E+02 -0.88574211235E+02  0.86720945587E+02  0.12559191669E+03  0.00000000000E+00 0.  1.
<scales pt_clust_5="13000.00000" pt_clust_6="13000.00000" pt_clust_7="13000.00000" pt_clust_8="13000.00000" pt_clust_9="90.84496"></scales>
<clustering>
<clus scale="   90.845">  2  9  1 -1</clus>
<clus scale="   92.083">  7  8 -1 -1</clus>
<clus scale="   92.467">  5  6 -1 -1</clus>
<clus scale="  203.442">  1  7  2 -1</clus>
<clus scale="  203.442">  1  5  2 -1</clus>
</clustering>
</event>
<event>
 9    1  0.1612788E-005  0.1477999E+03  0.7546771E-02  0.1203303E+00
          2   -1    0    0  502    0  0.00000000000E+00  0.00000000000E+00  0.28912770884E+03  0.28912770884E+03  0.00000000000E+00 0. -1.
         -2   -1    0    0    0  501 -0.00000000000E+00 -0.00000000000E+00 -0.13316291727E+03  0.13316291727E+03  0.00000000000E+00 0.  1.
         23    2    1    2    0    0 -0.39670451636E+02 -0.93676757872E+02  0.38144740861E+02  0.14117876498E+03  0.90151776070E+02 0.  0.
         23    2    1    2    0    0  0.47765461843E+02  0.11615720846E+03  0.16617376539E+03  0.22717688572E+03  0.90672932435E+02 0.  0.
        -11    1    3    3    0    0 -0.29814135702E+02  0.10057194936E+02  0.12587756338E+02  0.33889252976E+02  0.00000000000E+00 0. -1.
         11    1    3    3    0    0 -0.98563159345E+01 -0.10373395281E+03  0.25556984523E+02  0.10728951201E+03  0.00000000000E+00 0.  1.
        -13    1    4    4    0    0  0.46926523598E+02  0.12987359574E+02  0.33470724430E+02  0.59085188665E+02  0.00000000000E+00 0.  1.
         13    1    4    4    0    0  0.83893824467E+00  0.10316984889E+03  0.13270304097E+03  0.16809169705E+03  0.00000000000E+00 0. -1.
         21    1    1    2  502  501 -0.80950102065E+01 -0.22480450589E+02 -0.48353714679E+02  0.53934975407E+02  0.00000000000E+00 0.  1.
<scales pt_clust_5="13000.00000" pt_clust_6="13000.00000" pt_clust_7="13000.00000" pt_clust_8="13000.00000" pt_clust_9="23.89351"></scales>
<clustering>
<clus scale="   23.894">  2  9  1 -1</clus>
<clus scale="   90.152">  5  6 -1 -1</clus>
<clus scale="   90.673">  7  8 -1 -1</clus>
<clus scale="  147.481">  2  5  1 -1</clus>
<clus scale="  147.800">  1  5  2 -1</clus>
</clustering>
</event>
<event>
 9    1  0.1612788E-005  0.9720422E+02  0.7546771E-02  0.1286606E+00
         -1   -1    0    0    0  501 -0.00000000000E+00  0.00000000000E+00  0.31284760725E+03  0.31284760725E+03  0.00000000000E+00 0.  1.
          1   -1    0    0  502    0  0.00000000000E+00 -0.00000000000E+00 -0.40882346974E+02  0.40882346974E+02  0.00000000000E+00 0. -1.
         23    2    1    2    0    0  0.35007266782E+02 -0.12107796239E+02  0.13162034616E+03  0.16575408951E+03  0.93693090503E+02 0.  0.
         23    2    1    2    0    0 -0.60945379385E+01  0.18894344752E+02  0.11105114209E+03  0.14626102072E+03  0.93090227022E+02 0.  0.
        -13    1    3    3    0    0 -0.14326187186E+02 -0.21024458319E+02  0.57643211028E+00  0.25447981470E+02  0.00000000000E+00 0. -1.
         13    1    3    3    0    0  0.49333453968E+02  0.89166620803E+01  0.13104391405E+03  0.14030610804E+03  0.00000000000E+00 0.  1.
        -13    1    4    4    0    0  0.38913740669E+02  0.47275321240E+01  0.20697314377E+02  0.44328406189E+02  0.00000000000E+00 0.  1.
         13    1    4    4    0    0 -0.45008278607E+02  0.14166812628E+02  0.90353827716E+02  0.10193261454E+03  0.00000000000E+00 0. -1.
         21    1    1    2  502  501 -0.28912728843E+02 -0.67865485131E+01  0.29293772023E+02  0.41714843992E+02  0.00000000000E+00 0.  1.
<scales pt_clust_5="13000.00000" pt_clust_6="13000.00000" pt_clust_7="13000.00000" pt_clust_8="13000.00000" pt_clust_9="29.69854"></scales>
<clustering>
<clus scale="   29.699">  2  9  1 -1</clus>
<clus scale="   93.090">  7  8 -1 -1</clus>
<clus scale="   93.693">  5  6 -1 -1</clus>
<clus scale="   96.623">  2  7  1 -1</clus>
<clus scale="   29.699">  2  5  1 -1</clus>
</clustering>
</event>
<event>
 9    1  0.1612788E-005  0.1310018E+03  0.7546771E-02  0.1226152E+00
          1   -1    0    0  502    0  0.00000000000E+00  0.00000000000E+00  0.10050731004E+03  0.10050731004E+03  0.00000000000E+00 0. -1.
         -1   -1    0    0    0  501 -0.00000000000E+00 -0.00000000000E+00 -0.56305842527E+03  0.56305842527E+03  0.00000000000E+00 0.  1.
         23    2    1    2    0    0 -0.19782286928E+02 -0.13763093465E+03 -0.41560974736E+03  0.44749600973E+03  0.90485377686E+02 0.  0.
         23    2    1    2    0    0 -0.92875874353E+01  0.88320632633E+02  0.19070304286E+02  0.12869636384E+03  0.91171728799E+02 0.  0.
        -11    1    4    4    0    0  0.31262030743E+02  0.12228441087E+02 -0.13971088697E+02  0.36359877021E+02  0.00000000000E+00 0.  1.
         11    1    4    4    0    0 -0.40549618178E+02  0.76092191546E+02  0.33041392983E+02  0.92336486823E+02  0.00000000000E+00 0. -1.
        -13    1    3    3    0    0  0.29618535080E+01 -0.14213188733E+03 -0.34369329044E+03  0.37193456933E+03  0.00000000000E+00 0.  1.
         13    1    3    3    0    0 -0.22744140436E+02  0.45009526738E+01 -0.71916456916E+02  0.75561440395E+02  0.00000000000E+00 0. -1.
         21    1    1    2  502  501  0.29069874363E+02  0.49310302020E+02 -0.66011672155E+02  0.87373361739E+02  0.00000000000E+00 0. -1.
<scales pt_clust_5="13000.00000" pt_clust_6="13000.00000" pt_clust_7="13000.00000" pt_clust_8="13000.00000" pt_clust_9="57.24127"></scales>
<clustering>
<clus scale="   57.241">  2  9  1 -1</clus>
<clus scale="   90.485">  7  8 -1 -1</clus>
<clus scale="   91.172">  5  6 -1 -1</clus>
<clus scale="  130.525">  2  7  1 -1</clus>
<clus scale="  131.002">  1  5  2 -1</clus>
</clustering>
</event>
<event>
 9    1  0.1612788E-005  0.1145761E+03  0.7546771E-02  0.1254072E+00
         -2   -1    0    0    0  501 -0.00000000000E+00  0.00000000000E+00  0.29656038149E+02  0.29656038149E+02  0.00000000000E+00 0.  1.
          2   -1    0    0  502    0  0.00000000000E+00 -0.00000000000E+00 -0.65366597953E+03  0.65366597953E+03  0.00000000000E+00 0. -1.
         23    2    1    2    0    0 -0.80694515738E+02 -0.86521523696E+01 -0.19524627827E+03  0.23166513984E+03  0.94663420739E+02 0.  0.
         23    2    1    2    0    0  0.58128846014E+02 -0.55454941565E+01 -0.39103302548E+03  0.40545748788E+03  0.89884549382E+02 0.  0.
        -11    1    3    3    0    0 -0.40410871764E+02  0.11992650986E+02 -0.13342752103E+02  0.44214152350E+02  0.00000000000E+00 0.  1.
         11    1    3    3    0    0 -0.40283643974E+02 -0.20644803355E+02 -0.18190352617E+03  0.18745098749E+03  0.00000000000E+00 0. -1.
        -13    1    4    4    0    0  0.70539156894E+02  0.15953828742E+02 -0.35084021249E+03  0.35821662720E+03  0.00000000000E+00 0. -1.
         13    1    4    4    0    0 -0.12410310880E+02 -0.21499322899E+02 -0.40192812996E+02  0.47240860680E+02  0.00000000000E+00 0.  1.
         21    1    1    2  502  501  0.22565669724E+02  0.14197646526E+02 -0.37730637631E+02  0.46199389963E+02  0.00000000000E+00 0. -1.
<scales pt_clust_5="13000.00000" pt_clust_6="13000.00000" pt_clust_7="13000.00000" pt_clust_8="13000.00000" pt_clust_9="26.66051"></scales>
<clustering>
<clus scale="   26.661">  1  9  2 -1</clus>
<clus scale="   89.885">  7  8 -1 -1</clus>
<clus scale="   94.663">  5  6 -1 -1</clus>
<clus scale="  110.661">  2  7  1 -1</clus>
<clus scale="  110.661">  2  5  1 -1</clus>
</clustering>
</event>
<event>
 9    1  0.1612788E-005  0.1185936E+03  0.7546771E-02  0.1247558E+00
          1   -1    0    0  502    0  0.00000000000E+00  0.00000000000E+00  0.16044972164E+03  0.16044972164E+03  0.00000000000E+00 0. -1.
         -1   -1    0    0    0  501 -0.00000000000E+00 -0.00000000000E+00 -0.18919301564E+03  0.18919301564E+03  0.00000000000E+00 0.  1.
         23    2    1    2    0    0 -0.93771788526E+01  0.98101669262E+02 -0.10058813120E+02  0.13780235850E+03  0.95793743491E+02 0.  0.
         23    2    1    2    0    0 -0.10740782676E+02 -0.57612095975E+02  0.58792177213E+02  0.12213658583E+03  0.89589661694E+02 0.  0.
        -11    1    3    3    0    0  0.12132420039E+02  0.11127321511E+03 -0.47854767858E+01  0.11203492672E+03  0.00000000000E+00 0. -1.
         11    1    3    3    0    0 -0.21509598892E+02 -0.13171545849E+02 -0.52733363340E+01  0.25767431782E+02  0.00000000000E+00 0.  1.
        -13    1    4    4    0    0  0.35330650995E+01 -0.72994831411E+02  0.16493348170E+02  0.74918345521E+02  0.00000000000E+00 0.  1.
         13    1    4    4    0    0 -0.14273847775E+02  0.15382735436E+02  0.42298829043E+02  0.47218240312E+02  0.00000000000E+00 0. -1.
         21    1    1    2  502  501  0.20117961528E+02 -0.40489573287E+02 -0.77476658092E+02  0.89703792953E+02  0.00000000000E+00 0.  1.
<scales pt_clust_5="13000.00000" pt_clust_6="13000.00000" pt_clust_7="13000.00000" pt_clust_8="13000.00000" pt_clust_9="45.21214"></scales>
<clustering>
<clus scale="   45.212">  2  9  1 -1</clus>
<clus scale="   89.590">  7  8 -1 -1</clus>
<clus scale="   95.794">  5  6 -1 -1</clus>
<clus scale="  113.641">  1  7  2 -1</clus>
<clus scale="  113.641">  1  5  2 -1</clus>
</clustering>
</event>
<event>
 9    1  0.1612788E-005  0.9191645E+02  0.7546771E-02  0.1299329E+00
         -3   -1    0    0    0  501 -0.00000000000E+00  0.00000000000E+00  0.16610581108E+03  0.16610581108E+03  0.00000000000E+00 0.  1.
          3   -1    0    0  502    0  0.00000000000E+00 -0.00000000000E+00 -0.12065136117E+03  0.12065136117E+03  0.00000000000E+00 0. -1.
         23    2    1    2    0    0 -0.43132343455E+02  0.21351321073E+02  0.35132283037E+02  0.10622118442E+03  0.87933979462E+02 0.  0.
         23    2    1    2    0    0 -0.89504322928E+01 -0.17991842340E+02 -0.46773714493E+02  0.10318069521E+03  0.89747751321E+02 0.  0.
        -11    1    3    3    0    0 -0.64832365267E+02  0.14966174266E+02  0.46234294672E+02  0.81023650634E+02  0.00000000000E+00 0.  1.
         11    1    3    3    0    0  0.21700021812E+02  0.63851468069E+01 -0.11102011635E+02  0.25197533783E+02  0.00000000000E+00 0. -1.
        -11    1    4    4    0    0 -0.32555782561E+02  0.18829767590E+02  0.20072543599E+01  0.37662556946E+02  0.00000000000E+00 0.  1.
         11    1    4    4    0    0  0.23605350268E+02 -0.36821609929E+02 -0.48780968853E+02  0.65518138262E+02  0.00000000000E+00 0. -1.
         21    1    1    2  502  501  0.52082775748E+02 -0.33594787334E+01  0.57095881367E+02  0.77355292618E+02  0.00000000000E+00 0. -1.
<scales pt_clust_5="13000.00000" pt_clust_6="13000.00000" pt_clust_7="13000.00000" pt_clust_8="13000.00000" pt_clust_9="52.19101"></scales>
<clustering>
<clus scale="   52.191">  1  9  2 -1</clus>
<clus scale="   87.934">  5  6 -1 -1</clus>
<clus scale="   89.748">  7  8 -1 -1</clus>
<clus scale="   90.146">  1  5  2 -1</clus>
<clus scale="   91.916">  2  5  1 -1</clus>
</clustering>
</event>
<event>
 9    1  0.1612788E-005  0.1203066E+03  0.7546771E-02  0.1246102E+00
          1   -1    0    0  502    0  0.00000000000E+00  0.00000000000E+00  0.73496427455E+02  0.73496427455E+02  0.00000000000E+00 0. -1.
         -1   -1    0    0    0  501 -0.00000000000E+00 -0.00000000000E+00 -0.52155491307E+03  0.52155491307E+03  0.00000000000E+00 0.  1.
         23    2    1    2    0    0  0.49281977994E+01  0.55610310456E+02 -0.11193847492E+03  0.15173428014E+03  0.85885248097E+02 0.  0.
         23    2    1    2    0    0 -0.72547793859E+02 -0.56231586311E+02 -0.39120457354E+02  0.13871645231E+03  0.96367371366E+02 0.  0.
        -13    1    3    3    0    0  0.37766702960E+02  0.22359989562E+02 -0.89951127649E+02  0.10008745351E+03  0.00000000000E+00 0. -1.
         13    1    3    3    0    0 -0.32838505161E+02  0.33250320894E+02 -0.21987347268E+02  0.51646826627E+02  0.00000000000E+00 0.  1.
        -13    1    4    4    0    0 -0.19790648429E+02 -0.63967714590E+02 -0.50900405009E+02  0.84109390113E+02  0.00000000000E+00 0.  1.
         13    1    4    4    0    0 -0.52757145429E+02  0.77361282790E+01  0.11779947655E+02  0.54607062193E+02  0.00000000000E+00 0. -1.
         21    1    1    2  502  501  0.67619596059E+02  0.62127585528E+00 -0.29699955334E+03  0.30460060807E+03  0.00000000000E+00 0.  1.
<scales pt_clust_5="13000.00000" pt_clust_6="13000.00000" pt_clust_7="13000.00000" pt_clust_8="13000.00000" pt_clust_9="67.62245"></scales>
<clustering>
<clus scale="   67.622">  2  9  1 -1</clus>
<clus scale="   85.885">  5  6 -1 -1</clus>
<clus scale="   96.367">  7  8 -1 -1</clus>
<clus scale="  112.086">  2  5  1 -1</clus>
<clus scale="  120.307">  1  5  2 -1</clus>
</clustering>
</event>
<event>
 9    1  0.1612788E-005  0.1034669E+03  0.7546771E-02  0.1273932E+00
          1   -1    0    0  502    0  0.00000000000E+00  0.00000000000E+00  0.57714546399E+02  0.57714546399E+02  0.00000000000E+00 0. -1.
         -1   -1    0    0    0  501 -0.00000000000E+00 -0.00000000000E+00 -0.42662677561E+03  0.42662677561E+03  0.00000000000E+00 0.  1.
         23    2    1    2    0    0 -0.13022278304E+02 -0.15730777114E+02 -0.28645471431E+03  0.30116319785E+03  0.90696920071E+02 0.  0.
         23    2    1    2    0    0  0.37713070207E+02  0.35723295303E+02 -0.12978861322E+02  0.10678035396E+03  0.92385949462E+02 0.  0.
        -11    1    3    3    0    0 -0.28315046103E+02  0.22912583197E+02 -0.54739871076E+02  0.65750907142E+02  0.00000000000E+00 0.  1.
         11    1    3    3    0    0  0.15292767799E+02 -0.38643360312E+02 -0.23171484323E+03  0.23541229071E+03  0.00000000000E+00 0. -1.
        -13    1    4    4    0    0 -0.22389350362E+02 -0.14863133143E+02  0.14325676449E+01  0.26911855873E+02  0.00000000000E+00 0. -1.
         13    1    4    4    0    0  0.60102420569E+02  0.50586428446E+02 -0.14411428967E+02  0.79868498083E+02  0.00000000000E+00 0.  1.
         21    1    1    2  502  501 -0.24690791903E+02 -0.19992518189E+02 -0.69478653581E+02  0.76397770201E+02  0.00000000000E+00 0.  1.
<scales pt_clust_5="13000.00000" pt_clust_6="13000.00000" pt_clust_7="13000.00000" pt_clust_8="13000.00000" pt_clust_9="31.77005"></scales>
<clustering>
<clus scale="   31.770">  2  9  1 -1</clus>
<clus scale="   90.697">  5  6 -1 -1</clus>
<clus scale="   92.386">  7  8 -1 -1</clus>
<clus scale="  101.962">  2  5  1 -1</clus>
<clus scale="  103.467">  1  5  2 -1</clus>
</clustering>
</event>
<event>
 9    1  0.1612788E-005  0.9972842E+02  0.7546771E-02  0.1281364E+00
         -2   -1    0    0    0  501 -0.00000000000E+00  0.00000000000E+00  0.79010755560E+02  0.79010755560E+02  0.00000000000E+00 0.  1.
          2   -1    0    0  502    0  0.00000000000E+00 -0.00000000000E+00 -0.23806651836E+03  0.23806651836E+03  0.00000000000E+00 0. -1.
         23    2    1    2    0    0  0.13699539448E+02 -0.13131853851E+02  0.46723434198E+01  0.96346618268E+02  0.94343611824E+02 0.  0.
         23    2    1    2    0    0 -0.35518980227E+02  0.86295088274E+01 -0.17019783926E+03  0.19753116100E+03  0.93355174998E+02 0.  0.
        -11    1    3    3    0    0  0.29457675164E+02  0.32605376966E+02 -0.11354900433E+02  0.45385008505E+02  0.00000000000E+00 0. -1.
         11    1    3    3    0    0 -0.15758135716E+02 -0.45737230817E+02  0.16027243853E+02  0.50961609762E+02  0.00000000000E+00 0.  1.
        -13    1    4    4    0    0 -0.24865855474E+02 -0.40944518463E+02 -0.10057865760E+03  0.11140390803E+03  0.00000000000E+00 0.  1.
         13    1    4    4    0    0 -0.10653124753E+02  0.49574027290E+02 -0.69619181656E+02  0.86127252965E+02  0.00000000000E+00 0. -1.
         21    1    1    2  502  501  0.21819440779E+02  0.45023450233E+01  0.64697330370E+01  0.23199494654E+02  0.00000000000E+00 0. -1.
<scales pt_clust_5="13000.00000" pt_clust_6="13000.00000" pt_clust_7="13000.00000" pt_clust_8="13000.00000" pt_clust_9="22.27912"></scales>
<clustering>
<clus scale="   22.279">  1  9  2 -1</clus>
<clus scale="   93.355">  7  8 -1 -1</clus>
<clus scale="   94.344">  5  6 -1 -1</clus>
<clus scale="   98.794">  2  7  1 -1</clus>
<clus scale="   98.794">  2  5  1 -1</clus>
</clustering>
</event>
<event>
 9    1  0.1612788E-005  0.9862378E+02  0.7546771E-02  0.1283602E+00
          1   -1    0    0  502    0  0.00000000000E+00  0.00000000000E+00  0.34687605039E+02  0.34687605039E+02  0.00000000000E+00 0. -1.
         -1   -1    0    0    0  501 -0.00000000000E+00 -0.00000000000E+00 -0.40166582307E+03  0.40166582307E+03  0.00000000000E+00 0.  1.
         23    2    1    2    0    0 -0.48890817662E+02 -0.67397096216E+01 -0.18790417811E+03  0.21524625564E+03  0.92667333399E+02 0.  0.
         23    2    1    2    0    0  0.24359268696E+02 -0.75292068821E+01 -0.10534732837E+03  0.14210700241E+03  0.91903632202E+02 0.  0.
        -11    1    4    4    0    0  0.17602839413E+02 -0.43098511231E+02 -0.92740386638E+02  0.10376955690E+03  0.00000000000E+00 0.  1.
         11    1    4    4    0    0  0.67564292833E+01  0.35569304348E+02 -0.12606941734E+02  0.38337445512E+02  0.00000000000E+00 0. -1.
        -13    1    3    3    0    0 -0.73586737655E+02 -0.18882696683E+02 -0.15276993819E+03  0.17061716856E+03  0.00000000000E+00 0.  1.
         13    1    3    3    0    0  0.24695919993E+02  0.12142987061E+02 -0.35134239922E+02  0.44629087084E+02  0.00000000000E+00 0. -1.
         21    1    1    2  502  501  0.24531548965E+02  0.14268916504E+02 -0.73726711545E+02  0.79000170051E+02  0.00000000000E+00 0. -1.
<scales pt_clust_5="13000.00000" pt_clust_6="13000.00000" pt_clust_7="13000.00000" pt_clust_8="13000.00000" pt_clust_9="28.37955"></scales>
<clustering>
<clus scale="   28.380">  2  9  1 -1</clus>
<clus scale="   91.904">  5  6 -1 -1</clus>
<clus scale="   92.667">  7  8 -1 -1</clus>
<clus scale="   97.907">  1  5  2 -1</clus>
<clus scale="   97.907">  1  5  2 -1</clus>
</clustering>
</event>
<event>
 9    1  0.1612788E-005  0.1064467E+03  0.7546771E-02  0.1268706E+00
          4   -1    0    0  502    0  0.00000000000E+00  0.00000000000E+00  0.52936828729E+02  0.52936828729E+02  0.00000000000E+00 0. -1.
         -4   -1    0    0    0  501 -0.00000000000E+00 -0.00000000000E+00 -0.26735581503E+03  0.26735581503E+03  0.00000000000E+00 0.  1.
         23    2    1    2    0    0 -0.30414979658E+02 -0.11819864924E+02 -0.10407124865E+03  0.14352488874E+03  0.93294097865E+02 0.  0.
         23    2    1    2    0    0  0.47073765798E+02  0.31691795735E+02 -0.85430174736E+02  0.14080536173E+03  0.96475519138E+02 0.  0.
        -11    1    4    4    0    0  0.63190433410E+02  0.49397178607E+02 -0.84987872079E+02  0.11685910546E+03  0.00000000000E+00 0. -1.
         11    1    4    4    0    0 -0.16116667612E+02 -0.17705382872E+02 -0.44230265715E+00  0.23946256267E+02  0.00000000000E+00 0.  1.
        -11    1    3    3    0    0 -0.60168873688E+02 -0.10153365791E+01 -0.91392307933E+02  0.10942521747E+03  0.00000000000E+00 0.  1.
         11    1    3    3    0    0  0.29753894029E+02 -0.10804528345E+02 -0.12678940719E+02  0.34099671266E+02  0.00000000000E+00 0. -1.
         21    1    1    2  502  501 -0.16658786140E+02 -0.19871930811E+02 -0.24917562911E+02  0.35962393291E+02  0.00000000000E+00 0.  1.
<scales pt_clust_5="13000.00000" pt_clust_6="13000.00000" pt_clust_7="13000.00000" pt_clust_8="13000.00000" pt_clust_9="25.93085"></scales>
<clustering>
<clus scale="   25.931">  2  9  1 -1</clus>
<clus scale="   93.294">  7  8 -1 -1</clus>
<clus scale="   96.476">  5  6 -1 -1</clus>
<clus scale="  103.572">  2  7  1 -1</clus>
<clus scale="  106.447">  1  5  2 -1</clus>
</clustering>
</event>
<event>
 9    1  0.1612788E-005  0.1000211E+03  0.7546771E-02  0.1281010E+00
         -2   -1    0    0    0  501 -0.00000000000E+00  0.00000000000E+00  0.80250435386E+02  0.80250435386E+02  0.00000000000E+00 0.  1.
          2   -1    0    0  502    0  0.00000000000E+00 -0.00000000000E+00 -0.27620292265E+03  0.27620292265E+03  0.00000000000E+00 0. -1.
         23    2    1    2    0    0  0.58982414785E+02  0.43004137140E+01  0.53592013846E+01  0.10816152771E+03  0.90403408263E+02 0.  0.
         23    2    1    2    0    0 -0.34977734508E+02 -0.53161321853E+01 -0.20145948747E+03  0.22426521583E+03  0.91963355577E+02 0.  0.
        -11    1    3    3    0    0  0.82519100232E+02 -0.42896235323E+01  0.77464454311E+01  0.82992832160E+02  0.00000000000E+00 0.  1.
         11    1    3    3    0    0 -0.23536685446E+02  0.85900372463E+01 -0.23872440466E+01  0.25168695553E+02  0.00000000000E+00 0. -1.
        -13    1    4    4    0    0 -0.79067362025E+00 -0.45549359604E+02 -0.86559751045E+02  0.97815948730E+02  0.00000000000E+00 0.  1.
         13    1    4    4    0    0 -0.34187060888E+02  0.40233227419E+02 -0.11489973642E+03  0.12644926710E+03  0.00000000000E+00 0. -1.
         21    1    1    2  502  501 -0.24004680277E+02  0.10157184713E+01  0.14779882255E+00  0.24026614487E+02  0.00000000000E+00 0. -1.
<scales pt_clust_5="13000.00000" pt_clust_6="13000.00000" pt_clust_7="13000.00000" pt_clust_8="13000.00000" pt_clust_9="24.02616"></scales>
<clustering>
<clus scale="   24.026">  1  9  2 -1</clus>
<clus scale="   90.403">  5  6 -1 -1</clus>
<clus scale="   91.963">  7  8 -1 -1</clus>
<clus scale="   98.589">  1  5  2 -1</clus>
<clus scale="  100.021">  2  5  1 -1</clus>
</clustering>
</event>
<event>
 9    1  0.1612788E-005  0.9535874E+02  0.7546771E-02  0.1295761E+00
         -1   -1    0    0    0  501 -0.00000000000E+00  0.00000000000E+00  0.37437213858E+02  0.37437213858E+02  0.00000000000E+00 0.  1.
          1   -1    0    0  502    0  0.00000000000E+00 -0.00000000000E+00 -0.30664240000E+03  0.30664240000E+03  0.00000000000E+00 0. -1.
         23    2    1    2    0    0 -0.84466818237E+01 -0.36862322767E+02 -0.85523091156E+02  0.12430884670E+03  0.81904291541E+02 0.  0.
         23    2    1    2    0    0 -0.54798501052E+01  0.12693412840E+02 -0.13460015213E+03  0.16331616936E+03  0.91453915898E+02 0.  0.
        -11    1    4    4    0    0 -0.44904592741E+02  0.15558625217E+02 -0.10026536117E+03  0.11095781144E+03  0.00000000000E+00 0.  1.
         11    1    4    4    0    0  0.39424742636E+02 -0.28652123778E+01 -0.34334790959E+02  0.52358357920E+02  0.00000000000E+00 0. -1.
        -13    1    3    3    0    0 -0.27653612038E+02 -0.42507758969E+02 -0.17888880738E+02  0.53774007525E+02  0.00000000000E+00 0.  1.
         13    1    3    3    0    0  0.19206930215E+02  0.56454362010E+01 -0.67634210419E+02  0.70534839173E+02  0.00000000000E+00 0. -1.
         21    1    1    2  502  501  0.13926531929E+02  0.24168909928E+02 -0.49081942858E+02  0.56454597805E+02  0.00000000000E+00 0.  1.
<scales pt_clust_5="13000.00000" pt_clust_6="13000.00000" pt_clust_7="13000.00000" pt_clust_8="13000.00000" pt_clust_9="27.89417"></scales>
<clustering>
<clus scale="   27.894">  2  9  1 -1</clus>
<clus scale="   81.904">  7  8 -1 -1</clus>
<clus scale="   86.243">  1  7  2 -1</clus>
<clus scale="   91.454">  5  6 -1 -1</clus>
<clus scale="   27.894">  2  5  1 -1</clus>
</clustering>
</event>
<event>
 9    1  0.1612788E-005  0.1171291E+03  0.7546771E-02  0.1248279E+00
          1   -1    0    0  502    0  0.00000000000E+00  0.00000000000E+00  0.29172485808E+03  0.29172485808E+03  0.00000000000E+00 0. -1.
         -1   -1    0    0    0  501 -0.00000000000E+00 -0.00000000000E+00 -0.69758619793E+02  0.69758619793E+02  0.00000000000E+00 0.  1.
         23    2    1    2    0    0 -0.56805284408E+02 -0.40581198323E+02  0.64164630471E+02  0.13175399010E+03  0.91478631982E+02 0.  0.
         23    2    1    2    0    0  0.71649323369E+02  0.25320183343E+02  0.16861885490E+03  0.20584943532E+03  0.90371093648E+02 0.  0.
        -11    1    4    4    0    0 -0.18276019127E+02  0.96427673058E+01  0.10272065680E+02  0.23076203540E+02  0.00000000000E+00 0.  1.
         11    1    4    4    0    0  0.89925342497E+02  0.15677416037E+02  0.15834678922E+03  0.18277323178E+03  0.00000000000E+00 0. -1.
        -13    1    3    3    0    0 -0.77803740956E+02 -0.48377689918E+02  0.44086407510E+02  0.10167317402E+03  0.00000000000E+00 0.  1.
         13    1    3    3    0    0  0.20998456547E+02  0.77964915954E+01  0.20078222961E+02  0.30080816077E+02  0.00000000000E+00 0. -1.
         21    1    1    2  502  501 -0.14844038961E+02  0.15261014980E+02 -0.10817247087E+02  0.23880052459E+02  0.00000000000E+00 0.  1.
<scales pt_clust_5="13000.00000" pt_clust_6="13000.00000" pt_clust_7="13000.00000" pt_clust_8="13000.00000" pt_clust_9="21.28953"></scales>
<clustering>
<clus scale="   21.290">  2  9  1 -1</clus>
<clus scale="   90.371">  5  6 -1 -1</clus>
<clus scale="   91.479">  7  8 -1 -1</clus>
<clus scale="  116.266">  1  5  2 -1</clus>
<clus scale="  116.266">  1  5  2 -1</clus>
</clustering>
</event>
<event>
 9    1  0.1612788E-005  0.9735815E+02  0.7546771E-02  0.1287776E+00
          1   -1    0    0  502    0  0.00000000000E+00  0.00000000000E+00  0.33245222315E+03  0.33245222315E+03  0.00000000000E+00 0. -1.
         -1   -1    0    0    0  501 -0.00000000000E+00 -0.00000000000E+00 -0.69933876672E+02  0.69933876672E+02  0.00000000000E+00 0.  1.
         23    2    1    2    0    0  0.19967148346E+02 -0.37520364497E+02  0.29492237793E+02  0.10441377489E+03  0.90697185912E+02 0.  0.
         23    2    1    2    0    0 -0.95755827419E+01  0.18461441070E+02  0.25158550082E+03  0.26941224379E+03  0.94101946259E+02 0.  0.
        -11    1    4    4    0    0 -0.24879781318E+02  0.49025518700E+02  0.20083596156E+03  0.20822485072E+03  0.00000000000E+00 0. -1.
         11    1    4    4    0    0  0.15304198576E+02 -0.30564077629E+02  0.50749539259E+02  0.61187393067E+02  0.00000000000E+00 0.  1.
        -13    1    3    3    0    0 -0.35146072809E+02 -0.23275075233E+02  0.50208639840E+01  0.42452145248E+02  0.00000000000E+00 0. -1.
         13    1    3    3    0    0  0.55113221154E+02 -0.14245289263E+02  0.24471373809E+02  0.61961629646E+02  0.00000000000E+00 0.  1.
         21    1    1    2  502  501 -0.10391565604E+02  0.19058923426E+02 -0.18559392140E+02  0.28560081135E+02  0.00000000000E+00 0. -1.
<scales pt_clust_5="13000.00000" pt_clust_6="13000.00000" pt_clust_7="13000.00000" pt_clust_8="13000.00000" pt_clust_9="21.70777"></scales>
<clustering>
<clus scale="   21.708">  2  9  1 -1</clus>
<clus scale="   90.697">  7  8 -1 -1</clus>
<clus scale="   94.071">  2  7  1 -1</clus>
<clus scale="   94.102">  5  6 -1 -1</clus>
<clus scale="   97.358">  1  5  2 -1</clus>
</clustering>
</event>
<event>
 9    1  0.1612788E-005  0.2279519E+03  0.7546771E-02  0.1146309E+00
         -1   -1    0    0    0  501 -0.00000000000E+00  0.00000000000E+00  0.41586826817E+03  0.41586826817E+03  0.00000000000E+00 0.  1.
          1   -1    0    0  502    0  0.00000000000E+00 -0.00000000000E+00 -0.27001540515E+03  0.27001540515E+03  0.00000000000E+00 0. -1.
         23    2    1    2    0    0  0.20950882776E+03 -0.28790265271E+02 -0.44119856987E+02  0.23421964314E+03  0.90495586458E+02 0.  0.
         23    2    1    2    0    0 -0.40527642207E+02 -0.10551394590E+03 -0.23094119413E+02  0.14836592556E+03  0.93292159125E+02 0.  0.
        -13    1    3    3    0    0  0.36060586658E+02  0.25252663648E+02  0.90132376154E+01  0.44936637433E+02  0.00000000000E+00 0.  1.
         13    1    3    3    0    0  0.17344824110E+03 -0.54042928920E+02 -0.53133094602E+02  0.18928300570E+03  0.00000000000E+00 0. -1.
        -13    1    4    4    0    0 -0.67163555152E+02 -0.76423186160E+02 -0.34289612374E+02  0.10736491066E+03  0.00000000000E+00 0. -1.
         13    1    4    4    0    0  0.26635912945E+02 -0.29090759743E+02  0.11195492961E+02  0.41001014908E+02  0.00000000000E+00 0.  1.
         21    1    1    2  502  501 -0.16898118555E+03  0.13430421117E+03  0.21306683942E+03  0.30329810462E+03  0.00000000000E+00 0.  1.
<scales pt_clust_5="13000.00000" pt_clust_6="13000.00000" pt_clust_7="13000.00000" pt_clust_8="13000.00000" pt_clust_9="209.21909"></scales>
<clustering>
<clus scale="   90.496">  5  6 -1 -1</clus>
<clus scale="   93.292">  7  8 -1 -1</clus>
<clus scale="  146.558">  2  7  1 -1</clus>
<clus scale="  209.219">  1  9  2 -1</clus>
<clus scale="  146.558">  2  5  1 -1</clus>
</clustering>
</event>
<event>
 9    1  0.1612788E-005  0.1422609E+03  0.7546771E-02  0.1230856E+00
         -1   -1    0    0    0  501 -0.00000000000E+00  0.00000000000E+00  0.82592553625E+03  0.82592553625E+03  0.00000000000E+00 0.  1.
          1   -1    0    0  502    0  0.00000000000E+00 -0.00000000000E+00 -0.50312298672E+02  0.50312298672E+02  0.00000000000E+00 0. -1.
         23    2    1    2    0    0 -0.15065313081E+02 -0.39232060418E+01  0.28682571234E+03  0.30136202850E+03  0.91146737508E+02 0.  0.
         23    2    1    2    0    0 -0.32833932480E+01 -0.10452911159E+03  0.42626831454E+03  0.44835611653E+03  0.91550070511E+02 0.  0.
        -13    1    4    4    0    0 -0.39096293972E+02 -0.40449297067E+02  0.10847438926E+03  0.12219393995E+03  0.00000000000E+00 0.  1.
         13    1    4    4    0    0  0.35812900724E+02 -0.64079814526E+02  0.31779392527E+03  0.32616217658E+03  0.00000000000E+00 0. -1.
        -13    1    3    3    0    0  0.36276005763E+02 -0.15042821434E+02  0.10515925234E+03  0.11225285486E+03  0.00000000000E+00 0. -1.
         13    1    3    3    0    0 -0.51341318843E+02  0.11119615392E+02  0.18166646000E+03  0.18910917364E+03  0.00000000000E+00 0.  1.
         21    1    1    2  502  501  0.18348706329E+02  0.10845231763E+03  0.62519210706E+02  0.12651968990E+03  0.00000000000E+00 0.  1.
<scales pt_clust_5="13000.00000" pt_clust_6="13000.00000" pt_clust_7="13000.00000" pt_clust_8="13000.00000" pt_clust_9="108.88867"></scales>
<clustering>
<clus scale="   91.147">  7  8 -1 -1</clus>
<clus scale="   91.550">  5  6 -1 -1</clus>
<clus scale="   92.467">  1  7  2 -1</clus>
<clus scale="  108.889">  2  9  1 -1</clus>
<clus scale="  108.889">  2  5  1 -1</clus>
</clustering>
</event>
<event>
 9    1  0.1612788E-005  0.1380255E+03  0.7546771E-02  0.1216592E+00
         -1   -1    0    0    0  501 -0.00000000000E+00  0.00000000000E+00  0.32118761318E+03  0.32118761318E+03  0.00000000000E+00 0.  1.
          1   -1    0    0  502    0  0.00000000000E+00 -0.00000000000E+00 -0.10238585406E+03  0.10238585406E+03  0.00000000000E+00 0. -1.
         23    2    1    2    0    0 -0.72805915500E+02 -0.18712730649E+01  0.10678039407E+03  0.15744779976E+03  0.89908587445E+02 0.  0.
         23    2    1    2    0    0  0.11606878029E+03  0.64874017361E+02  0.55955825786E+02  0.17133977217E+03  0.92442756352E+02 0.  0.
        -11    1    3    3    0    0 -0.26441221976E+02 -0.13956428741E+02  0.10535230438E+03  0.10951268493E+03  0.00000000000E+00 0.  1.
         11    1    3    3    0    0 -0.46364693523E+02  0.12085155676E+02  0.14280896895E+01  0.47935114826E+02  0.00000000000E+00 0. -1.
        -13    1    4    4    0    0  0.88675501887E+02  0.67156131080E+02  0.78205146635E+02  0.13597549609E+03  0.00000000000E+00 0. -1.
         13    1    4    4    0    0  0.27393278401E+02 -0.22821137185E+01 -0.22249320848E+02  0.35364276082E+02  0.00000000000E+00 0.  1.
         21    1    1    2  502  501 -0.43262864789E+02 -0.63002744296E+02  0.56065539259E+02  0.94785895317E+02  0.00000000000E+00 0.  1.
<scales pt_clust_5="13000.00000" pt_clust_6="13000.00000" pt_clust_7="13000.00000" pt_clust_8="13000.00000" pt_clust_9="76.42657"></scales>
<clustering>
<clus scale="   76.427">  1  9  2 -1</clus>
<clus scale="   89.909">  5  6 -1 -1</clus>
<clus scale="   92.443">  7  8 -1 -1</clus>
<clus scale="  136.341">  1  5  2 -1</clus>
<clus scale="  138.025">  2  5  1 -1</clus>
</clustering>
</event>
<event>
 9    1  0.1612788E-005  0.9314252E+02  0.7546771E-02  0.1295729E+00
         -1   -1    0    0    0  501 -0.00000000000E+00  0.00000000000E+00  0.42780387191E+02  0.42780387191E+02  0.00000000000E+00 0.  1.
          1   -1    0    0  502    0  0.00000000000E+00 -0.00000000000E+00 -0.34931051447E+03  0.34931051447E+03  0.00000000000E+00 0. -1.
         23    2    1    2    0    0  0.83968306424E+00  0.16449199887E+02 -0.12037199615E+03  0.15149427219E+03  0.90497601089E+02 0.  0.
         23    2    1    2    0    0  0.20344616167E+02 -0.20259895419E+02 -0.19552207908E+03  0.21712367791E+03  0.89941321600E+02 0.  0.
        -13    1    3    3    0    0 -0.19072794993E+02  0.43251216673E+02 -0.32154753992E+02  0.57169637543E+02  0.00000000000E+00 0.  1.
         13    1    3    3    0    0  0.19912478057E+02 -0.26802016785E+02 -0.88217242160E+02  0.94324634643E+02  0.00000000000E+00 0. -1.
        -13    1    4    4    0    0 -0.22500177212E+02  0.21196401582E+02 -0.98615100933E+02  0.10334642493E+03  0.00000000000E+00 0.  1.
         13    1    4    4    0    0  0.42844793379E+02 -0.41456297001E+02 -0.96906978146E+02  0.11377725297E+03  0.00000000000E+00 0. -1.
         21    1    1    2  502  501 -0.21184299231E+02  0.38106955317E+01  0.93639479487E+01  0.23472951572E+02  0.00000000000E+00 0.  1.
<scales pt_clust_5="13000.00000" pt_clust_6="13000.00000" pt_clust_7="13000.00000" pt_clust_8="13000.00000" pt_clust_9="21.52431"></scales>
<clustering>
<clus scale="   21.524">  1  9  2 -1</clus>
<clus scale="   89.941">  7  8 -1 -1</clus>
<clus scale="   90.498">  5  6 -1 -1</clus>
<clus scale="   92.602">  2  7  1 -1</clus>
<clus scale="   92.602">  2  5  1 -1</clus>
</clustering>
</event>
<event>
 9    1  0.1612788E-005  0.1173495E+03  0.7546771E-02  0.1249017E+00
         -1   -1    0    0    0  501 -0.00000000000E+00  0.00000000000E+00  0.16851605456E+03  0.16851605456E+03  0.00000000000E+00 0.  1.
          1   -1    0    0  502    0  0.00000000000E+00 -0.00000000000E+00 -0.21984923466E+03  0.21984923466E+03  0.00000000000E+00 0. -1.
         23    2    1    2    0    0  0.19992929033E+02  0.80514250621E+02 -0.25188286707E+02  0.12503057228E+03  0.90088470145E+02 0.  0.
         23    2    1    2    0    0 -0.73234803057E+02 -0.36148073615E+02 -0.10513133021E+03  0.15825421440E+03  0.85567401387E+02 0.  0.
        -11    1    4    4    0    0  0.51284505043E+01 -0.33736056682E+02 -0.11224623858E+02  0.35922342710E+02  0.00000000000E+00 0.  1.
         11    1    4    4    0    0 -0.78363253562E+02 -0.24120169328E+01 -0.93906706348E+02  0.12233187169E+03  0.00000000000E+00 0. -1.
        -13    1    3    3    0    0  0.41750487184E+02  0.19307332189E+02  0.15312015916E+02  0.48480244304E+02  0.00000000000E+00 0.  1.
         13    1    3    3    0    0 -0.21757558151E+02  0.61206918432E+02 -0.40500302623E+02  0.76550327976E+02  0.00000000000E+00 0. -1.
         21    1    1    2  502  501  0.53241874024E+02 -0.44366177006E+02  0.78986436815E+02  0.10508050253E+03  0.00000000000E+00 0.  1.
<scales pt_clust_5="13000.00000" pt_clust_6="13000.00000" pt_clust_7="13000.00000" pt_clust_8="13000.00000" pt_clust_9="69.30408"></scales>
<clustering>
<clus scale="   69.304">  1  9  2 -1</clus>
<clus scale="   85.567">  5  6 -1 -1</clus>
<clus scale="   90.088">  7  8 -1 -1</clus>
<clus scale="  113.916">  2  5  1 -1</clus>
<clus scale="  113.916">  2  5  1 -1</clus>
</clustering>
</event>
<event>
 9    1  0.1612788E-005  0.1057392E+03  0.7546771E-02  0.1269228E+00
          1   -1    0    0  502    0  0.00000000000E+00  0.00000000000E+00  0.48650242635E+03  0.48650242635E+03  0.00000000000E+00 0. -1.
         -1   -1    0    0    0  501 -0.00000000000E+00 -0.00000000000E+00 -0.47065624240E+02  0.47065624240E+02  0.00000000000E+00 0.  1.
         23    2    1    2    0    0 -0.17560438648E+02 -0.30781215419E+02  0.43583210263E+02  0.10701705767E+03  0.91089528415E+02 0.  0.
         23    2    1    2    0    0  0.31712410240E+02  0.45072786346E+02  0.39144673721E+03  0.40596100343E+03  0.92393480299E+02 0.  0.
        -11    1    4    4    0    0  0.90187974598E+01  0.70358377677E+02  0.30351021354E+03  0.31168909147E+03  0.00000000000E+00 0. -1.
         11    1    4    4    0    0  0.22693612780E+02 -0.25285591331E+02  0.87936523671E+02  0.94271911963E+02  0.00000000000E+00 0.  1.
        -13    1    3    3    0    0  0.15971795269E+02  0.21655854284E+02  0.35057522828E+02  0.44193938223E+02  0.00000000000E+00 0. -1.
         13    1    3    3    0    0 -0.33532233917E+02 -0.52437069703E+02  0.85256874350E+01  0.62823119444E+02  0.00000000000E+00 0.  1.
         21    1    1    2  502  501 -0.14151971591E+02 -0.14291570927E+02  0.44068546369E+01  0.20589989492E+02  0.00000000000E+00 0. -1.
<scales pt_clust_5="13000.00000" pt_clust_6="13000.00000" pt_clust_7="13000.00000" pt_clust_8="13000.00000" pt_clust_9="20.11286"></scales>
<clustering>
<clus scale="   20.113">  2  9  1 -1</clus>
<clus scale="   91.090">  7  8 -1 -1</clus>
<clus scale="   92.393">  5  6 -1 -1</clus>
<clus scale="  104.602">  2  7  1 -1</clus>
<clus scale="  105.739">  1  5  2 -1</clus>
</clustering>
</event>
<event>
 9    1  0.1612788E-005  0.1530904E+03  0.7546771E-02  0.1198064E+00
         -2   -1    0    0    0  501 -0.00000000000E+00  0.00000000000E+00  0.21749450596E+03  0.21749450596E+03  0.00000000000E+00 0.  1.
          2   -1    0    0  502    0  0.00000000000E+00 -0.00000000000E+00 -0.34627899960E+03  0.34627899960E+03  0.00000000000E+00 0. -1.
         23    2    1    2    0    0  0.46065132856E+02  0.41240639783E+02  0.97539375180E+02  0.15021147516E+03  0.96056081145E+02 0.  0.
         23    2    1    2    0    0 -0.27491124612E+02 -0.12811389586E+03 -0.27120131585E+03  0.31403343322E+03  0.88870193079E+02 0.  0.
        -13    1    3    3    0    0  0.35533961556E+01  0.27897079120E+02  0.10164726637E+03  0.10546582578E+03  0.00000000000E+00 0.  1.
         13    1    3    3    0    0  0.42511736700E+02  0.13343560662E+02 -0.41078911881E+01  0.44745649380E+02  0.00000000000E+00 0. -1.
        -13    1    4    4    0    0 -0.53917608665E+02 -0.49833129506E+02 -0.10130200912E+03  0.12511013697E+03  0.00000000000E+00 0.  1.
         13    1    4    4    0    0  0.26426484053E+02 -0.78280766355E+02 -0.16989930672E+03  0.18892329625E+03  0.00000000000E+00 0. -1.
         21    1    1    2  502  501 -0.18574008244E+02  0.86873256078E+02  0.44877447027E+02  0.99528597175E+02  0.00000000000E+00 0.  1.
<scales pt_clust_5="13000.00000" pt_clust_6="13000.00000" pt_clust_7="13000.00000" pt_clust_8="13000.00000" pt_clust_9="88.83668"></scales>
<clustering>
<clus scale="   88.837">  1  9  2 -1</clus>
<clus scale="   88.870">  7  8 -1 -1</clus>
<clus scale="   96.056">  5  6 -1 -1</clus>
<clus scale="  148.687">  2  7  1 -1</clus>
<clus scale="  148.687">  2  5  1 -1</clus>
</clustering>
</event>
<event>
 9    1  0.1612788E-005  0.1110131E+03  0.7546771E-02  0.1264452E+00
         -1   -1    0    0    0  501 -0.00000000000E+00  0.00000000000E+00  0.33039079457E+02  0.33039079457E+02  0.00000000000E+00 0.  1.
          1   -1    0    0  502    0  0.00000000000E+00 -0.00000000000E+00 -0.54967562101E+03  0.54967562101E+03  0.00000000000E+00 0. -1.
         23    2    1    2    0    0 -0.18263761692E+02  0.28034758976E+02 -0.17824925050E+03  0.20101358800E+03  0.86684223226E+02 0.  0.
         23    2    1    2    0    0  0.38142763763E+02 -0.47953499264E+02 -0.33299900308E+03  0.35304863290E+03  0.10000296307E+03 0.  0.
        -13    1    4    4    0    0  0.50370243210E+02  0.15240234575E+02 -0.16222893825E+03  0.17055103212E+03  0.00000000000E+00 0.  1.
         13    1    4    4    0    0 -0.12227479448E+02 -0.63193733839E+02 -0.17077006483E+03  0.18249760078E+03  0.00000000000E+00 0. -1.
        -13    1    3    3    0    0 -0.51133205387E+02  0.25736608303E+02 -0.13505821514E+03  0.14668912426E+03  0.00000000000E+00 0.  1.
         13    1    3    3    0    0  0.32869443695E+02  0.22981506729E+01 -0.43191035359E+02  0.54324463741E+02  0.00000000000E+00 0. -1.
         21    1    1    2  502  501 -0.19879002070E+02  0.19918740288E+02 -0.53882879791E+01  0.28652479567E+02  0.00000000000E+00 0.  1.
<scales pt_clust_5="13000.00000" pt_clust_6="13000.00000" pt_clust_7="13000.00000" pt_clust_8="13000.00000" pt_clust_9="28.14127"></scales>
<clustering>
<clus scale="   28.141">  1  9  2 -1</clus>
<clus scale="   86.684">  7  8 -1 -1</clus>
<clus scale="   99.184">  1  7  2 -1</clus>
<clus scale="  100.003">  5  6 -1 -1</clus>
<clus scale="  111.013">  2  5  1 -1</clus>
</clustering>
</event>
<event>
 9    1  0.1612788E-005  0.1222949E+03  0.7546771E-02  0.1240089E+00
         -4   -1    0    0    0  501 -0.00000000000E+00  0.00000000000E+00  0.81698360475E+02  0.81698360475E+02  0.00000000000E+00 0.  1.
          4   -1    0    0  502    0  0.00000000000E+00 -0.00000000000E+00 -0.44294307451E+03  0.44294307451E+03  0.00000000000E+00 0. -1.
         23    2    1    2    0    0  0.88039983674E+02 -0.33790682516E+02 -0.42135593529E+01  0.12935011570E+03  0.88435566366E+02 0.  0.
         23    2    1    2    0    0 -0.78699992970E+02  0.14607254646E+02 -0.35349601555E+03  0.37366410172E+03  0.90875558446E+02 0.  0.
        -11    1    4    4    0    0 -0.94441438573E+02 -0.54039723599E+01 -0.29688354542E+03  0.31158983902E+03  0.00000000000E+00 0. -1.
         11    1    4    4    0    0  0.15741445603E+02  0.20011227006E+02 -0.56612470124E+02  0.62074262698E+02  0.00000000000E+00 0.  1.
        -11    1    3    3    0    0  0.90333297920E+02 -0.56307215279E+02 -0.71111819700E+00  0.10644770028E+03  0.00000000000E+00 0.  1.
         11    1    3    3    0    0 -0.22933142464E+01  0.22516532764E+02 -0.35024411559E+01  0.22902415418E+02  0.00000000000E+00 0. -1.
         21    1    1    2  502  501 -0.93399907036E+01  0.19183427869E+02 -0.35351391367E+01  0.21627217571E+02  0.00000000000E+00 0.  1.
<scales pt_clust_5="13000.00000" pt_clust_6="13000.00000" pt_clust_7="13000.00000" pt_clust_8="13000.00000" pt_clust_9="21.33634"></scales>
<clustering>
<clus scale="   21.336">  1  9  2 -1</clus>
<clus scale="   88.436">  7  8 -1 -1</clus>
<clus scale="   90.876">  5  6 -1 -1</clus>
<clus scale="  120.493">  1  7  2 -1</clus>
<clus scale="  122.295">  2  5  1 -1</clus>
</clustering>
</event>
<event>
 9    1  0.1612788E-005  0.1071105E+03  0.7546771E-02  0.1266166E+00
         -2   -1    0    0    0  501 -0.00000000000E+00  0.00000000000E+00  0.93915479251E+02  0.93915479251E+02  0.00000000000E+00 0.  1.
          2   -1    0    0  502    0  0.00000000000E+00 -0.00000000000E+00 -0.42823497746E+03  0.42823497746E+03  0.00000000000E+00 0. -1.
         23    2    1    2    0    0 -0.80126474946E+02  0.27236034194E+02 -0.10526935324E+03  0.16209645630E+03  0.89619031842E+02 0.  0.
         23    2    1    2    0    0  0.48744922601E+02 -0.96944338690E+01 -0.27967052569E+03  0.29796589756E+03  0.89989019571E+02 0.  0.
        -11    1    4    4    0    0  0.23593237330E+02  0.34346674499E+02 -0.19386253088E+03  0.19829023117E+03  0.00000000000E+00 0. -1.
         11    1    4    4    0    0  0.25151685272E+02 -0.44041108368E+02 -0.85807994808E+02  0.99675666394E+02  0.00000000000E+00 0.  1.
        -11    1    3    3    0    0 -0.72960563009E+02 -0.18400619232E+02 -0.51365015348E+02  0.91105385924E+02  0.00000000000E+00 0.  1.
         11    1    3    3    0    0 -0.71659119376E+01  0.45636653426E+02 -0.53904337895E+02  0.70991070380E+02  0.00000000000E+00 0. -1.
         21    1    1    2  502  501  0.31381552345E+02 -0.17541600325E+02  0.50620380726E+02  0.62088102842E+02  0.00000000000E+00 0.  1.
<scales pt_clust_5="13000.00000" pt_clust_6="13000.00000" pt_clust_7="13000.00000" pt_clust_8="13000.00000" pt_clust_9="35.95149"></scales>
<clustering>
<clus scale="   35.951">  1  9  2 -1</clus>
<clus scale="   89.619">  7  8 -1 -1</clus>
<clus scale="   89.989">  5  6 -1 -1</clus>
<clus scale="  106.800">  1  7  2 -1</clus>
<clus scale="  107.110">  2  5  1 -1</clus>
</clustering>
</event>
<event>
 9    1  0.1612788E-005  0.1013249E+03  0.7546771E-02  0.1277959E+00
         -3   -1    0    0    0  501 -0.00000000000E+00  0.00000000000E+00  0.93152599729E+02  0.93152599729E+02  0.00000000000E+00 0.  1.
          3   -1    0    0  502    0  0.00000000000E+00 -0.00000000000E+00 -0.37123236929E+03  0.37123236929E+03  0.00000000000E+00 0. -1.
         23    2    1    2    0    0 -0.82478868343E+01 -0.69639352948E+00 -0.51508225776E+02  0.10547526502E+03  0.91670178397E+02 0.  0.
         23    2    1    2    0    0 -0.87804783591E+01 -0.60693878688E+02 -0.26343747604E+03  0.28530380949E+03  0.90764068990E+02 0.  0.
        -11    1    3    3    0    0 -0.18589447125E+02 -0.42819606919E+02 -0.15763885893E+02  0.49270542716E+02  0.00000000000E+00 0.  1.
         11    1    3    3    0    0  0.10341560290E+02  0.42123213390E+02 -0.35744339883E+02  0.56204722303E+02  0.00000000000E+00 0. -1.
        -13    1    4    4    0    0 -0.38396888661E+02 -0.32016492825E+02 -0.61773104034E+02  0.79468819380E+02  0.00000000000E+00 0.  1.
         13    1    4    4    0    0  0.29616410302E+02 -0.28677385863E+02 -0.20166437200E+03  0.20583499011E+03  0.00000000000E+00 0. -1.
         21    1    1    2  502  501  0.17028365193E+02  0.61390272218E+02  0.36865932258E+02  0.73605894502E+02  0.00000000000E+00 0. -1.
<scales pt_clust_5="13000.00000" pt_clust_6="13000.00000" pt_clust_7="13000.00000" pt_clust_8="13000.00000" pt_clust_9="63.70817"></scales>
<clustering>
<clus scale="   63.708">  1  9  2 -1</clus>
<clus scale="   90.764">  7  8 -1 -1</clus>
<clus scale="   91.670">  5  6 -1 -1</clus>
<clus scale="  100.506">  2  7  1 -1</clus>
<clus scale="  100.506">  2  5  1 -1</clus>
</clustering>
</event>
<event>
 9    1  0.3689740E-005  0.9871063E+02  0.7546771E-02  0.1283459E+00
          3   -1    0    0  502    0  0.00000000000E+00  0.00000000000E+00  0.16500634238E+03  0.16500634238E+03  0.00000000000E+00 0. -1.
         -3   -1    0    0    0  501 -0.00000000000E+00 -0.00000000000E+00 -0.19189218732E+03  0.19189218732E+03  0.00000000000E+00 0.  1.
         23    2    1    2    0    0  0.34004672780E+02  0.92270974283E+01 -0.14949856845E+03  0.17912599353E+03  0.92167469823E+02 0.  0.
         23    2    1    2    0    0 -0.10758154052E+02 -0.84255426505E+01  0.12262090360E+03  0.15451220104E+03  0.93012937933E+02 0.  0.
        -11    1    3    3    0    0 -0.32116044084E+02  0.26228556489E+01 -0.48804389648E+02  0.58482374339E+02  0.00000000000E+00 0. -1.
         11    1    3    3    0    0  0.66120716865E+02  0.66042417794E+01 -0.10069417880E+03  0.12064361919E+03  0.00000000000E+00 0.  1.
        -13    1    4    4    0    0  0.11210259355E+02  0.22813996508E+02 -0.68377942299E+00  0.25428643412E+02  0.00000000000E+00 0.  1.
         13    1    4    4    0    0 -0.21968413407E+02 -0.31239539158E+02  0.12330468302E+03  0.12908355763E+03  0.00000000000E+00 0. -1.
         21    1    1    2  502  501 -0.23246518729E+02 -0.80155477781E+00 -0.81800979620E-02  0.23260335122E+02  0.00000000000E+00 0. -1.
<scales pt_clust_5="13000.00000" pt_clust_6="13000.00000" pt_clust_7="13000.00000" pt_clust_8="13000.00000" pt_clust_9="23.26033"></scales>
<clustering>
<clus scale="   23.260">  1  9  2 -1</clus>
<clus scale="   92.167">  5  6 -1 -1</clus>
<clus scale="   93.013">  7  8 -1 -1</clus>
<clus scale="   97.914">  2  5  1 -1</clus>
<clus scale="   23.260">  1  5  2 -1</clus>
</clustering>
</event>
<event>
 9    1  0.1612788E-005  0.1160696E+03  0.7546771E-02  0.1251874E+00
         -1   -1    0    0    0  501 -0.00000000000E+00  0.00000000000E+00  0.64197216521E+03  0.64197216521E+03  0.00000000000E+00 0.  1.
          1   -1    0    0  502    0  0.00000000000E+00 -0.00000000000E+00 -0.25478918299E+02  0.25478918299E+02  0.00000000000E+00 0. -1.
         23    2    1    2    0    0 -0.69664835337E+02 -0.20468540697E+02  0.28295413932E+03  0.30453176417E+03  0.86048823285E+02 0.  0.
         23    2    1    2    0    0  0.70472275748E+02 -0.52823196774E+01  0.25427247385E+03  0.27957090607E+03  0.92255926707E+02 0.  0.
        -11    1    4    4    0    0 -0.15158805002E+02 -0.18084259937E+02  0.99164815698E+02  0.10193375544E+03  0.00000000000E+00 0. -1.
         11    1    4    4    0    0  0.85631080750E+02  0.12801940260E+02  0.15510765816E+03  0.17763715063E+03  0.00000000000E+00 0.  1.
        -11    1    3    3    0    0 -0.60639265632E+02  0.15928887660E+02  0.10196364740E+03  0.11969726559E+03  0.00000000000E+00 0.  1.
         11    1    3    3    0    0 -0.90255697041E+01 -0.36397428357E+02  0.18099049192E+03  0.18483449858E+03  0.00000000000E+00 0. -1.
         21    1    1    2  502  501 -0.80744041174E+00  0.25750860375E+02  0.79266633738E+02  0.83348413267E+02  0.00000000000E+00 0.  1.
<scales pt_clust_5="13000.00000" pt_clust_6="13000.00000" pt_clust_7="13000.00000" pt_clust_8="13000.00000" pt_clust_9="25.76352"></scales>
<clustering>
<clus scale="   25.764">  1  9  2 -1</clus>
<clus scale="   86.049">  7  8 -1 -1</clus>
<clus scale="   92.256">  5  6 -1 -1</clus>
<clus scale="  111.200">  1  7  2 -1</clus>
<clus scale="  116.070">  2  5  1 -1</clus>
</clustering>
</event>
<event>
 9    1  0.1612788E-005  0.1322995E+03  0.7546771E-02  0.1232360E+00
          1   -1    0    0  502    0  0.00000000000E+00  0.00000000000E+00  0.15233259289E+03  0.15233259289E+03  0.00000000000E+00 0. -1.
         -1   -1    0    0    0  501 -0.00000000000E+00 -0.00000000000E+00 -0.31346442537E+03  0.31346442537E+03  0.00000000000E+00 0.  1.
         23    2    1    2    0    0  0.34026350434E+02 -0.40350016126E+02 -0.16884552502E+03  0.19825039994E+03  0.89490186239E+02 0.  0.
         23    2    1    2    0    0  0.40854788482E+02  0.64709075773E+02  0.81226441824E+02  0.15982163023E+03  0.11440647014E+03 0.  0.
        -11    1    3    3    0    0  0.33199753776E+02  0.12836107080E+02 -0.12293706619E+03  0.12798637248E+03  0.00000000000E+00 0. -1.
         11    1    3    3    0    0  0.82659665844E+00 -0.53186123206E+02 -0.45908458823E+02  0.70264027462E+02  0.00000000000E+00 0.  1.
        -11    1    4    4    0    0  0.59034161402E+02  0.47851457182E+02  0.11561446524E+01  0.76000860767E+02  0.00000000000E+00 0. -1.
         11    1    4    4    0    0 -0.18179372920E+02  0.16857618592E+02  0.80070297172E+02  0.83820769464E+02  0.00000000000E+00 0.  1.
         21    1    1    2  502  501 -0.74881138916E+02 -0.24359059648E+02 -0.73512749289E+02  0.10772498810E+03  0.00000000000E+00 0.  1.
<scales pt_clust_5="13000.00000" pt_clust_6="13000.00000" pt_clust_7="13000.00000" pt_clust_8="13000.00000" pt_clust_9="78.74356"></scales>
<clustering>
<clus scale="   78.744">  2  9  1 -1</clus>
<clus scale="   89.490">  5  6 -1 -1</clus>
<clus scale="  111.458">  2  5  1 -1</clus>
<clus scale="  114.406">  7  8 -1 -1</clus>
<clus scale="  132.299">  1  5  2 -1</clus>
</clustering>
</event>
<event>
 9    1  0.1612788E-005  0.9669168E+02  0.7546771E-02  0.1288703E+00
          2   -1    0    0  502    0  0.00000000000E+00  0.00000000000E+00  0.43839646041E+02  0.43839646041E+02  0.00000000000E+00 0. -1.
         -2   -1    0    0    0  501 -0.00000000000E+00 -0.00000000000E+00 -0.35529769366E+03  0.35529769366E+03  0.00000000000E+00 0.  1.
         23    2    1    2    0    0  0.26960935176E+02  0.35331338465E+02 -0.10699258350E+03  0.14851828605E+03  0.92925092766E+02 0.  0.
         23    2    1    2    0    0 -0.65081963054E+00 -0.14624812170E+02 -0.79842849270E+02  0.12157728311E+03  0.90508819963E+02 0.  0.
        -11    1    4    4    0    0 -0.32738858286E+02 -0.19533135374E+02 -0.30971175008E+01  0.38248769343E+02  0.00000000000E+00 0.  1.
         11    1    4    4    0    0  0.32088038656E+02  0.49083232041E+01 -0.76745731769E+02  0.83328513764E+02  0.00000000000E+00 0. -1.
        -13    1    3    3    0    0  0.53459215094E+02  0.49328416373E+02 -0.80778539331E+02  0.10870304852E+03  0.00000000000E+00 0.  1.
         13    1    3    3    0    0 -0.26498279918E+02 -0.13997077908E+02 -0.26214044165E+02  0.39815237536E+02  0.00000000000E+00 0. -1.
         21    1    1    2  502  501 -0.26310115546E+02 -0.20706526295E+02 -0.12462261485E+03  0.12904177054E+03  0.00000000000E+00 0. -1.
<scales pt_clust_5="13000.00000" pt_clust_6="13000.00000" pt_clust_7="13000.00000" pt_clust_8="13000.00000" pt_clust_9="33.48108"></scales>
<clustering>
<clus scale="   33.481">  2  9  1 -1</clus>
<clus scale="   90.509">  5  6 -1 -1</clus>
<clus scale="   92.925">  7  8 -1 -1</clus>
<clus scale="   94.372">  1  5  2 -1</clus>
<clus scale="   94.372">  1  5  2 -1</clus>
</clustering>
</event>
<event>
 9    1  0.1612788E-005  0.1716717E+03  0.7546771E-02  0.1176525E+00
          2   -1    0    0  502    0  0.00000000000E+00  0.00000000000E+00  0.86102437924E+03  0.86102437924E+03  0.00000000000E+00 0. -1.
         -2   -1    0    0    0  501 -0.00000000000E+00 -0.00000000000E+00 -0.49985249268E+02  0.49985249268E+02  0.00000000000E+00 0.  1.
         23    2    1    2    0    0 -0.15038538359E+03 -0.79249422201E+02  0.29553659746E+03  0.35311120998E+03  0.91920681344E+02 0.  0.
         23    2    1    2    0    0  0.12445479590E+03  0.39463830264E+02  0.44051963102E+03  0.46914187387E+03  0.94816466844E+02 0.  0.
        -11    1    3    3    0    0 -0.10833996354E+03 -0.21880580046E+02  0.23506194668E+03  0.25975070021E+03  0.00000000000E+00 0. -1.
         11    1    3    3    0    0 -0.42045420047E+02 -0.57368842155E+02  0.60474650778E+02  0.93360509766E+02  0.00000000000E+00 0.  1.
        -11    1    4    4    0    0  0.10260431664E+02  0.38834061551E+02  0.62882545295E+02  0.74616186564E+02  0.00000000000E+00 0.  1.
         11    1    4    4    0    0  0.11419436423E+03  0.62976871331E+00  0.37763708572E+03  0.39452568731E+03  0.00000000000E+00 0. -1.
         21    1    1    2  502  501  0.25930587690E+02  0.39785591937E+02  0.74982901497E+02  0.88756544663E+02  0.00000000000E+00 0. -1.
<scales pt_clust_5="13000.00000" pt_clust_6="13000.00000" pt_clust_7="13000.00000" pt_clust_8="13000.00000" pt_clust_9="47.48988"></scales>
<clustering>
<clus scale="   47.490">  2  9  1 -1</clus>
<clus scale="   91.921">  5  6 -1 -1</clus>
<clus scale="   94.816">  7  8 -1 -1</clus>
<clus scale="  170.089">  2  5  1 -1</clus>
<clus scale="  171.672">  1  5  2 -1</clus>
</clustering>
</event>
<event>
 9    1  0.1612788E-005  0.1021461E+03  0.7546771E-02  0.1277449E+00
          1   -1    0    0  502    0  0.00000000000E+00  0.00000000000E+00  0.13099896744E+03  0.13099896744E+03  0.00000000000E+00 0. -1.
         -1   -1    0    0    0  501 -0.00000000000E+00 -0.00000000000E+00 -0.11479638296E+03  0.11479638296E+03  0.00000000000E+00 0.  1.
         23    2    1    2    0    0 -0.54303832906E+01 -0.45020248199E+02 -0.28121634252E+01  0.10226789085E+03  0.91621511802E+02 0.  0.
         23    2    1    2    0    0  0.25458108225E+02  0.39309875837E+02  0.45599803865E+02  0.10975641694E+03  0.88168856947E+02 0.  0.
        -13    1    4    4    0    0 -0.19237619769E+02  0.22655374020E+02  0.53699489209E+02  0.61375786168E+02  0.00000000000E+00 0. -1.
         13    1    4    4    0    0  0.44695727994E+02  0.16654501817E+02 -0.80996853448E+01  0.48380630777E+02  0.00000000000E+00 0.  1.
        -13    1    3    3    0    0 -0.28508391141E+02  0.17873904127E+02  0.75280020499E+01  0.34480075828E+02  0.00000000000E+00 0.  1.
         13    1    3    3    0    0  0.23078007851E+02 -0.62894152327E+02 -0.10340165475E+02  0.67787815021E+02  0.00000000000E+00 0. -1.
         21    1    1    2  502  501 -0.20027724934E+02  0.57103723624E+01 -0.26585055956E+02  0.33771042606E+02  0.00000000000E+00 0. -1.
<scales pt_clust_5="13000.00000" pt_clust_6="13000.00000" pt_clust_7="13000.00000" pt_clust_8="13000.00000" pt_clust_9="20.82590"></scales>
<clustering>
<clus scale="   20.826">  2  9  1 -1</clus>
<clus scale="   88.169">  5  6 -1 -1</clus>
<clus scale="   91.622">  7  8 -1 -1</clus>
<clus scale="   99.061">  1  5  2 -1</clus>
<clus scale="   99.061">  1  5  2 -1</clus>
</clustering>
</event>
<event>
 9    1  0.1612788E-005  0.9769104E+02  0.7546771E-02  0.1285812E+00
          1   -1    0    0  502    0  0.00000000000E+00  0.00000000000E+00  0.12238994356E+03  0.12238994356E+03  0.00000000000E+00 0. -1.
         -1   -1    0    0    0  501 -0.00000000000E+00 -0.00000000000E+00 -0.15594504207E+03  0.15594504207E+03  0.00000000000E+00 0.  1.
         23    2    1    2    0    0 -0.16107203481E+02 -0.17188235070E+01 -0.67491878146E+02  0.11454856328E+03  0.91125316880E+02 0.  0.
         23    2    1    2    0    0  0.93857777751E+01  0.43632422255E+02  0.56992534208E+02  0.11548015834E+03  0.89975757394E+02 0.  0.
        -11    1    4    4    0    0 -0.13577214151E+02  0.66257053753E+02  0.44214194826E+02  0.80803669101E+02  0.00000000000E+00 0.  1.
         11    1    4    4    0    0  0.22962991926E+02 -0.22624631498E+02  0.12778339383E+02  0.34676489240E+02  0.00000000000E+00 0. -1.
        -11    1    3    3    0    0 -0.34122559102E+02  0.18774159926E+02  0.28991555063E+01  0.39054106356E+02  0.00000000000E+00 0.  1.
         11    1    3    3    0    0  0.18015355621E+02 -0.20492983433E+02 -0.70391033652E+02  0.75494456927E+02  0.00000000000E+00 0. -1.
         21    1    1    2  502  501  0.67214257062E+01 -0.41913598748E+02 -0.23055754571E+02  0.48306264008E+02  0.00000000000E+00 0. -1.
<scales pt_clust_5="13000.00000" pt_clust_6="13000.00000" pt_clust_7="13000.00000" pt_clust_8="13000.00000" pt_clust_9="42.44911"></scales>
<clustering>
<clus scale="   42.449">  2  9  1 -1</clus>
<clus scale="   89.976">  5  6 -1 -1</clus>
<clus scale="   91.125">  7  8 -1 -1</clus>
<clus scale="   96.620">  1  5  2 -1</clus>
<clus scale="   96.620">  1  5  2 -1</clus>
</clustering>
</event>
<event>
 9    1  0.1612788E-005  0.1464755E+03  0.7546771E-02  0.1206305E+00
         -1   -1    0    0    0  501 -0.00000000000E+00  0.00000000000E+00  0.63736022703E+02  0.63736022703E+02  0.00000000000E+00 0.  1.
          1   -1    0    0  502    0  0.00000000000E+00 -0.00000000000E+00 -0.56734106773E+03  0.56734106773E+03  0.00000000000E+00 0. -1.
         23    2    1    2    0    0  0.32893018893E+02  0.86204001090E+02 -0.92083328433E+02  0.15908489547E+03  0.91189824522E+02 0.  0.
         23    2    1    2    0    0 -0.17564138909E+02 -0.12306292292E+03 -0.40457874143E+03  0.43147356241E+03  0.83859972981E+02 0.  0.
        -13    1    4    4    0    0 -0.44753230661E+02 -0.10921166503E+03 -0.34321828092E+03  0.36294466216E+03  0.00000000000E+00 0. -1.
         13    1    4    4    0    0  0.27189091751E+02 -0.13851257890E+02 -0.61360460511E+02  0.68528900250E+02  0.00000000000E+00 0.  1.
        -13    1    3    3    0    0 -0.22787291559E+02 -0.81073688351E+00 -0.36369179177E+01  0.23089935531E+02  0.00000000000E+00 0. -1.
         13    1    3    3    0    0  0.55680310452E+02  0.87014737973E+02 -0.88446410515E+02  0.13599495994E+03  0.00000000000E+00 0.  1.
         21    1    1    2  502  501 -0.15328879984E+02  0.36858921827E+02 -0.69429751667E+01  0.40518632553E+02  0.00000000000E+00 0.  1.
<scales pt_clust_5="13000.00000" pt_clust_6="13000.00000" pt_clust_7="13000.00000" pt_clust_8="13000.00000" pt_clust_9="39.91935"></scales>
<clustering>
<clus scale="   39.919">  1  9  2 -1</clus>
<clus scale="   83.860">  5  6 -1 -1</clus>
<clus scale="   91.190">  7  8 -1 -1</clus>
<clus scale="  142.028">  2  5  1 -1</clus>
<clus scale="  142.028">  2  5  1 -1</clus>
</clustering>
</event>
<event>
 9    1  0.1612788E-005  0.2382160E+03  0.7546771E-02  0.1121054E+00
         -1   -1    0    0    0  501 -0.00000000000E+00  0.00000000000E+00  0.41705706417E+03  0.41705706417E+03  0.00000000000E+00 0.  1.
          1   -1    0    0  502    0  0.00000000000E+00 -0.00000000000E+00 -0.27352211805E+03  0.27352211805E+03  0.00000000000E+00 0. -1.
         23    2    1    2    0    0  0.54394047201E+02 -0.23351403130E+03  0.26960826509E+03  0.37217285567E+03  0.91304450664E+02 0.  0.
         23    2    1    2    0    0 -0.49915565225E+02  0.20976274810E+03 -0.15466819219E+03  0.28096507886E+03  0.92342578054E+02 0.  0.
        -13    1    3    3    0    0  0.13556729354E+02 -0.14025185606E+03  0.94637365923E+02  0.16973685242E+03  0.00000000000E+00 0.  1.
         13    1    3    3    0    0  0.40837317847E+02 -0.93262175234E+02  0.17497089917E+03  0.20243600326E+03  0.00000000000E+00 0. -1.
        -13    1    4    4    0    0 -0.14199883796E+02  0.10751061051E+03 -0.23683963708E+02  0.11100044239E+03  0.00000000000E+00 0.  1.
         13    1    4    4    0    0 -0.35715681429E+02  0.10225213758E+03 -0.13098422848E+03  0.16996463647E+03  0.00000000000E+00 0. -1.
         21    1    1    2  502  501 -0.44784819756E+01  0.23751283197E+02  0.28594873217E+02  0.37441247691E+02  0.00000000000E+00 0.  1.
<scales pt_clust_5="13000.00000" pt_clust_6="13000.00000" pt_clust_7="13000.00000" pt_clust_8="13000.00000" pt_clust_9="24.16982"></scales>
<clustering>
<clus scale="   24.170">  1  9  2 -1</clus>
<clus scale="   91.304">  5  6 -1 -1</clus>
<clus scale="   92.343">  7  8 -1 -1</clus>
<clus scale="  237.816">  1  5  2 -1</clus>
<clus scale="  238.216">  2  5  1 -1</clus>
</clustering>
</event>
<event>
 9    1  0.1612788E-005  0.1344063E+03  0.7546771E-02  0.1222360E+00
         -1   -1    0    0    0  501 -0.00000000000E+00  0.00000000000E+00  0.40126252181E+03  0.40126252181E+03  0.00000000000E+00 0.  1.
          1   -1    0    0  502    0  0.00000000000E+00 -0.00000000000E+00 -0.82542411947E+02  0.82542411947E+02  0.00000000000E+00 0. -1.
         23    2    1    2    0    0 -0.21825585176E+02  0.62002688481E+02  0.26058614372E+03  0.28360959921E+03  0.90601197117E+02 0.  0.
         23    2    1    2    0    0  0.32255548002E+02 -0.97088914279E+02  0.11041039971E+02  0.14054995701E+03  0.95737705217E+02 0.  0.
        -11    1    3    3    0    0  0.19916206409E+02  0.20179238294E+02  0.17218656052E+02  0.33171358913E+02  0.00000000000E+00 0. -1.
         11    1    3    3    0    0 -0.41741791586E+02  0.41823450186E+02  0.24336748767E+03  0.25043824030E+03  0.00000000000E+00 0.  1.
        -13    1    4    4    0    0 -0.28697084510E+02 -0.58839535569E+01 -0.48969418425E+01  0.29700565790E+02  0.00000000000E+00 0.  1.
         13    1    4    4    0    0  0.60952632512E+02 -0.91204960722E+02  0.15937981813E+02  0.11084939122E+03  0.00000000000E+00 0. -1.
         21    1    1    2  502  501 -0.10429962826E+02  0.35086225799E+02  0.47092926176E+02  0.59645377534E+02  0.00000000000E+00 0. -1.
<scales pt_clust_5="13000.00000" pt_clust_6="13000.00000" pt_clust_7="13000.00000" pt_clust_8="13000.00000" pt_clust_9="36.60365"></scales>
<clustering>
<clus scale="   36.604">  1  9  2 -1</clus>
<clus scale="   90.601">  5  6 -1 -1</clus>
<clus scale="   95.738">  7  8 -1 -1</clus>
<clus scale="  130.797">  1  5  2 -1</clus>
<clus scale="  134.406">  2  5  1 -1</clus>
</clustering>
</event>
<event>
 9    1  0.1612788E-005  0.1022495E+03  0.7546771E-02  0.1278389E+00
          1   -1    0    0  502    0  0.00000000000E+00  0.00000000000E+00  0.86442475408E+02  0.86442475408E+02  0.00000000000E+00 0. -1.
         -1   -1    0    0    0  501 -0.00000000000E+00 -0.00000000000E+00 -0.22605330097E+03  0.22605330097E+03  0.00000000000E+00 0.  1.
         23    2    1    2    0    0  0.43714954136E+02 -0.28497820699E+02 -0.42374708106E+02  0.11392055260E+03  0.91973656103E+02 0.  0.
         23    2    1    2    0    0 -0.11596968883E+02  0.43434659472E+02 -0.22080247478E+01  0.97160172962E+02  0.86105542830E+02 0.  0.
        -11    1    4    4    0    0  0.23847428516E+02 -0.15291048714E+02  0.22805660308E+01  0.28420362401E+02  0.00000000000E+00 0.  1.
         11    1    4    4    0    0 -0.35444397398E+02  0.58725708186E+02 -0.44885907786E+01  0.68739810561E+02  0.00000000000E+00 0. -1.
        -11    1    3    3    0    0  0.66136534709E+02  0.27402086955E+01 -0.18776068364E+02  0.68804728836E+02  0.00000000000E+00 0. -1.
         11    1    3    3    0    0 -0.22421580573E+02 -0.31238029394E+02 -0.23598639742E+02  0.45115823760E+02  0.00000000000E+00 0.  1.
         21    1    1    2  502  501 -0.32117985254E+02 -0.14936838773E+02 -0.95028092711E+02  0.10141505082E+03  0.00000000000E+00 0.  1.
<scales pt_clust_5="13000.00000" pt_clust_6="13000.00000" pt_clust_7="13000.00000" pt_clust_8="13000.00000" pt_clust_9="35.42138"></scales>
<clustering>
<clus scale="   35.421">  2  9  1 -1</clus>
<clus scale="   86.106">  5  6 -1 -1</clus>
<clus scale="   91.974">  7  8 -1 -1</clus>
<clus scale="   97.005">  1  5  2 -1</clus>
<clus scale="   97.005">  1  5  2 -1</clus>
</clustering>
</event>
<event>
 9    1  0.1612788E-005  0.1635375E+03  0.7546771E-02  0.1185168E+00
         -2   -1    0    0    0  501 -0.00000000000E+00  0.00000000000E+00  0.29567207417E+03  0.29567207417E+03  0.00000000000E+00 0.  1.
          2   -1    0    0  502    0  0.00000000000E+00 -0.00000000000E+00 -0.27465259093E+03  0.27465259093E+03  0.00000000000E+00 0. -1.
         23    2    1    2    0    0  0.68861408716E+02 -0.86980256263E+02  0.70617600441E+02  0.16112269824E+03  0.93092533575E+02 0.  0.
         23    2    1    2    0    0 -0.85149133876E+02  0.11199540785E+03 -0.19721653728E+03  0.25859570621E+03  0.90465630554E+02 0.  0.
        -11    1    3    3    0    0  0.31816904000E+02 -0.33828310731E+02 -0.19304228703E+02  0.50292377483E+02  0.00000000000E+00 0. -1.
         11    1    3    3    0    0  0.37044504716E+02 -0.53151945532E+02  0.89921829143E+02  0.11083032076E+03  0.00000000000E+00 0.  1.
        -11    1    4    4    0    0  0.31855948986E+00  0.51286621795E+02 -0.11310311389E+03  0.12418829827E+03  0.00000000000E+00 0.  1.
         11    1    4    4    0    0 -0.85467693366E+02  0.60708786052E+02 -0.84113423390E+02  0.13440740793E+03  0.00000000000E+00 0. -1.
         21    1    1    2  502  501  0.16287725161E+02 -0.25015151584E+02  0.14761842008E+03  0.15060626065E+03  0.00000000000E+00 0.  1.
<scales pt_clust_5="13000.00000" pt_clust_6="13000.00000" pt_clust_7="13000.00000" pt_clust_8="13000.00000" pt_clust_9="29.85042"></scales>
<clustering>
<clus scale="   29.850">  1  9  2 -1</clus>
<clus scale="   90.466">  7  8 -1 -1</clus>
<clus scale="   93.093">  5  6 -1 -1</clus>
<clus scale="  162.057">  2  7  1 -1</clus>
<clus scale="  162.057">  2  5  1 -1</clus>
</clustering>
</event>
<event>
 9    1  0.1612788E-005  0.1012980E+03  0.7546771E-02  0.1279476E+00
          2   -1    0    0  502    0  0.00000000000E+00  0.00000000000E+00  0.51600856156E+02  0.51600856156E+02  0.00000000000E+00 0. -1.
         -2   -1    0    0    0  501 -0.00000000000E+00 -0.00000000000E+00 -0.36186953413E+03  0.36186953413E+03  0.00000000000E+00 0.  1.
         23    2    1    2    0    0 -0.56626363938E+02  0.30920135351E+02 -0.22632860866E+03  0.25344643748E+03  0.94063051789E+02 0.  0.
         23    2    1    2    0    0  0.25186235784E+02 -0.15841246458E+02 -0.37879271353E+02  0.10225327116E+03  0.90197564838E+02 0.  0.
        -11    1    4    4    0    0 -0.32166487191E+02 -0.59381222750E+01 -0.28331782023E+02  0.43273942124E+02  0.00000000000E+00 0.  1.
         11    1    4    4    0    0  0.57352722975E+02 -0.99031241828E+01 -0.95474893303E+01  0.58979329038E+02  0.00000000000E+00 0. -1.
        -11    1    3    3    0    0 -0.68853370966E+02 -0.10885835117E+02 -0.15348854512E+03  0.16857645619E+03  0.00000000000E+00 0.  1.
         11    1    3    3    0    0  0.12227007029E+02  0.41805970467E+02 -0.72840063544E+02  0.84869981293E+02  0.00000000000E+00 0. -1.
         21    1    1    2  502  501  0.31440128153E+02 -0.15078888893E+02 -0.46060797960E+02  0.57770681641E+02  0.00000000000E+00 0. -1.
<scales pt_clust_5="13000.00000" pt_clust_6="13000.00000" pt_clust_7="13000.00000" pt_clust_8="13000.00000" pt_clust_9="34.86911"></scales>
<clustering>
<clus scale="   34.869">  2  9  1 -1</clus>
<clus scale="   90.198">  5  6 -1 -1</clus>
<clus scale="   94.063">  7  8 -1 -1</clus>
<clus scale="   97.719">  1  5  2 -1</clus>
<clus scale="   97.719">  1  5  2 -1</clus>
</clustering>
</event>
<event>
 9    1  0.1612788E-005  0.1676345E+03  0.7546771E-02  0.1181132E+00
          1   -1    0    0  502    0  0.00000000000E+00  0.00000000000E+00  0.16134041896E+03  0.16134041896E+03  0.00000000000E+00 0. -1.
         -1   -1    0    0    0  501 -0.00000000000E+00 -0.00000000000E+00 -0.30557525030E+03  0.30557525030E+03  0.00000000000E+00 0.  1.
         23    2    1    2    0    0  0.72193175555E+02  0.13591019892E+03 -0.98808872193E+02  0.20463421281E+03  0.91807031648E+02 0.  0.
         23    2    1    2    0    0 -0.82908278570E+02 -0.10067473222E+03  0.41595867248E+02  0.16778727772E+03  0.97021492620E+02 0.  0.
        -11    1    3    3    0    0  0.83587491715E+02  0.71498440326E+02 -0.81713051126E+02  0.13702524754E+03  0.00000000000E+00 0.  1.
         11    1    3    3    0    0 -0.11394316160E+02  0.64411758595E+02 -0.17095821066E+02  0.67608965263E+02  0.00000000000E+00 0. -1.
        -11    1    4    4    0    0 -0.64738480460E+02 -0.50860710990E+01  0.11579006474E+02  0.65962204045E+02  0.00000000000E+00 0.  1.
         11    1    4    4    0    0 -0.18169798110E+02 -0.95588661126E+02  0.30016860774E+02  0.10182507368E+03  0.00000000000E+00 0. -1.
         21    1    1    2  502  501  0.10715103015E+02 -0.35235466696E+02 -0.87021826388E+02  0.94494178730E+02  0.00000000000E+00 0.  1.
<scales pt_clust_5="13000.00000" pt_clust_6="13000.00000" pt_clust_7="13000.00000" pt_clust_8="13000.00000" pt_clust_9="36.82868"></scales>
<clustering>
<clus scale="   36.829">  2  9  1 -1</clus>
<clus scale="   91.807">  5  6 -1 -1</clus>
<clus scale="   97.021">  7  8 -1 -1</clus>
<clus scale="  164.671">  2  5  1 -1</clus>
<clus scale="  167.635">  1  5  2 -1</clus>
</clustering>
</event>
<event>
 9    1  0.1612788E-005  0.1350495E+03  0.7546771E-02  0.1220451E+00
          2   -1    0    0  502    0  0.00000000000E+00  0.00000000000E+00  0.10614448424E+03  0.10614448424E+03  0.00000000000E+00 0. -1.
         -2   -1    0    0    0  501 -0.00000000000E+00 -0.00000000000E+00 -0.24808777680E+03  0.24808777680E+03  0.00000000000E+00 0.  1.
         23    2    1    2    0    0 -0.64189018890E+02 -0.70443962274E+02 -0.12419699398E+03  0.18094540871E+03  0.90740099473E+02 0.  0.
         23    2    1    2    0    0  0.84694072191E+02  0.58149661218E+02  0.10074244846E+02  0.13660457206E+03  0.89469825832E+02 0.  0.
        -13    1    4    4    0    0  0.44622096940E+02  0.52243197911E+02 -0.34073366159E+02  0.76690791786E+02  0.00000000000E+00 0.  1.
         13    1    4    4    0    0  0.40071975251E+02  0.59064633062E+01  0.44147611005E+02  0.59913780274E+02  0.00000000000E+00 0. -1.
        -13    1    3    3    0    0 -0.31667760276E+02  0.11616573933E+02 -0.73801626603E+01  0.34529098333E+02  0.00000000000E+00 0. -1.
         13    1    3    3    0    0 -0.32521258614E+02 -0.82060536207E+02 -0.11681683132E+03  0.14641631038E+03  0.00000000000E+00 0.  1.
         21    1    1    2  502  501 -0.20505053301E+02  0.12294301057E+02 -0.27820543427E+02  0.36682280272E+02  0.00000000000E+00 0. -1.
<scales pt_clust_5="13000.00000" pt_clust_6="13000.00000" pt_clust_7="13000.00000" pt_clust_8="13000.00000" pt_clust_9="23.90831"></scales>
<clustering>
<clus scale="   23.908">  2  9  1 -1</clus>
<clus scale="   89.470">  5  6 -1 -1</clus>
<clus scale="   90.740">  7  8 -1 -1</clus>
<clus scale="  134.199">  1  5  2 -1</clus>
<clus scale="  134.199">  1  5  2 -1</clus>
</clustering>
</event>
<event>
 9    1  0.1612788E-005  0.1116069E+03  0.7546771E-02  0.1258336E+00
         -1   -1    0    0    0  501 -0.00000000000E+00  0.00000000000E+00  0.98159153346E+02  0.98159153346E+02  0.00000000000E+00 0.  1.
          1   -1    0    0  502    0  0.00000000000E+00 -0.00000000000E+00 -0.32892713846E+03  0.32892713846E+03  0.00000000000E+00 0. -1.
         23    2    1    2    0    0 -0.75265797535E+02  0.20552613559E+02  0.25578340599E+02  0.12178120475E+03  0.89939202354E+02 0.  0.
         23    2    1    2    0    0  0.54925597420E+02 -0.34209550779E+02 -0.25858087321E+03  0.28070368715E+03  0.87996462262E+02 0.  0.
        -13    1    3    3    0    0  0.20233546958E+02  0.16614956487E+01 -0.25198367996E+01  0.20457433070E+02  0.00000000000E+00 0. -1.
         13    1    3    3    0    0 -0.95499344494E+02  0.18891117910E+02  0.28098177399E+02  0.10132377168E+03  0.00000000000E+00 0.  1.
        -13    1    4    4    0    0 -0.16329976335E+02  0.12919083543E+02 -0.28670907920E+02  0.35434330919E+02  0.00000000000E+00 0.  1.
         13    1    4    4    0    0  0.71255573755E+02 -0.47128634322E+02 -0.22990996529E+03  0.24526935623E+03  0.00000000000E+00 0. -1.
         21    1    1    2  502  501  0.20340200116E+02  0.13656937220E+02  0.22345474966E+01  0.24601399909E+02  0.00000000000E+00 0. -1.
<scales pt_clust_5="13000.00000" pt_clust_6="13000.00000" pt_clust_7="13000.00000" pt_clust_8="13000.00000" pt_clust_9="24.49971"></scales>
<clustering>
<clus scale="   24.500">  1  9  2 -1</clus>
<clus scale="   87.996">  7  8 -1 -1</clus>
<clus scale="   89.939">  5  6 -1 -1</clus>
<clus scale="  110.047">  2  7  1 -1</clus>
<clus scale="  110.047">  2  5  1 -1</clus>
</clustering>
</event>
<event>
 9    1  0.1612788E-005  0.1169513E+03  0.7546771E-02  0.1248497E+00
         -1   -1    0    0    0  501 -0.00000000000E+00  0.00000000000E+00  0.38447398940E+02  0.38447398940E+02  0.00000000000E+00 0.  1.
          1   -1    0    0  502    0  0.00000000000E+00 -0.00000000000E+00 -0.59181954234E+03  0.59181954234E+03  0.00000000000E+00 0. -1.
         23    2    1    2    0    0 -0.16714945784E+02 -0.52374886898E+02 -0.76980002650E+02  0.13139791695E+03  0.91197442836E+02 0.  0.
         23    2    1    2    0    0  0.20956560660E+02  0.75822219195E+02 -0.43410444626E+03  0.45033019664E+03  0.90346164193E+02 0.  0.
        -11    1    3    3    0    0 -0.27345157431E+02 -0.75816096416E+02 -0.55288917773E+02  0.97737927844E+02  0.00000000000E+00 0.  1.
         11    1    3    3    0    0  0.10630211646E+02  0.23441209518E+02 -0.21691084877E+02  0.33659989103E+02  0.00000000000E+00 0. -1.
        -13    1    4    4    0    0 -0.18288889171E+02  0.22150787816E+02 -0.32994053142E+02  0.43746410261E+02  0.00000000000E+00 0.  1.
         13    1    4    4    0    0  0.39245449831E+02  0.53671431379E+02 -0.40111039312E+03  0.40658378638E+03  0.00000000000E+00 0. -1.
         21    1    1    2  502  501 -0.42416148763E+01 -0.23447332297E+02 -0.42287694491E+02  0.48538827694E+02  0.00000000000E+00 0.  1.
<scales pt_clust_5="13000.00000" pt_clust_6="13000.00000" pt_clust_7="13000.00000" pt_clust_8="13000.00000" pt_clust_9="23.82790"></scales>
<clustering>
<clus scale="   23.828">  1  9  2 -1</clus>
<clus scale="   90.346">  7  8 -1 -1</clus>
<clus scale="   91.197">  5  6 -1 -1</clus>
<clus scale="  116.289">  2  7  1 -1</clus>
<clus scale="  116.289">  2  5  1 -1</clus>
</clustering>
</event>
<event>
 9    1  0.1612788E-005  0.2204467E+03  0.7546771E-02  0.1162877E+00
         -1   -1    0    0    0  501 -0.00000000000E+00  0.00000000000E+00  0.50028476438E+03  0.50028476438E+03  0.00000000000E+00 0.  1.
          1   -1    0    0  502    0  0.00000000000E+00 -0.00000000000E+00 -0.30309161623E+03  0.30309161623E+03  0.00000000000E+00 0. -1.
         23    2    1    2    0    0  0.10504660894E+03  0.16693370765E+03  0.35573460101E+03  0.41680910629E+03  0.91000395209E+02 0.  0.
         23    2    1    2    0    0 -0.21858681716E+02  0.46911037607E+02 -0.38627740852E+01  0.10984485026E+03  0.96811790031E+02 0.  0.
        -11    1    3    3    0    0  0.47080913145E+02  0.89744936407E+02  0.95514471442E+02  0.13926155337E+03  0.00000000000E+00 0. -1.
         11    1    3    3    0    0  0.57965695791E+02  0.77188771240E+02  0.26022012957E+03  0.27754755291E+03  0.00000000000E+00 0.  1.
        -13    1    4    4    0    0  0.30289477110E+02 -0.67679562363E+01 -0.14495115300E+02  0.34254430702E+02  0.00000000000E+00 0.  1.
         13    1    4    4    0    0 -0.52148158826E+02  0.53678993843E+02  0.10632341215E+02  0.75590419556E+02  0.00000000000E+00 0. -1.
         21    1    1    2  502  501 -0.83187927220E+02 -0.21384474525E+03 -0.15467867878E+03  0.27672242406E+03  0.00000000000E+00 0. -1.
<scales pt_clust_5="13000.00000" pt_clust_6="13000.00000" pt_clust_7="13000.00000" pt_clust_8="13000.00000" pt_clust_9="200.78760"></scales>
<clustering>
<clus scale="   91.000">  5  6 -1 -1</clus>
<clus scale="   96.812">  7  8 -1 -1</clus>
<clus scale="  109.777">  2  7  1 -1</clus>
<clus scale="  200.788">  2  9  1 -1</clus>
<clus scale="  109.777">  2  5  1 -1</clus>
</clustering>
</event>
<event>
 9    1  0.1612788E-005  0.1380806E+03  0.7546771E-02  0.1216486E+00
         -2   -1    0    0    0  501 -0.00000000000E+00  0.00000000000E+00  0.76989786618E+02  0.76989786618E+02  0.00000000000E+00 0.  1.
          2   -1    0    0  502    0  0.00000000000E+00 -0.00000000000E+00 -0.52666045947E+03  0.52666045947E+03  0.00000000000E+00 0. -1.
         23    2    1    2    0    0  0.51495450201E+02  0.88275857498E+02 -0.55551412848E+02  0.14803561044E+03  0.91565135731E+02 0.  0.
         23    2    1    2    0    0 -0.69179290111E+02 -0.74224896295E+02 -0.40683918573E+03  0.42969274885E+03  0.93928834568E+02 0.  0.
        -11    1    4    4    0    0 -0.28910572716E+02  0.57410742342E+01 -0.28849342268E+02  0.41243977711E+02  0.00000000000E+00 0.  1.
         11    1    4    4    0    0 -0.40268717395E+02 -0.79965970529E+02 -0.37798984346E+03  0.38844877114E+03  0.00000000000E+00 0. -1.
        -13    1    3    3    0    0  0.36795955825E+01  0.89217883275E+02 -0.33491965423E+02  0.95368138639E+02  0.00000000000E+00 0.  1.
         13    1    3    3    0    0  0.47815854619E+02 -0.94202577646E+00 -0.22059447425E+02  0.52667471804E+02  0.00000000000E+00 0. -1.
         21    1    1    2  502  501  0.17683839910E+02 -0.14050961203E+02  0.12719925720E+02  0.25921886795E+02  0.00000000000E+00 0.  1.
<scales pt_clust_5="13000.00000" pt_clust_6="13000.00000" pt_clust_7="13000.00000" pt_clust_8="13000.00000" pt_clust_9="22.58645"></scales>
<clustering>
<clus scale="   22.586">  1  9  2 -1</clus>
<clus scale="   91.565">  7  8 -1 -1</clus>
<clus scale="   93.929">  5  6 -1 -1</clus>
<clus scale="  136.484">  1  7  2 -1</clus>
<clus scale="  138.081">  2  5  1 -1</clus>
</clustering>
</event>
<event>
 9    1  0.1612788E-005  0.9737090E+02  0.7546771E-02  0.1287037E+00
         -3   -1    0    0    0  501 -0.00000000000E+00  0.00000000000E+00  0.70813729310E+02  0.70813729310E+02  0.00000000000E+00 0.  1.
          3   -1    0    0  502    0  0.00000000000E+00 -0.00000000000E+00 -0.25797606833E+03  0.25797606833E+03  0.00000000000E+00 0. -1.
         23    2    1    2    0    0  0.24037049349E+02  0.80482441976E+01 -0.78959104826E+02  0.12234933632E+03  0.89957022441E+02 0.  0.
         23    2    1    2    0    0 -0.23576637934E+02 -0.30396932187E+02 -0.13730305632E+03  0.16974610915E+03  0.92096584927E+02 0.  0.
        -11    1    3    3    0    0 -0.56643015841E+01  0.37794665493E+02 -0.67679407561E+01  0.38811416803E+02  0.00000000000E+00 0.  1.
         11    1    3    3    0    0  0.29701350933E+02 -0.29746421295E+02 -0.72191164070E+02  0.83537919515E+02  0.00000000000E+00 0. -1.
        -11    1    4    4    0    0 -0.46575353387E+02 -0.40395016717E+02 -0.12959114747E+03  0.14350918584E+03  0.00000000000E+00 0. -1.
         11    1    4    4    0    0  0.22998715453E+02  0.99980845301E+01 -0.77119088520E+01  0.26236923312E+02  0.00000000000E+00 0.  1.
         21    1    1    2  502  501 -0.46041141431E+00  0.22348687989E+02  0.29099822125E+02  0.36694352171E+02  0.00000000000E+00 0.  1.
<scales pt_clust_5="13000.00000" pt_clust_6="13000.00000" pt_clust_7="13000.00000" pt_clust_8="13000.00000" pt_clust_9="22.35343"></scales>
<clustering>
<clus scale="   22.353">  1  9  2 -1</clus>
<clus scale="   89.957">  5  6 -1 -1</clus>
<clus scale="   92.097">  7  8 -1 -1</clus>
<clus scale="   95.350">  1  5  2 -1</clus>
<clus scale="   97.371">  2  5  1 -1</clus>
</clustering>
</event>
<event>
 9    1  0.1612788E-005  0.1177814E+03  0.7546771E-02  0.1247030E+00
          1   -1    0    0  502    0  0.00000000000E+00  0.00000000000E+00  0.43379084967E+03  0.43379084967E+03  0.00000000000E+00 0. -1.
         -1   -1    0    0    0  501 -0.00000000000E+00 -0.00000000000E+00 -0.96468110494E+02  0.96468110494E+02  0.00000000000E+00 0.  1.
         23    2    1    2    0    0  0.19367980416E+02  0.69106149850E+02 -0.21750940791E+02  0.11897331458E+03  0.92362154284E+02 0.  0.
         23    2    1    2    0    0  0.97861491733E+01 -0.72318163996E+02  0.36292559032E+03  0.38170326028E+03  0.93041438309E+02 0.  0.
        -11    1    4    4    0    0 -0.35373305421E+02 -0.62798341186E+02  0.22462444997E+03  0.23590473907E+03  0.00000000000E+00 0. -1.
         11    1    4    4    0    0  0.45159454594E+02 -0.95198228106E+01  0.13830114034E+03  0.14579852121E+03  0.00000000000E+00 0.  1.
        -13    1    3    3    0    0 -0.25327713451E+02  0.41278146700E+02 -0.40450874661E+02  0.63100330621E+02  0.00000000000E+00 0.  1.
         13    1    3    3    0    0  0.44695693867E+02  0.27828003150E+02  0.18699933870E+02  0.55872983957E+02  0.00000000000E+00 0. -1.
         21    1    1    2  502  501 -0.29154129589E+02  0.32120141463E+01 -0.38519103500E+01  0.29582385305E+02  0.00000000000E+00 0. -1.
<scales pt_clust_5="13000.00000" pt_clust_6="13000.00000" pt_clust_7="13000.00000" pt_clust_8="13000.00000" pt_clust_9="29.33054"></scales>
<clustering>
<clus scale="   29.331">  2  9  1 -1</clus>
<clus scale="   92.362">  7  8 -1 -1</clus>
<clus scale="   93.041">  5  6 -1 -1</clus>
<clus scale="  117.245">  2  7  1 -1</clus>
<clus scale="  117.781">  1  5  2 -1</clus>
</clustering>
</event>
<event>
 9    1  0.1612788E-005  0.1035646E+03  0.7546771E-02  0.1274913E+00
          1   -1    0    0  502    0  0.00000000000E+00  0.00000000000E+00  0.81882826590E+02  0.81882826590E+02  0.00000000000E+00 0. -1.
         -1   -1    0    0    0  501 -0.00000000000E+00 -0.00000000000E+00 -0.28008119992E+03  0.28008119992E+03  0.00000000000E+00 0.  1.
         23    2    1    2    0    0  0.31285075589E+02 -0.96080135914E+01 -0.88036970753E+02  0.12752986161E+03  0.86268693652E+02 0.  0.
         23    2    1    2    0    0 -0.39575547164E+02 -0.63762100345E+02 -0.22455651892E+02  0.11978598898E+03  0.90623382632E+02 0.  0.
        -11    1    3    3    0    0  0.56731713400E+01  0.21255981908E+02  0.80357148353E+01  0.23421664178E+02  0.00000000000E+00 0. -1.
         11    1    3    3    0    0  0.25611904249E+02 -0.30863995500E+02 -0.96072685588E+02  0.10410819744E+03  0.00000000000E+00 0.  1.
        -11    1    4    4    0    0  0.22039053039E+02  0.59095845112E+01  0.38255739917E+01  0.23136077116E+02  0.00000000000E+00 0. -1.
         11    1    4    4    0    0 -0.61614600203E+02 -0.69671684856E+02 -0.26281225883E+02  0.96649911862E+02  0.00000000000E+00 0.  1.
         21    1    1    2  502  501  0.82904715756E+01  0.73370113936E+02 -0.87705750683E+02  0.11464817592E+03  0.00000000000E+00 0. -1.
<scales pt_clust_5="13000.00000" pt_clust_6="13000.00000" pt_clust_7="13000.00000" pt_clust_8="13000.00000" pt_clust_9="73.83702"></scales>
<clustering>
<clus scale="   73.837">  2  9  1 -1</clus>
<clus scale="   86.269">  5  6 -1 -1</clus>
<clus scale="   90.623">  7  8 -1 -1</clus>
<clus scale="   99.776">  2  5  1 -1</clus>
<clus scale="  103.565">  1  5  2 -1</clus>
</clustering>
</event>
<event>
 9    1  0.1612788E-005  0.1641811E+03  0.7546771E-02  0.1184539E+00
          1   -1    0    0  502    0  0.00000000000E+00  0.00000000000E+00  0.83348242757E+03  0.83348242757E+03  0.00000000000E+00 0. -1.
         -1   -1    0    0    0  501 -0.00000000000E+00 -0.00000000000E+00 -0.12291592138E+03  0.12291592138E+03  0.00000000000E+00 0.  1.
         23    2    1    2    0    0  0.38827958547E+02  0.20533573342E+03  0.35276218436E+03  0.41976178360E+03  0.89935657394E+02 0.  0.
         23    2    1    2    0    0 -0.68701634910E+02 -0.91905828088E+02  0.38944374265E+03  0.41514651262E+03  0.86681038140E+02 0.  0.
        -13    1    3    3    0    0  0.37557698724E+02  0.15058249636E+03  0.17572197779E+03  0.23444377241E+03  0.00000000000E+00 0.  1.
         13    1    3    3    0    0  0.12702598232E+01  0.54753237064E+02  0.17704020658E+03  0.18531801119E+03  0.00000000000E+00 0. -1.
        -13    1    4    4    0    0 -0.35228824288E+02 -0.10402391693E+02  0.38100583222E+02  0.52923853370E+02  0.00000000000E+00 0.  1.
         13    1    4    4    0    0 -0.33472810622E+02 -0.81503436395E+02  0.35134315943E+03  0.36222265925E+03  0.00000000000E+00 0. -1.
         21    1    1    2  502  501  0.29873676363E+02 -0.11342990533E+03 -0.31639420827E+02  0.12149005273E+03  0.00000000000E+00 0.  1.
<scales pt_clust_5="13000.00000" pt_clust_6="13000.00000" pt_clust_7="13000.00000" pt_clust_8="13000.00000" pt_clust_9="117.29783"></scales>
<clustering>
<clus scale="   86.681">  7  8 -1 -1</clus>
<clus scale="   89.936">  5  6 -1 -1</clus>
<clus scale="  117.298">  2  9  1 -1</clus>
<clus scale="  162.421">  1  7  2 -1</clus>
<clus scale="  162.421">  1  5  2 -1</clus>
</clustering>
</event>
<event>
 9    1  0.1612788E-005  0.9988040E+02  0.7546771E-02  0.1280900E+00
         -1   -1    0    0    0  501 -0.00000000000E+00  0.00000000000E+00  0.51747840012E+03  0.51747840012E+03  0.00000000000E+00 0.  1.
          1   -1    0    0  502    0  0.00000000000E+00 -0.00000000000E+00 -0.45411921274E+02  0.45411921274E+02  0.00000000000E+00 0. -1.
         23    2    1    2    0    0 -0.26176679640E+02  0.66386111052E+02  0.12453515379E+03  0.16900360062E+03  0.89223753535E+02 0.  0.
         23    2    1    2    0    0 -0.28315645715E+01 -0.28277534552E+02  0.81576368652E+02  0.12365389399E+03  0.88475673826E+02 0.  0.
        -13    1    3    3    0    0  0.24312489920E+02 -0.67344293176E+01  0.31404042986E+02  0.40282299093E+02  0.00000000000E+00 0. -1.
         13    1    3    3    0    0 -0.50489169561E+02  0.73120540369E+02  0.93131110801E+02  0.12872130152E+03  0.00000000000E+00 0.  1.
        -13    1    4    4    0    0  0.19265623732E+02  0.23909579275E+02  0.50279045973E+02  0.58913620690E+02  0.00000000000E+00 0.  1.
         13    1    4    4    0    0 -0.22097188303E+02 -0.52187113827E+02  0.31297322679E+02  0.64740273303E+02  0.00000000000E+00 0. -1.
         21    1    1    2  502  501  0.29008244212E+02 -0.38108576500E+02  0.26595495640E+03  0.27023282678E+03  0.00000000000E+00 0.  1.
<scales pt_clust_5="13000.00000" pt_clust_6="13000.00000" pt_clust_7="13000.00000" pt_clust_8="13000.00000" pt_clust_9="47.89302"></scales>
<clustering>
<clus scale="   47.893">  1  9  2 -1</clus>
<clus scale="   88.476">  7  8 -1 -1</clus>
<clus scale="   89.224">  5  6 -1 -1</clus>
<clus scale="   99.213">  2  7  1 -1</clus>
<clus scale="   99.213">  2  5  1 -1</clus>
</clustering>
</event>
<event>
 9    1  0.1612788E-005  0.1348548E+03  0.7546771E-02  0.1221085E+00
          3   -1    0    0  502    0  0.00000000000E+00  0.00000000000E+00  0.33483653499E+03  0.33483653499E+03  0.00000000000E+00 0. -1.
         -3   -1    0    0    0  501 -0.00000000000E+00 -0.00000000000E+00 -0.70368562218E+02  0.70368562218E+02  0.00000000000E+00 0.  1.
         23    2    1    2    0    0 -0.93605411895E+02  0.56013651586E+02  0.79297623862E+02  0.16515649810E+03  0.95336527181E+02 0.  0.
         23    2    1    2    0    0  0.80044625594E+02 -0.38144396513E+02  0.17001190546E+03  0.21297492906E+03  0.92693771836E+02 0.  0.
        -13    1    4    4    0    0  0.11659654630E+02  0.29660990560E+02  0.38673675247E+02  0.50113621543E+02  0.00000000000E+00 0.  1.
         13    1    4    4    0    0  0.68384970964E+02 -0.67805387073E+02  0.13133823022E+03  0.16286130752E+03  0.00000000000E+00 0. -1.
        -13    1    3    3    0    0  0.22816312640E+01 -0.21471833704E+02  0.11876088220E+02  0.24643192878E+02  0.00000000000E+00 0. -1.
         13    1    3    3    0    0 -0.95887043159E+02  0.77485485290E+02  0.67421535642E+02  0.14051330522E+03  0.00000000000E+00 0.  1.
         21    1    1    2  502  501  0.13560786300E+02 -0.17869255073E+02  0.15158443445E+02  0.27073670044E+02  0.00000000000E+00 0. -1.
<scales pt_clust_5="13000.00000" pt_clust_6="13000.00000" pt_clust_7="13000.00000" pt_clust_8="13000.00000" pt_clust_9="22.43224"></scales>
<clustering>
<clus scale="   22.432">  2  9  1 -1</clus>
<clus scale="   92.694">  5  6 -1 -1</clus>
<clus scale="   95.337">  7  8 -1 -1</clus>
<clus scale="  133.000">  1  5  2 -1</clus>
<clus scale="  133.000">  1  5  2 -1</clus>
</clustering>
</event>
<event>
 9    1  0.1612788E-005  0.3350198E+03  0.7546771E-02  0.1069602E+00
          2   -1    0    0  502    0  0.00000000000E+00  0.00000000000E+00  0.13496147206E+04  0.13496147206E+04  0.00000000000E+00 0. -1.
         -2   -1    0    0    0  501 -0.00000000000E+00 -0.00000000000E+00 -0.16072962472E+03  0.16072962472E+03  0.00000000000E+00 0.  1.
         23    2    1    2    0    0  0.10262256831E+03 -0.20323586807E+03  0.14208337745E+03  0.28429926674E+03  0.93819919659E+02 0.  0.
         23    2    1    2    0    0 -0.21667597508E+03  0.28511599738E+03  0.10147512168E+04  0.10820319895E+04  0.11328541011E+03 0.  0.
        -13    1    3    3    0    0  0.15527409733E+02 -0.11682955340E+03  0.10010058903E+03  0.15462979313E+03  0.00000000000E+00 0. -1.
         13    1    3    3    0    0  0.87095158573E+02 -0.86406314669E+02  0.41982788424E+02  0.12966947361E+03  0.00000000000E+00 0.  1.
        -13    1    4    4    0    0 -0.10223544904E+03  0.17756703794E+03  0.42628418052E+03  0.47296970576E+03  0.00000000000E+00 0.  1.
         13    1    4    4    0    0 -0.11444052604E+03  0.10754895944E+03  0.58846703626E+03  0.60906228371E+03  0.00000000000E+00 0. -1.
         21    1    1    2  502  501  0.11405340677E+03 -0.81880129316E+02  0.32050501615E+02  0.14401308908E+03  0.00000000000E+00 0.  1.
<scales pt_clust_5="13000.00000" pt_clust_6="13000.00000" pt_clust_7="13000.00000" pt_clust_8="13000.00000" pt_clust_9="140.40134"></scales>
<clustering>
<clus scale="   93.820">  5  6 -1 -1</clus>
<clus scale="  113.285">  7  8 -1 -1</clus>
<clus scale="  140.401">  2  9  1 -1</clus>
<clus scale="  328.948">  2  5  1 -1</clus>
<clus scale="  335.020">  1  5  2 -1</clus>
</clustering>
</event>
<event>
 9    1  0.1612788E-005  0.9257762E+02  0.7546771E-02  0.1297537E+00
         -2   -1    0    0    0  501 -0.00000000000E+00  0.00000000000E+00  0.27468674885E+03  0.27468674885E+03  0.00000000000E+00 0.  1.
          2   -1    0    0  502    0  0.00000000000E+00 -0.00000000000E+00 -0.22434343398E+03  0.22434343398E+03  0.00000000000E+00 0. -1.
         23    2    1    2    0    0  0.36534577843E+02 -0.11378001278E+01  0.21096352425E+03  0.23227422015E+03  0.90053510856E+02 0.  0.
         23    2    1    2    0    0 -0.12334907065E+02  0.55085128604E+01 -0.19999913901E+03  0.22032938306E+03  0.91448826054E+02 0.  0.
        -11    1    3    3    0    0 -0.22973001003E+02  0.21588931335E+02  0.49347583674E+02  0.58557875181E+02  0.00000000000E+00 0.  1.
         11    1    3    3    0    0  0.59507578845E+02 -0.22726731462E+02  0.16161594057E+03  0.17371634497E+03  0.00000000000E+00 0. -1.
        -13    1    4    4    0    0  0.27010245538E+02  0.31267756161E+02 -0.12646202214E+03  0.13304085456E+03  0.00000000000E+00 0.  1.
         13    1    4    4    0    0 -0.39345152603E+02 -0.25759243301E+02 -0.73537116878E+02  0.87288528499E+02  0.00000000000E+00 0. -1.
         21    1    1    2  502  501 -0.24199670778E+02 -0.43707127326E+01  0.39378929633E+02  0.46426579613E+02  0.00000000000E+00 0.  1.
<scales pt_clust_5="13000.00000" pt_clust_6="13000.00000" pt_clust_7="13000.00000" pt_clust_8="13000.00000" pt_clust_9="24.59120"></scales>
<clustering>
<clus scale="   24.591">  1  9  2 -1</clus>
<clus scale="   90.054">  5  6 -1 -1</clus>
<clus scale="   91.200">  1  5  2 -1</clus>
<clus scale="   91.449">  7  8 -1 -1</clus>
<clus scale="   92.578">  2  5  1 -1</clus>
</clustering>
</event>
<event>
 9    1  0.1612788E-005  0.1249632E+03  0.7546771E-02  0.1235407E+00
         -1   -1    0    0    0  501 -0.00000000000E+00  0.00000000000E+00  0.33112169023E+02  0.33112169023E+02  0.00000000000E+00 0.  1.
          1   -1    0    0  502    0  0.00000000000E+00 -0.00000000000E+00 -0.65569371363E+03  0.65569371363E+03  0.00000000000E+00 0. -1.
         23    2    1    2    0    0 -0.92546679324E+02  0.37436105420E+02 -0.22075404716E+03  0.25895430616E+03  0.91425562596E+02 0.  0.
         23    2    1    2    0    0  0.73685973040E+02 -0.20777321382E+02 -0.37175092846E+03  0.39063625642E+03  0.92393789341E+02 0.  0.
        -11    1    4    4    0    0 -0.20828358205E+02 -0.77517813228E+00 -0.39991520783E+02  0.45097041379E+02  0.00000000000E+00 0. -1.
         11    1    4    4    0    0  0.94514331246E+02 -0.20002143250E+02 -0.33175940768E+03  0.34553921504E+03  0.00000000000E+00 0.  1.
        -11    1    3    3    0    0 -0.88430101539E+02  0.57073135622E+02 -0.13661138682E+03  0.17245259255E+03  0.00000000000E+00 0.  1.
         11    1    3    3    0    0 -0.41165777849E+01 -0.19637030202E+02 -0.84142660341E+02  0.86501713607E+02  0.00000000000E+00 0. -1.
         21    1    1    2  502  501  0.18860706284E+02 -0.16658784038E+02 -0.30076568989E+02  0.39215320084E+02  0.00000000000E+00 0.  1.
<scales pt_clust_5="13000.00000" pt_clust_6="13000.00000" pt_clust_7="13000.00000" pt_clust_8="13000.00000" pt_clust_9="25.16429"></scales>
<clustering>
<clus scale="   25.164">  1  9  2 -1</clus>
<clus scale="   91.426">  7  8 -1 -1</clus>
<clus scale="   92.394">  5  6 -1 -1</clus>
<clus scale="  124.249">  1  7  2 -1</clus>
<clus scale="  124.963">  2  5  1 -1</clus>
</clustering>
</event>
<event>
 9    1  0.1612788E-005  0.9425633E+02  0.7546771E-02  0.1293547E+00
         -1   -1    0    0    0  501 -0.00000000000E+00  0.00000000000E+00  0.60909335830E+02  0.60909335830E+02  0.00000000000E+00 0.  1.
          1   -1    0    0  502    0  0.00000000000E+00 -0.00000000000E+00 -0.35378142578E+03  0.35378142578E+03  0.00000000000E+00 0. -1.
         23    2    1    2    0    0 -0.49593703122E+01 -0.10238244408E+02 -0.12088916123E+03  0.15210611731E+03  0.91611487360E+02 0.  0.
         23    2    1    2    0    0 -0.23615571881E+02  0.24957097732E+02 -0.19857774218E+03  0.22086587075E+03  0.90377326847E+02 0.  0.
        -11    1    3    3    0    0  0.12355103382E+02 -0.48626392586E+02 -0.63742927816E+02  0.81119267021E+02  0.00000000000E+00 0.  1.
         11    1    3    3    0    0 -0.17314473695E+02  0.38388148177E+02 -0.57146233415E+02  0.70986850285E+02  0.00000000000E+00 0. -1.
        -13    1    4    4    0    0 -0.48959342267E+02 -0.33295802112E+01 -0.61802403703E+02  0.78915400291E+02  0.00000000000E+00 0.  1.
         13    1    4    4    0    0  0.25343770386E+02  0.28286677943E+02 -0.13677533848E+03  0.14195047046E+03  0.00000000000E+00 0. -1.
         21    1    1    2  502  501  0.28574942193E+02 -0.14718853323E+02  0.26594813459E+02  0.41718773561E+02  0.00000000000E+00 0.  1.
<scales pt_clust_5="13000.00000" pt_clust_6="13000.00000" pt_clust_7="13000.00000" pt_clust_8="13000.00000" pt_clust_9="32.14299"></scales>
<clustering>
<clus scale="   32.143">  1  9  2 -1</clus>
<clus scale="   90.377">  7  8 -1 -1</clus>
<clus scale="   91.611">  5  6 -1 -1</clus>
<clus scale="   93.057">  2  7  1 -1</clus>
<clus scale="   93.057">  2  5  1 -1</clus>
</clustering>
</event>
<event>
 9    1  0.1612788E-005  0.1097344E+03  0.7546771E-02  0.1261068E+00
         -4   -1    0    0    0  501 -0.00000000000E+00  0.00000000000E+00  0.36853287535E+02  0.36853287535E+02  0.00000000000E+00 0.  1.
          4   -1    0    0  502    0  0.00000000000E+00 -0.00000000000E+00 -0.53454971531E+03  0.53454971531E+03  0.00000000000E+00 0. -1.
         23    2    1    2    0    0  0.70665862937E+02 -0.36157656378E+01 -0.11662041525E+03  0.16506770525E+03  0.92953150135E+02 0.  0.
         23    2    1    2    0    0 -0.37612753583E+02 -0.69188416030E+01 -0.22477359910E+03  0.24622930010E+03  0.92968315978E+02 0.  0.
        -13    1    3    3    0    0  0.35388699734E+02  0.36385442387E+02 -0.94619217754E+02  0.10737344576E+03  0.00000000000E+00 0.  1.
         13    1    3    3    0    0  0.35277163203E+02 -0.40001208025E+02 -0.22001197491E+02  0.57694259491E+02  0.00000000000E+00 0. -1.
        -13    1    4    4    0    0 -0.54849636839E+01  0.36372800865E+02 -0.42785058212E+02  0.56423635789E+02  0.00000000000E+00 0.  1.
         13    1    4    4    0    0 -0.32127789899E+02 -0.43291642468E+02 -0.18198854089E+03  0.18980566431E+03  0.00000000000E+00 0. -1.
         21    1    1    2  502  501 -0.33053109354E+02  0.10534607241E+02 -0.15630241344E+03  0.16010599749E+03  0.00000000000E+00 0.  1.
<scales pt_clust_5="13000.00000" pt_clust_6="13000.00000" pt_clust_7="13000.00000" pt_clust_8="13000.00000" pt_clust_9="34.69130"></scales>
<clustering>
<clus scale="   34.691">  2  9  1 -1</clus>
<clus scale="   92.953">  5  6 -1 -1</clus>
<clus scale="   92.968">  7  8 -1 -1</clus>
<clus scale="  109.722">  1  5  2 -1</clus>
<clus scale="   34.691">  2  5  1 -1</clus>
</clustering>
</event>
<event>
 9    1  0.1612788E-005  0.1174193E+03  0.7546771E-02  0.1249371E+00
         -2   -1    0    0    0  501 -0.00000000000E+00  0.00000000000E+00  0.57314783415E+02  0.57314783415E+02  0.00000000000E+00 0.  1.
          2   -1    0    0  502    0  0.00000000000E+00 -0.00000000000E+00 -0.45966380713E+03  0.45966380713E+03  0.00000000000E+00 0. -1.
         23    2    1    2    0    0  0.51879617615E+02 -0.73038989906E+02 -0.74634697414E+02  0.15199859549E+03  0.97504083006E+02 0.  0.
         23    2    1    2    0    0 -0.14507532025E+02  0.20818690585E+02 -0.17567003900E+03  0.19993122122E+03  0.92025237049E+02 0.  0.
        -11    1    4    4    0    0  0.25940255596E+02  0.33788877352E+02 -0.13327836316E+03  0.13992036013E+03  0.00000000000E+00 0.  1.
         11    1    4    4    0    0 -0.40447787621E+02 -0.12970186767E+02 -0.42391675842E+02  0.60010861091E+02  0.00000000000E+00 0. -1.
        -13    1    3    3    0    0  0.17275522673E+02  0.19807736262E+02  0.25387411743E+01  0.26405213618E+02  0.00000000000E+00 0.  1.
         13    1    3    3    0    0  0.34604094942E+02 -0.92846726168E+02 -0.77173438588E+02  0.12559338187E+03  0.00000000000E+00 0. -1.
         21    1    1    2  502  501 -0.37372085591E+02  0.52220299321E+02 -0.15204428730E+03  0.16504877383E+03  0.00000000000E+00 0. -1.
<scales pt_clust_5="13000.00000" pt_clust_6="13000.00000" pt_clust_7="13000.00000" pt_clust_8="13000.00000" pt_clust_9="64.21552"></scales>
<clustering>
<clus scale="   64.216">  2  9  1 -1</clus>
<clus scale="   92.025">  5  6 -1 -1</clus>
<clus scale="   97.504">  7  8 -1 -1</clus>
<clus scale="  112.911">  2  5  1 -1</clus>
<clus scale="   64.216">  2  5  1 -1</clus>
</clustering>
</event>
<event>
 9    1  0.1612788E-005  0.1239673E+03  0.7546771E-02  0.1236791E+00
         -1   -1    0    0    0  501 -0.00000000000E+00  0.00000000000E+00  0.33304669254E+03  0.33304669254E+03  0.00000000000E+00 0.  1.
          1   -1    0    0  502    0  0.00000000000E+00 -0.00000000000E+00 -0.55275347684E+02  0.55275347684E+02  0.00000000000E+00 0. -1.
         23    2    1    2    0    0 -0.10836314906E+02 -0.75665085517E+02  0.13642299831E+03  0.18155932220E+03  0.92249239150E+02 0.  0.
         23    2    1    2    0    0  0.30204680579E+02  0.83883075186E+02  0.10892708546E+03  0.16811291707E+03  0.91913817829E+02 0.  0.
        -11    1    4    4    0    0  0.26904218759E+02  0.39666891135E+01 -0.62338028834E+01  0.27900392613E+02  0.00000000000E+00 0.  1.
         11    1    4    4    0    0  0.33004618196E+01  0.79916386072E+02  0.11516088834E+03  0.14021252446E+03  0.00000000000E+00 0. -1.
        -13    1    3    3    0    0 -0.27931323233E+01 -0.56874518769E+02  0.14764249124E+03  0.15824290725E+03  0.00000000000E+00 0.  1.
         13    1    3    3    0    0 -0.80431825831E+01 -0.18790566749E+02 -0.11219492932E+02  0.23316414957E+02  0.00000000000E+00 0. -1.
         21    1    1    2  502  501 -0.19368365672E+02 -0.82179896684E+01  0.32421261088E+02  0.38649800951E+02  0.00000000000E+00 0.  1.
<scales pt_clust_5="13000.00000" pt_clust_6="13000.00000" pt_clust_7="13000.00000" pt_clust_8="13000.00000" pt_clust_9="21.03970"></scales>
<clustering>
<clus scale="   21.040">  1  9  2 -1</clus>
<clus scale="   91.914">  5  6 -1 -1</clus>
<clus scale="   92.249">  7  8 -1 -1</clus>
<clus scale="  123.718">  2  5  1 -1</clus>
<clus scale="  123.718">  2  5  1 -1</clus>
</clustering>
</event>
<event>
 9    1  0.1612788E-005  0.1065067E+03  0.7546771E-02  0.1268772E+00
          1   -1    0    0  502    0  0.00000000000E+00  0.00000000000E+00  0.25786126793E+03  0.25786126793E+03  0.00000000000E+00 0. -1.
         -1   -1    0    0    0  501 -0.00000000000E+00 -0.00000000000E+00 -0.13014473292E+03  0.13014473292E+03  0.00000000000E+00 0.  1.
         23    2    1    2    0    0 -0.52774808262E+02 -0.39625896167E+02 -0.63867634925E+02  0.13028861961E+03  0.92415678186E+02 0.  0.
         23    2    1    2    0    0  0.38887078389E+02  0.19637563697E+02  0.20455822619E+03  0.23013607213E+03  0.96024502197E+02 0.  0.
        -11    1    4    4    0    0 -0.25529586877E+02  0.20484710222E+02  0.31301254581E+02  0.45289642274E+02  0.00000000000E+00 0.  1.
         11    1    4    4    0    0  0.64416665266E+02 -0.84714652472E+00  0.17325697161E+03  0.18484642986E+03  0.00000000000E+00 0. -1.
        -13    1    3    3    0    0 -0.22411908490E+02 -0.65445754215E+02 -0.57442710074E+02  0.89917213744E+02  0.00000000000E+00 0.  1.
         13    1    3    3    0    0 -0.30362899773E+02  0.25819858047E+02 -0.64249248508E+01  0.40371405865E+02  0.00000000000E+00 0. -1.
         21    1    1    2  502  501  0.13887729873E+02  0.19988332470E+02 -0.12974056253E+02  0.27581309099E+02  0.00000000000E+00 0.  1.
<scales pt_clust_5="13000.00000" pt_clust_6="13000.00000" pt_clust_7="13000.00000" pt_clust_8="13000.00000" pt_clust_9="24.33932"></scales>
<clustering>
<clus scale="   24.339">  2  9  1 -1</clus>
<clus scale="   92.416">  7  8 -1 -1</clus>
<clus scale="   96.025">  5  6 -1 -1</clus>
<clus scale="  103.265">  2  7  1 -1</clus>
<clus scale="  106.507">  1  5  2 -1</clus>
</clustering>
</event>
<event>
 9    1  0.1612788E-005  0.9136078E+02  0.7546771E-02  0.1300823E+00
          1   -1    0    0  502    0  0.00000000000E+00  0.00000000000E+00  0.88855232872E+02  0.88855232872E+02  0.00000000000E+00 0. -1.
         -1   -1    0    0    0  501 -0.00000000000E+00 -0.00000000000E+00 -0.30459083939E+03  0.30459083939E+03  0.00000000000E+00 0.  1.
         23    2    1    2    0    0  0.12426103198E+02 -0.21414730084E+02 -0.10528204003E+03  0.14141218002E+03  0.91104873625E+02 0.  0.
         23    2    1    2    0    0  0.94154371201E+01 -0.10716242270E+02  0.38530377301E+02  0.98067442088E+02  0.89045746211E+02 0.  0.
        -11    1    4    4    0    0  0.18280943652E+02 -0.41768042552E+02 -0.27269224798E+01  0.45674920752E+02  0.00000000000E+00 0.  1.
         11    1    4    4    0    0 -0.88655065319E+01  0.31051800282E+02  0.41257299781E+02  0.52392521337E+02  0.00000000000E+00 0. -1.
        -13    1    3    3    0    0 -0.26061055947E+02  0.23617845594E+02 -0.39211825003E+02  0.52673983024E+02  0.00000000000E+00 0. -1.
         13    1    3    3    0    0  0.38487159145E+02 -0.45032575678E+02 -0.66070215032E+02  0.88738196993E+02  0.00000000000E+00 0.  1.
         21    1    1    2  502  501 -0.21841540318E+02  0.32130972354E+02 -0.14898394378E+03  0.15396645015E+03  0.00000000000E+00 0. -1.
<scales pt_clust_5="13000.00000" pt_clust_6="13000.00000" pt_clust_7="13000.00000" pt_clust_8="13000.00000" pt_clust_9="38.85167"></scales>
<clustering>
<clus scale="   38.852">  2  9  1 -1</clus>
<clus scale="   89.046">  5  6 -1 -1</clus>
<clus scale="   89.308">  1  5  2 -1</clus>
<clus scale="   91.105">  7  8 -1 -1</clus>
<clus scale="   89.308">  1  5  2 -1</clus>
</clustering>
</event>
<event>
 9    1  0.1612788E-005  0.9811080E+02  0.7546771E-02  0.1287020E+00
          1   -1    0    0  502    0  0.00000000000E+00  0.00000000000E+00  0.12055569674E+03  0.12055569674E+03  0.00000000000E+00 0. -1.
         -1   -1    0    0    0  501 -0.00000000000E+00 -0.00000000000E+00 -0.13702414336E+03  0.13702414336E+03  0.00000000000E+00 0.  1.
         23    2    1    2    0    0 -0.12113753462E+02  0.12177367180E+01 -0.93323366747E+01  0.92588828821E+02  0.91309215356E+02 0.  0.
         23    2    1    2    0    0  0.15815698539E+02  0.20797740941E+02  0.44121824287E+02  0.10908250142E+03  0.96278628929E+02 0.  0.
        -11    1    3    3    0    0 -0.46940845399E+02  0.17218313073E+01  0.15887246741E+02  0.49586412240E+02  0.00000000000E+00 0. -1.
         11    1    3    3    0    0  0.34827091937E+02 -0.50409458927E+00 -0.25219583416E+02  0.43002416581E+02  0.00000000000E+00 0.  1.
        -13    1    4    4    0    0 -0.21486079921E+02  0.34839010362E+02  0.54249478717E+02  0.67958915636E+02  0.00000000000E+00 0.  1.
         13    1    4    4    0    0  0.37301778460E+02 -0.14041269421E+02 -0.10127654430E+02  0.41123585781E+02  0.00000000000E+00 0. -1.
         21    1    1    2  502  501 -0.37019450771E+01 -0.22015477659E+02 -0.51257934231E+02  0.55908509867E+02  0.00000000000E+00 0.  1.
<scales pt_clust_5="13000.00000" pt_clust_6="13000.00000" pt_clust_7="13000.00000" pt_clust_8="13000.00000" pt_clust_9="22.32455"></scales>
<clustering>
<clus scale="   22.325">  2  9  1 -1</clus>
<clus scale="   91.309">  5  6 -1 -1</clus>
<clus scale="   93.239">  2  5  1 -1</clus>
<clus scale="   96.279">  7  8 -1 -1</clus>
<clus scale="   98.111">  1  5  2 -1</clus>
</clustering>
</event>
<event>
 9    1  0.1612788E-005  0.2204822E+03  0.7546771E-02  0.1133766E+00
          1   -1    0    0  502    0  0.00000000000E+00  0.00000000000E+00  0.86541543151E+03  0.86541543151E+03  0.00000000000E+00 0. -1.
         -1   -1    0    0    0  501 -0.00000000000E+00 -0.00000000000E+00 -0.30623591572E+03  0.30623591572E+03  0.00000000000E+00 0.  1.
         23    2    1    2    0    0 -0.86216481518E+02  0.14053998278E+03 -0.24063288427E+03  0.30560224086E+03  0.91125057921E+02 0.  0.
         23    2    1    2    0    0  0.11442836159E+03 -0.16558059123E+03  0.79791060530E+03  0.82827928942E+03  0.94204379507E+02 0.  0.
        -11    1    4    4    0    0  0.12945898275E+03 -0.14290853559E+03  0.73209716669E+03  0.75706587510E+03  0.00000000000E+00 0. -1.
         11    1    4    4    0    0 -0.15030621157E+02 -0.22672055638E+02  0.65813438600E+02  0.71213414323E+02  0.00000000000E+00 0.  1.
        -13    1    3    3    0    0 -0.11739264862E+02  0.28070337473E+02 -0.80005972324E+00  0.30436725857E+02  0.00000000000E+00 0. -1.
         13    1    3    3    0    0 -0.74477216656E+02  0.11246964531E+03 -0.23983282455E+03  0.27516551500E+03  0.00000000000E+00 0.  1.
         21    1    1    2  502  501 -0.28211880076E+02  0.25040608452E+02  0.19017947706E+01  0.37769816949E+02  0.00000000000E+00 0.  1.
<scales pt_clust_5="13000.00000" pt_clust_6="13000.00000" pt_clust_7="13000.00000" pt_clust_8="13000.00000" pt_clust_9="37.72191"></scales>
<clustering>
<clus scale="   37.722">  2  9  1 -1</clus>
<clus scale="   91.125">  7  8 -1 -1</clus>
<clus scale="   94.204">  5  6 -1 -1</clus>
<clus scale="  219.184">  2  7  1 -1</clus>
<clus scale="  220.482">  1  5  2 -1</clus>
</clustering>
</event>
<event>
 9    1  0.1612788E-005  0.1131509E+03  0.7546771E-02  0.1255721E+00
         -1   -1    0    0    0  501 -0.00000000000E+00  0.00000000000E+00  0.72957351644E+02  0.72957351644E+02  0.00000000000E+00 0.  1.
          1   -1    0    0  502    0  0.00000000000E+00 -0.00000000000E+00 -0.46389567433E+03  0.46389567433E+03  0.00000000000E+00 0. -1.
         23    2    1    2    0    0  0.10642345977E+03 -0.94479675368E+01 -0.15634749576E+03  0.20997558206E+03  0.90719285434E+02 0.  0.
         23    2    1    2    0    0 -0.47361350714E+02 -0.64752740190E+01 -0.24352303822E+03  0.26505781316E+03  0.93097515853E+02 0.  0.
        -11    1    3    3    0    0  0.97581227688E+02  0.20078386370E+02 -0.80430101727E+02  0.12803998930E+03  0.00000000000E+00 0.  1.
         11    1    3    3    0    0  0.88422320795E+01 -0.29526353907E+02 -0.75917394037E+02  0.81935592758E+02  0.00000000000E+00 0. -1.
        -11    1    4    4    0    0  0.19848294225E+02 -0.12173168530E+02 -0.13707745513E+03  0.13904089154E+03  0.00000000000E+00 0. -1.
         11    1    4    4    0    0 -0.67209644939E+02  0.56978945112E+01 -0.10644558309E+03  0.12601692162E+03  0.00000000000E+00 0.  1.
         21    1    1    2  502  501 -0.59062109053E+02  0.15923241556E+02  0.89322113027E+01  0.61819630751E+02  0.00000000000E+00 0.  1.
<scales pt_clust_5="13000.00000" pt_clust_6="13000.00000" pt_clust_7="13000.00000" pt_clust_8="13000.00000" pt_clust_9="61.17093"></scales>
<clustering>
<clus scale="   61.171">  1  9  2 -1</clus>
<clus scale="   90.719">  5  6 -1 -1</clus>
<clus scale="   93.098">  7  8 -1 -1</clus>
<clus scale="  111.202">  1  5  2 -1</clus>
<clus scale="  113.151">  2  5  1 -1</clus>
</clustering>
</event>
<event>
 9    1  0.1612788E-005  0.1156175E+03  0.7546771E-02  0.1259313E+00
          2   -1    0    0  502    0  0.00000000000E+00  0.00000000000E+00  0.71990163967E+02  0.71990163967E+02  0.00000000000E+00 0. -1.
         -2   -1    0    0    0  501 -0.00000000000E+00 -0.00000000000E+00 -0.40742049650E+03  0.40742049650E+03  0.00000000000E+00 0.  1.
         23    2    1    2    0    0 -0.31489258471E+02 -0.80128525006E+02 -0.23650782747E+03  0.26841861214E+03  0.93276175786E+02 0.  0.
         23    2    1    2    0    0  0.33334223706E+02  0.56442519252E+02  0.13459985730E+02  0.96125800013E+02  0.69007751468E+02 0.  0.
        -11    1    4    4    0    0  0.77323827430E+01  0.44995170465E+02 -0.22194353702E+02  0.50763613389E+02  0.00000000000E+00 0.  1.
         11    1    4    4    0    0  0.25601840963E+02  0.11447348787E+02  0.35654339432E+02  0.45362186624E+02  0.00000000000E+00 0. -1.
        -11    1    3    3    0    0 -0.56717366751E+02 -0.47587587751E+02 -0.20045453852E+03  0.21369010321E+03  0.00000000000E+00 0.  1.
         11    1    3    3    0    0  0.25228108280E+02 -0.32540937254E+02 -0.36053288950E+02  0.54728508922E+02  0.00000000000E+00 0. -1.
         21    1    1    2  502  501 -0.18449652355E+01  0.23686005754E+02 -0.11238249079E+03  0.11486624832E+03  0.00000000000E+00 0. -1.
<scales pt_clust_5="13000.00000" pt_clust_6="13000.00000" pt_clust_7="13000.00000" pt_clust_8="13000.00000" pt_clust_9="23.75775"></scales>
<clustering>
<clus scale="   23.758">  2  9  1 -1</clus>
<clus scale="   69.008">  5  6 -1 -1</clus>
<clus scale="   93.276">  7  8 -1 -1</clus>
<clus scale="   97.103">  1  5  2 -1</clus>
<clus scale="   97.103">  1  5  2 -1</clus>
</clustering>
</event>
<event>
 9    1  0.1612788E-005  0.1661443E+03  0.7546771E-02  0.1189499E+00
          3   -1    0    0  502    0  0.00000000000E+00  0.00000000000E+00  0.65626526874E+03  0.65626526874E+03  0.00000000000E+00 0. -1.
         -3   -1    0    0    0  501 -0.00000000000E+00 -0.00000000000E+00 -0.41511916032E+02  0.41511916032E+02  0.00000000000E+00 0.  1.
         23    2    1    2    0    0  0.57774618630E+02 -0.78867776282E+02  0.24077054797E+03  0.27555735245E+03  0.91669869779E+02 0.  0.
         23    2    1    2    0    0 -0.76129388151E+02  0.88004245313E+02  0.35233925491E+03  0.39240681705E+03  0.12767039039E+03 0.  0.
        -11    1    3    3    0    0  0.14662430784E+02 -0.64097216687E+02  0.59605249116E+02  0.88748102997E+02  0.00000000000E+00 0.  1.
         11    1    3    3    0    0  0.43112187846E+02 -0.14770559596E+02  0.18116529886E+03  0.18680924945E+03  0.00000000000E+00 0. -1.
        -13    1    4    4    0    0 -0.10963898809E+03  0.68796249354E+02  0.30487068120E+03  0.33120954680E+03  0.00000000000E+00 0.  1.
         13    1    4    4    0    0  0.33509599934E+02  0.19207995958E+02  0.47468573711E+02  0.61197270254E+02  0.00000000000E+00 0. -1.
         21    1    1    2  502  501  0.18354769522E+02 -0.91364690302E+01  0.21643549824E+02  0.29813015271E+02  0.00000000000E+00 0. -1.
<scales pt_clust_5="13000.00000" pt_clust_6="13000.00000" pt_clust_7="13000.00000" pt_clust_8="13000.00000" pt_clust_9="20.50299"></scales>
<clustering>
<clus scale="   20.503">  2  9  1 -1</clus>
<clus scale="   91.670">  5  6 -1 -1</clus>
<clus scale="  127.670">  7  8 -1 -1</clus>
<clus scale="  140.384">  2  5  1 -1</clus>
<clus scale="  166.144">  1  5  2 -1</clus>
</clustering>
</event>
<event>
 9    1  0.1612788E-005  0.8989779E+02  0.7546771E-02  0.1303434E+00
          3   -1    0    0  502    0  0.00000000000E+00  0.00000000000E+00  0.66688712146E+02  0.66688712146E+02  0.00000000000E+00 0. -1.
         -3   -1    0    0    0  501 -0.00000000000E+00 -0.00000000000E+00 -0.32972360700E+03  0.32972360700E+03  0.00000000000E+00 0.  1.
         23    2    1    2    0    0  0.13078125650E+02  0.73590264170E+00 -0.42356550213E+02  0.99339908362E+02  0.88897475353E+02 0.  0.
         23    2    1    2    0    0  0.11817433848E+02  0.16669877476E+02 -0.19744237006E+02  0.93855123933E+02  0.89450616743E+02 0.  0.
        -11    1    4    4    0    0  0.78036879156E+01  0.53285664982E+02 -0.18689568083E+02  0.57004908497E+02  0.00000000000E+00 0.  1.
         11    1    4    4    0    0  0.40137459321E+01 -0.36615787506E+02 -0.10546689235E+01  0.36850215436E+02  0.00000000000E+00 0. -1.
        -11    1    3    3    0    0  0.49348918192E+02  0.14980222921E+01 -0.92599701447E+01  0.50232527754E+02  0.00000000000E+00 0. -1.
         11    1    3    3    0    0 -0.36270792542E+02 -0.76211965039E+00 -0.33096580068E+02  0.49107380608E+02  0.00000000000E+00 0.  1.
         21    1    1    2  502  501 -0.24895559498E+02 -0.17405780117E+02 -0.20093410763E+03  0.20321728685E+03  0.00000000000E+00 0.  1.
<scales pt_clust_5="13000.00000" pt_clust_6="13000.00000" pt_clust_7="13000.00000" pt_clust_8="13000.00000" pt_clust_9="30.37680"></scales>
<clustering>
<clus scale="   30.377">  2  9  1 -1</clus>
<clus scale="   88.897">  7  8 -1 -1</clus>
<clus scale="   89.347">  2  7  1 -1</clus>
<clus scale="   89.451">  5  6 -1 -1</clus>
<clus scale="   89.898">  1  5  2 -1</clus>
</clustering>
</event>
<event>
 9    1  0.1612788E-005  0.3158750E+03  0.7546771E-02  0.1077573E+00
          1   -1    0    0  502    0  0.00000000000E+00  0.00000000000E+00  0.10779996769E+04  0.10779996769E+04  0.00000000000E+00 0. -1.
         -1   -1    0    0    0  501 -0.00000000000E+00 -0.00000000000E+00 -0.23230209881E+03  0.23230209881E+03  0.00000000000E+00 0.  1.
         23    2    1    2    0    0  0.25665049019E+03  0.66479922987E+02 -0.87768727830E+01  0.28067549444E+03  0.91720474323E+02 0.  0.
         23    2    1    2    0    0 -0.30601871776E+03 -0.46867657041E+02  0.90216872266E+03  0.95823576074E+03  0.91996391823E+02 0.  0.
        -13    1    3    3    0    0  0.18026285253E+03  0.60674680174E+02  0.33573769487E+02  0.19314065034E+03  0.00000000000E+00 0. -1.
         13    1    3    3    0    0  0.76387637655E+02  0.58052428130E+01 -0.42350642270E+02  0.87534844098E+02  0.00000000000E+00 0.  1.
        -13    1    4    4    0    0 -0.27807086242E+03 -0.38910751990E+02  0.87308445577E+03  0.91712262978E+03  0.00000000000E+00 0.  1.
         13    1    4    4    0    0 -0.27947855348E+02 -0.79569050510E+01  0.29084266889E+02  0.41113130956E+02  0.00000000000E+00 0. -1.
         21    1    1    2  502  501  0.49368227575E+02 -0.19612265946E+02 -0.47694271755E+02  0.71390520573E+02  0.00000000000E+00 0. -1.
<scales pt_clust_5="13000.00000" pt_clust_6="13000.00000" pt_clust_7="13000.00000" pt_clust_8="13000.00000" pt_clust_9="53.12121"></scales>
<clustering>
<clus scale="   53.121">  2  9  1 -1</clus>
<clus scale="   91.720">  5  6 -1 -1</clus>
<clus scale="   91.996">  7  8 -1 -1</clus>
<clus scale="  315.795">  2  5  1 -1</clus>
<clus scale="  315.875">  1  5  2 -1</clus>
</clustering>
</event>
<event>
 9    1  0.1612788E-005  0.1279336E+03  0.7546771E-02  0.1231269E+00
          2   -1    0    0  502    0  0.00000000000E+00  0.00000000000E+00  0.17129599178E+03  0.17129599178E+03  0.00000000000E+00 0. -1.
         -2   -1    0    0    0  501 -0.00000000000E+00 -0.00000000000E+00 -0.22490175203E+03  0.22490175203E+03  0.00000000000E+00 0.  1.
         23    2    1    2    0    0 -0.76757113595E+02  0.22345115340E+02  0.27464362537E+02  0.12388116766E+03  0.90560995049E+02 0.  0.
         23    2    1    2    0    0  0.94740542338E+02 -0.13445277497E+02  0.47842658378E+02  0.14185157712E+03  0.93147217458E+02 0.  0.
        -11    1    3    3    0    0  0.94608893437E+01 -0.21146192554E+02 -0.10593751122E+01  0.23190346318E+02  0.00000000000E+00 0. -1.
         11    1    3    3    0    0 -0.86218002939E+02  0.43491307894E+02  0.28523737649E+02  0.10069082134E+03  0.00000000000E+00 0.  1.
        -11    1    4    4    0    0  0.45643361052E+02  0.11106750193E+02 -0.22940111669E+02  0.52277385468E+02  0.00000000000E+00 0.  1.
         11    1    4    4    0    0  0.49097181286E+02 -0.24552027690E+02  0.70782770046E+02  0.89574191648E+02  0.00000000000E+00 0. -1.
         21    1    1    2  502  501 -0.17983428743E+02 -0.88998378426E+01 -0.12891278117E+03  0.13046499903E+03  0.00000000000E+00 0.  1.
<scales pt_clust_5="13000.00000" pt_clust_6="13000.00000" pt_clust_7="13000.00000" pt_clust_8="13000.00000" pt_clust_9="20.06516"></scales>
<clustering>
<clus scale="   20.065">  2  9  1 -1</clus>
<clus scale="   90.561">  5  6 -1 -1</clus>
<clus scale="   93.147">  7  8 -1 -1</clus>
<clus scale="  126.063">  2  5  1 -1</clus>
<clus scale="  127.934">  1  5  2 -1</clus>
</clustering>
</event>
<event>
 9    1  0.1612788E-005  0.1224251E+03  0.7546771E-02  0.1239764E+00
          3   -1    0    0  502    0  0.00000000000E+00  0.00000000000E+00  0.17875605332E+03  0.17875605332E+03  0.00000000000E+00 0. -1.
         -3   -1    0    0    0  501 -0.00000000000E+00 -0.00000000000E+00 -0.13585956865E+03  0.13585956865E+03  0.00000000000E+00 0.  1.
         23    2    1    2    0    0  0.10609489378E+03  0.13782126240E+02 -0.11818719519E+02  0.14241354914E+03  0.93251613164E+02 0.  0.
         23    2    1    2    0    0 -0.65713955664E+02 -0.15962792310E+02  0.64478144219E+02  0.13060050477E+03  0.91246512571E+02 0.  0.
        -11    1    3    3    0    0  0.27898398780E+02  0.28394801929E+02  0.32466063758E+02  0.51367603867E+02  0.00000000000E+00 0.  1.
         11    1    3    3    0    0  0.78196494995E+02 -0.14612675689E+02 -0.44284783276E+02  0.91045945270E+02  0.00000000000E+00 0. -1.
        -13    1    4    4    0    0 -0.77806488950E+02  0.87232996523E+01  0.66929776369E+02  0.10300262445E+03  0.00000000000E+00 0.  1.
         13    1    4    4    0    0  0.12092533286E+02 -0.24686091962E+02 -0.24516321502E+01  0.27597880314E+02  0.00000000000E+00 0. -1.
         21    1    1    2  502  501 -0.40380938111E+02  0.21806660696E+01 -0.97629400297E+01  0.41601568063E+02  0.00000000000E+00 0.  1.
<scales pt_clust_5="13000.00000" pt_clust_6="13000.00000" pt_clust_7="13000.00000" pt_clust_8="13000.00000" pt_clust_9="40.43978"></scales>
<clustering>
<clus scale="   40.440">  2  9  1 -1</clus>
<clus scale="   91.247">  7  8 -1 -1</clus>
<clus scale="   93.252">  5  6 -1 -1</clus>
<clus scale="  120.905">  1  7  2 -1</clus>
<clus scale="  120.905">  1  5  2 -1</clus>
</clustering>
</event>
<event>
 9    1  0.1612788E-005  0.1040653E+03  0.7546771E-02  0.1272225E+00
          1   -1    0    0  502    0  0.00000000000E+00  0.00000000000E+00  0.76447594123E+03  0.76447594123E+03  0.00000000000E+00 0. -1.
         -1   -1    0    0    0  501 -0.00000000000E+00 -0.00000000000E+00 -0.26148946909E+02  0.26148946909E+02  0.00000000000E+00 0.  1.
         23    2    1    2    0    0 -0.22870828604E+02  0.32304429882E+02  0.13320107824E+03  0.16664555061E+03  0.91986745264E+02 0.  0.
         23    2    1    2    0    0  0.10497075935E+02 -0.49469593766E+02  0.58612926404E+03  0.59554299819E+03  0.92555492603E+02 0.  0.
        -11    1    3    3    0    0  0.30526294721E+02  0.23244678292E+02  0.88362123434E+02  0.96332936196E+02  0.00000000000E+00 0. -1.
         11    1    3    3    0    0 -0.53397123326E+02  0.90597515895E+01  0.44838954804E+02  0.70312614418E+02  0.00000000000E+00 0.  1.
        -13    1    4    4    0    0 -0.17774798672E+01  0.27455217192E+02  0.14435617002E+03  0.14695459234E+03  0.00000000000E+00 0.  1.
         13    1    4    4    0    0  0.12274555802E+02 -0.76924810958E+02  0.44177309402E+03  0.44858840585E+03  0.00000000000E+00 0. -1.
         21    1    1    2  502  501  0.12373752669E+02  0.17165163884E+02  0.18996652038E+02  0.28436339338E+02  0.00000000000E+00 0.  1.
<scales pt_clust_5="13000.00000" pt_clust_6="13000.00000" pt_clust_7="13000.00000" pt_clust_8="13000.00000" pt_clust_9="21.16017"></scales>
<clustering>
<clus scale="   21.160">  2  9  1 -1</clus>
<clus scale="   91.987">  5  6 -1 -1</clus>
<clus scale="   92.555">  7  8 -1 -1</clus>
<clus scale="  103.560">  2  5  1 -1</clus>
<clus scale="  104.065">  1  5  2 -1</clus>
</clustering>
</event>
<event>
 9    1  0.1612788E-005  0.1020295E+03  0.7546771E-02  0.1278631E+00
          1   -1    0    0  502    0  0.00000000000E+00  0.00000000000E+00  0.16395943660E+03  0.16395943660E+03  0.00000000000E+00 0. -1.
         -1   -1    0    0    0  501 -0.00000000000E+00 -0.00000000000E+00 -0.77340412785E+02  0.77340412785E+02  0.00000000000E+00 0.  1.
         23    2    1    2    0    0 -0.24338820002E+02 -0.23271578792E+02  0.37030354888E+02  0.10086128304E+03  0.87566013358E+02 0.  0.
         23    2    1    2    0    0  0.25700342237E+02  0.45019385402E+02  0.52164648180E+02  0.11849644921E+03  0.92913967212E+02 0.  0.
        -13    1    4    4    0    0 -0.15417304915E+02 -0.18413942958E+02  0.32456549209E+02  0.40375663123E+02  0.00000000000E+00 0.  1.
         13    1    4    4    0    0  0.41117647152E+02  0.63433328359E+02  0.19708098972E+02  0.78120786089E+02  0.00000000000E+00 0. -1.
        -13    1    3    3    0    0 -0.58497065482E+01  0.26812502814E+02  0.38705348032E+02  0.47447163668E+02  0.00000000000E+00 0. -1.
         13    1    3    3    0    0 -0.18489113453E+02 -0.50084081606E+02 -0.16749931439E+01  0.53414119375E+02  0.00000000000E+00 0.  1.
         21    1    1    2  502  501 -0.13615222357E+01 -0.21747806609E+02 -0.25759792524E+01  0.21942117132E+02  0.00000000000E+00 0. -1.
<scales pt_clust_5="13000.00000" pt_clust_6="13000.00000" pt_clust_7="13000.00000" pt_clust_8="13000.00000" pt_clust_9="21.79038"></scales>
<clustering>
<clus scale="   21.790">  2  9  1 -1</clus>
<clus scale="   87.566">  7  8 -1 -1</clus>
<clus scale="   92.914">  5  6 -1 -1</clus>
<clus scale="   97.184">  2  7  1 -1</clus>
<clus scale="  102.030">  1  5  2 -1</clus>
</clustering>
</event>
<event>
 9    1  0.1612788E-005  0.9546660E+02  0.7546771E-02  0.1290192E+00
          3   -1    0    0  502    0  0.00000000000E+00  0.00000000000E+00  0.15048582788E+03  0.15048582788E+03  0.00000000000E+00 0. -1.
         -3   -1    0    0    0  501 -0.00000000000E+00 -0.00000000000E+00 -0.48427371818E+03  0.48427371818E+03  0.00000000000E+00 0.  1.
         23    2    1    2    0    0  0.50896925903E+02  0.64397438103E+02 -0.29915771707E+03  0.32329175669E+03  0.91020289854E+02 0.  0.
         23    2    1    2    0    0  0.54588883647E+01 -0.26714282789E+02  0.11386538675E+03  0.14822891736E+03  0.90901228138E+02 0.  0.
        -11    1    4    4    0    0  0.23176566184E+02  0.38305465898E+01 -0.51812826352E+01  0.24055602196E+02  0.00000000000E+00 0.  1.
         11    1    4    4    0    0 -0.17717677819E+02 -0.30544829379E+02  0.11904666938E+03  0.12417331517E+03  0.00000000000E+00 0. -1.
        -13    1    3    3    0    0  0.64559730959E+02  0.28385209302E+02 -0.25558090324E+03  0.26513256508E+03  0.00000000000E+00 0.  1.
         13    1    3    3    0    0 -0.13662805056E+02  0.36012228801E+02 -0.43576813832E+02  0.58159191612E+02  0.00000000000E+00 0. -1.
         21    1    1    2  502  501 -0.56355814268E+02 -0.37683155314E+02 -0.14849555998E+03  0.16323887199E+03  0.00000000000E+00 0. -1.
<scales pt_clust_5="13000.00000" pt_clust_6="13000.00000" pt_clust_7="13000.00000" pt_clust_8="13000.00000" pt_clust_9="67.79379"></scales>
<clustering>
<clus scale="   67.794">  2  9  1 -1</clus>
<clus scale="   90.901">  5  6 -1 -1</clus>
<clus scale="   91.020">  7  8 -1 -1</clus>
<clus scale="   95.353">  1  5  2 -1</clus>
<clus scale="   95.353">  1  5  2 -1</clus>
</clustering>
</event>
<event>
 9    1  0.1612788E-005  0.9271276E+02  0.7546771E-02  0.1296502E+00
          2   -1    0    0  502    0  0.00000000000E+00  0.00000000000E+00  0.38741889166E+03  0.38741889166E+03  0.00000000000E+00 0. -1.
         -2   -1    0    0    0  501 -0.00000000000E+00 -0.00000000000E+00 -0.35830095066E+02  0.35830095066E+02  0.00000000000E+00 0.  1.
         23    2    1    2    0    0 -0.25953318126E+02 -0.14965956873E+02  0.12937753933E+03  0.16073267880E+03  0.90547731966E+02 0.  0.
         23    2    1    2    0    0  0.54098323882E+01  0.13715462952E+02  0.22374140944E+03  0.24187799629E+03  0.90704832179E+02 0.  0.
        -11    1    4    4    0    0 -0.31839768279E+02 -0.22037790493E+02  0.74581970196E+02  0.84035143435E+02  0.00000000000E+00 0.  1.
         11    1    4    4    0    0  0.37249600667E+02  0.35753253444E+02  0.14915943925E+03  0.15784285286E+03  0.00000000000E+00 0. -1.
        -11    1    3    3    0    0 -0.41722591334E+02 -0.72375336444E-01  0.15031910506E+02  0.44347922152E+02  0.00000000000E+00 0.  1.
         11    1    3    3    0    0  0.15769273208E+02 -0.14893581536E+02  0.11434562883E+03  0.11638475665E+03  0.00000000000E+00 0. -1.
         21    1    1    2  502  501  0.20543485737E+02  0.12504939213E+01 -0.15301521822E+01  0.20638311631E+02  0.00000000000E+00 0. -1.
<scales pt_clust_5="13000.00000" pt_clust_6="13000.00000" pt_clust_7="13000.00000" pt_clust_8="13000.00000" pt_clust_9="20.58151"></scales>
<clustering>
<clus scale="   20.582">  2  9  1 -1</clus>
<clus scale="   90.548">  7  8 -1 -1</clus>
<clus scale="   90.705">  5  6 -1 -1</clus>
<clus scale="   92.559">  2  7  1 -1</clus>
<clus scale="   92.713">  1  5  2 -1</clus>
</clustering>
</event>
<event>
 9    1  0.1612788E-005  0.1250337E+03  0.7546771E-02  0.1235030E+00
          1   -1    0    0  502    0  0.00000000000E+00  0.00000000000E+00  0.11871080412E+03  0.11871080412E+03  0.00000000000E+00 0. -1.
         -1   -1    0    0    0  501 -0.00000000000E+00 -0.00000000000E+00 -0.19405531396E+03  0.19405531396E+03  0.00000000000E+00 0.  1.
         23    2    1    2    0    0  0.12071298278E+02 -0.87462627135E+02 -0.68625023428E+02  0.14540041760E+03  0.92932557317E+02 0.  0.
         23    2    1    2    0    0 -0.45553127054E+02  0.70601477866E+02  0.11325308212E+02  0.12576106342E+03  0.92886632003E+02 0.  0.
        -11    1    3    3    0    0 -0.34056176690E+02 -0.86197112373E+01 -0.88246181056E+01  0.36221491925E+02  0.00000000000E+00 0.  1.
         11    1    3    3    0    0  0.46127474968E+02 -0.78842915897E+02 -0.59800405323E+02  0.10917892567E+03  0.00000000000E+00 0. -1.
        -13    1    4    4    0    0 -0.65855069996E+02  0.54657756091E+02  0.33327315182E+02  0.91842639783E+02  0.00000000000E+00 0.  1.
         13    1    4    4    0    0  0.20301942942E+02  0.15943721775E+02 -0.22002006970E+02  0.33918423636E+02  0.00000000000E+00 0. -1.
         21    1    1    2  502  501  0.33481828776E+02  0.16861149269E+02 -0.18044794623E+02  0.41604637072E+02  0.00000000000E+00 0. -1.
<scales pt_clust_5="13000.00000" pt_clust_6="13000.00000" pt_clust_7="13000.00000" pt_clust_8="13000.00000" pt_clust_9="37.48775"></scales>
<clustering>
<clus scale="   37.488">  2  9  1 -1</clus>
<clus scale="   92.887">  7  8 -1 -1</clus>
<clus scale="   92.933">  5  6 -1 -1</clus>
<clus scale="  125.000">  1  7  2 -1</clus>
<clus scale="  125.000">  1  5  2 -1</clus>
</clustering>
</event>
<event>
 9    1  0.1612788E-005  0.1103033E+03  0.7546771E-02  0.1261441E+00
         -1   -1    0    0    0  501 -0.00000000000E+00  0.00000000000E+00  0.47293008925E+02  0.47293008925E+02  0.00000000000E+00 0.  1.
          1   -1    0    0  502    0  0.00000000000E+00 -0.00000000000E+00 -0.43148635105E+03  0.43148635105E+03  0.00000000000E+00 0. -1.
         23    2    1    2    0    0  0.36814687334E+02  0.16381489048E+02 -0.57976116682E+02  0.11775420403E+03  0.94239843347E+02 0.  0.
         23    2    1    2    0    0 -0.44565441166E+02 -0.45449016998E+02 -0.30422619711E+03  0.32376122307E+03  0.90642478256E+02 0.  0.
        -13    1    3    3    0    0 -0.24253264179E+02  0.13222875520E+02  0.70329111109E+01  0.28504860973E+02  0.00000000000E+00 0.  1.
         13    1    3    3    0    0  0.61067951513E+02  0.31586135273E+01 -0.65009027793E+02  0.89249343057E+02  0.00000000000E+00 0. -1.
        -13    1    4    4    0    0 -0.65235875599E+02 -0.11577811096E+02 -0.14114518307E+03  0.15592218533E+03  0.00000000000E+00 0. -1.
         13    1    4    4    0    0  0.20670434433E+02 -0.33871205902E+02 -0.16308101404E+03  0.16783903774E+03  0.00000000000E+00 0.  1.
         21    1    1    2  502  501  0.77507538314E+01  0.29067527950E+02 -0.21991028331E+02  0.37263932873E+02  0.00000000000E+00 0. -1.
<scales pt_clust_5="13000.00000" pt_clust_6="13000.00000" pt_clust_7="13000.00000" pt_clust_8="13000.00000" pt_clust_9="30.08314"></scales>
<clustering>
<clus scale="   30.083">  1  9  2 -1</clus>
<clus scale="   90.642">  7  8 -1 -1</clus>
<clus scale="   94.240">  5  6 -1 -1</clus>
<clus scale="  107.246">  2  7  1 -1</clus>
<clus scale="  107.246">  2  5  1 -1</clus>
</clustering>
</event>
<event>
 9    1  0.1612788E-005  0.9642116E+02  0.7546771E-02  0.1289143E+00
         -1   -1    0    0    0  501 -0.00000000000E+00  0.00000000000E+00  0.59923365270E+02  0.59923365270E+02  0.00000000000E+00 0.  1.
          1   -1    0    0  502    0  0.00000000000E+00 -0.00000000000E+00 -0.22160408167E+03  0.22160408167E+03  0.00000000000E+00 0. -1.
         23    2    1    2    0    0 -0.86599426216E+01 -0.97624971519E+01 -0.71316638313E+02  0.11815404240E+03  0.93295304697E+02 0.  0.
         23    2    1    2    0    0  0.21204808515E+02  0.26370648407E+02 -0.10081168857E+03  0.14008484699E+03  0.91190530227E+02 0.  0.
        -11    1    3    3    0    0 -0.38875641390E+02  0.33608365412E+01  0.62836586172E+00  0.39025703830E+02  0.00000000000E+00 0. -1.
         11    1    3    3    0    0  0.30215698769E+02 -0.13123333693E+02 -0.71945004174E+02  0.79128338570E+02  0.00000000000E+00 0.  1.
        -13    1    4    4    0    0  0.45518482265E+02  0.46901118245E+02 -0.64998767335E+02  0.92176390011E+02  0.00000000000E+00 0.  1.
         13    1    4    4    0    0 -0.24313673750E+02 -0.20530469838E+02 -0.35812921230E+02  0.47908456978E+02  0.00000000000E+00 0. -1.
         21    1    1    2  502  501 -0.12544865894E+02 -0.16608151255E+02  0.10447610473E+02  0.23288557555E+02  0.00000000000E+00 0.  1.
<scales pt_clust_5="13000.00000" pt_clust_6="13000.00000" pt_clust_7="13000.00000" pt_clust_8="13000.00000" pt_clust_9="20.81356"></scales>
<clustering>
<clus scale="   20.814">  1  9  2 -1</clus>
<clus scale="   91.191">  7  8 -1 -1</clus>
<clus scale="   93.295">  5  6 -1 -1</clus>
<clus scale="   94.386">  2  7  1 -1</clus>
<clus scale="   94.386">  2  5  1 -1</clus>
</clustering>
</event>
<event>
 9    1  0.1612788E-005  0.2445216E+03  0.7546771E-02  0.1116913E+00
         -2   -1    0    0    0  501 -0.00000000000E+00  0.00000000000E+00  0.10666774169E+04  0.10666774169E+04  0.00000000000E+00 0.  1.
          2   -1    0    0  502    0  0.00000000000E+00 -0.00000000000E+00 -0.81433825659E+02  0.81433825659E+02  0.00000000000E+00 0. -1.
         23    2    1    2    0    0 -0.17547831109E+03 -0.13941684610E+03  0.58989603099E+03  0.63824455643E+03  0.95650884954E+02 0.  0.
         23    2    1    2    0    0  0.21810406232E+03  0.83872592778E+02  0.30625601937E+03  0.39655551545E+03  0.94125095564E+02 0.  0.
        -11    1    3    3    0    0 -0.91102004604E+02 -0.13632471719E+02  0.23192935202E+03  0.24955288789E+03  0.00000000000E+00 0. -1.
         11    1    3    3    0    0 -0.84376306484E+02 -0.12578437438E+03  0.35796667897E+03  0.38869166853E+03  0.00000000000E+00 0.  1.
        -11    1    4    4    0    0  0.11143597036E+03  0.50458826596E+02  0.85917397101E+02  0.14948534308E+03  0.00000000000E+00 0. -1.
         11    1    4    4    0    0  0.10666809197E+03  0.33413766182E+02  0.22033862226E+03  0.24707017237E+03  0.00000000000E+00 0.  1.
         21    1    1    2  502  501 -0.42625751237E+02  0.55544253320E+02  0.89091540920E+02  0.11331117072E+03  0.00000000000E+00 0.  1.
<scales pt_clust_5="13000.00000" pt_clust_6="13000.00000" pt_clust_7="13000.00000" pt_clust_8="13000.00000" pt_clust_9="70.01513"></scales>
<clustering>
<clus scale="   70.015">  2  9  1 -1</clus>
<clus scale="   94.125">  7  8 -1 -1</clus>
<clus scale="   95.651">  5  6 -1 -1</clus>
<clus scale="  243.929">  2  7  1 -1</clus>
<clus scale="   70.015">  2  5  1 -1</clus>
</clustering>
</event>
<event>
 9    1  0.1612788E-005  0.1113984E+03  0.7546771E-02  0.1258043E+00
         -3   -1    0    0    0  501 -0.00000000000E+00  0.00000000000E+00  0.22264469522E+03  0.22264469522E+03  0.00000000000E+00 0.  1.
          3   -1    0    0  502    0  0.00000000000E+00 -0.00000000000E+00 -0.10366937639E+03  0.10366937639E+03  0.00000000000E+00 0. -1.
         23    2    1    2    0    0  0.84445966001E+02 -0.44555888291E+02  0.10567517406E+03  0.16904556163E+03  0.91064873246E+02 0.  0.
         23    2    1    2    0    0 -0.50379918426E+02  0.18083762068E+02 -0.13340093579E+02  0.10656376303E+03  0.91174112903E+02 0.  0.
        -13    1    3    3    0    0  0.44623058917E+02  0.25472466607E+02  0.41681951385E+02  0.66162292988E+02  0.00000000000E+00 0. -1.
         13    1    3    3    0    0  0.39822907084E+02 -0.70028354898E+02  0.63993222677E+02  0.10288326864E+03  0.00000000000E+00 0.  1.
        -13    1    4    4    0    0 -0.74664897628E+02  0.14161392815E+02 -0.24082925781E+02  0.79720632827E+02  0.00000000000E+00 0.  1.
         13    1    4    4    0    0  0.24284979202E+02  0.39223692529E+01  0.10742832203E+02  0.26843130204E+02  0.00000000000E+00 0. -1.
         21    1    1    2  502  501 -0.34066047576E+02  0.26472126223E+02  0.26640238349E+02  0.50704746953E+02  0.00000000000E+00 0.  1.
<scales pt_clust_5="13000.00000" pt_clust_6="13000.00000" pt_clust_7="13000.00000" pt_clust_8="13000.00000" pt_clust_9="43.14243"></scales>
<clustering>
<clus scale="   43.142">  1  9  2 -1</clus>
<clus scale="   91.065">  5  6 -1 -1</clus>
<clus scale="   91.174">  7  8 -1 -1</clus>
<clus scale="  111.309">  1  5  2 -1</clus>
<clus scale="  111.398">  2  5  1 -1</clus>
</clustering>
</event>
<event>
 9    1  0.1612788E-005  0.1087297E+03  0.7546771E-02  0.1263953E+00
          2   -1    0    0  502    0  0.00000000000E+00  0.00000000000E+00  0.12522914808E+03  0.12522914808E+03  0.00000000000E+00 0. -1.
         -2   -1    0    0    0  501 -0.00000000000E+00 -0.00000000000E+00 -0.19113396160E+03  0.19113396160E+03  0.00000000000E+00 0.  1.
         23    2    1    2    0    0 -0.17014373487E+02  0.20130773226E+02 -0.10396466091E+03  0.14116978075E+03  0.91790627745E+02 0.  0.
         23    2    1    2    0    0  0.21447244686E+02 -0.64064514810E+02  0.58758750332E+02  0.12642583382E+03  0.89256116623E+02 0.  0.
        -13    1    4    4    0    0 -0.24330954942E+02 -0.25515829356E+02  0.56423826803E+02  0.66533458855E+02  0.00000000000E+00 0.  1.
         13    1    4    4    0    0  0.45778199628E+02 -0.38548685454E+02  0.23349235296E+01  0.59892374968E+02  0.00000000000E+00 0. -1.
        -13    1    3    3    0    0 -0.45055236887E+02  0.58550284421E+01 -0.99508558554E+02  0.10939016845E+03  0.00000000000E+00 0.  1.
         13    1    3    3    0    0  0.28040863400E+02  0.14275744784E+02 -0.44561023606E+01  0.31779612295E+02  0.00000000000E+00 0. -1.
         21    1    1    2  502  501 -0.44328711988E+01  0.43933741584E+02 -0.20698902940E+02  0.48767495113E+02  0.00000000000E+00 0.  1.
<scales pt_clust_5="13000.00000" pt_clust_6="13000.00000" pt_clust_7="13000.00000" pt_clust_8="13000.00000" pt_clust_9="44.15681"></scales>
<clustering>
<clus scale="   44.157">  2  9  1 -1</clus>
<clus scale="   89.256">  5  6 -1 -1</clus>
<clus scale="   91.791">  7  8 -1 -1</clus>
<clus scale="  106.599">  1  5  2 -1</clus>
<clus scale="  106.599">  1  5  2 -1</clus>
</clustering>
</event>
<event>
 9    1  0.1612788E-005  0.1513992E+03  0.7546771E-02  0.1199112E+00
          1   -1    0    0  502    0  0.00000000000E+00  0.00000000000E+00  0.88593393712E+02  0.88593393712E+02  0.00000000000E+00 0. -1.
         -1   -1    0    0    0  501 -0.00000000000E+00 -0.00000000000E+00 -0.45944265651E+03  0.45944265651E+03  0.00000000000E+00 0.  1.
         23    2    1    2    0    0  0.74258953694E+02 -0.12145783115E+03 -0.20349953863E+03  0.26439734527E+03  0.90705551183E+02 0.  0.
         23    2    1    2    0    0 -0.96498560760E+02  0.63666712542E+02 -0.55859147433E+02  0.15610611220E+03  0.88788802220E+02 0.  0.
        -13    1    3    3    0    0 -0.19599203756E+02 -0.70749478831E+01 -0.24686555694E+02  0.32304948652E+02  0.00000000000E+00 0.  1.
         13    1    3    3    0    0  0.93858157450E+02 -0.11438288326E+03 -0.17881298294E+03  0.23209239662E+03  0.00000000000E+00 0. -1.
        -13    1    4    4    0    0 -0.68054011702E+02  0.30055879289E+02 -0.77167823993E+02  0.10718944653E+03  0.00000000000E+00 0.  1.
         13    1    4    4    0    0 -0.28444549059E+02  0.33610833252E+02  0.21308676560E+02  0.48916665666E+02  0.00000000000E+00 0. -1.
         21    1    1    2  502  501  0.22239607066E+02  0.57791118605E+02 -0.11149057674E+03  0.12753259275E+03  0.00000000000E+00 0.  1.
<scales pt_clust_5="13000.00000" pt_clust_6="13000.00000" pt_clust_7="13000.00000" pt_clust_8="13000.00000" pt_clust_9="61.92264"></scales>
<clustering>
<clus scale="   61.923">  2  9  1 -1</clus>
<clus scale="   88.789">  7  8 -1 -1</clus>
<clus scale="   90.706">  5  6 -1 -1</clus>
<clus scale="  150.259">  1  7  2 -1</clus>
<clus scale="  150.259">  1  5  2 -1</clus>
</clustering>
</event>
<event>
 9    1  0.1612788E-005  0.9303243E+02  0.7546771E-02  0.1297977E+00
          1   -1    0    0  502    0  0.00000000000E+00  0.00000000000E+00  0.92387885229E+02  0.92387885229E+02  0.00000000000E+00 0. -1.
         -1   -1    0    0    0  501 -0.00000000000E+00 -0.00000000000E+00 -0.21379659349E+03  0.21379659349E+03  0.00000000000E+00 0.  1.
         23    2    1    2    0    0 -0.23334530008E+02  0.27845661244E+02 -0.12633420694E+03  0.16032251293E+03  0.91777421877E+02 0.  0.
         23    2    1    2    0    0  0.47237707924E+01 -0.10323652291E+02  0.44219438565E+02  0.98985587221E+02  0.87828787555E+02 0.  0.
        -13    1    3    3    0    0  0.81261598280E+01  0.36760604504E+02 -0.12158459019E+03  0.12727996342E+03  0.00000000000E+00 0.  1.
         13    1    3    3    0    0 -0.31460689836E+02 -0.89149432599E+01 -0.47496167494E+01  0.33042549502E+02  0.00000000000E+00 0. -1.
        -13    1    4    4    0    0 -0.36524151524E+02 -0.17556394666E+02  0.39926182479E+02  0.56888845001E+02  0.00000000000E+00 0.  1.
         13    1    4    4    0    0  0.41247922317E+02  0.72327423752E+01  0.42932560857E+01  0.42096742220E+02  0.00000000000E+00 0. -1.
         21    1    1    2  502  501  0.18610759216E+02 -0.17522008953E+02 -0.39293939883E+02  0.46876378571E+02  0.00000000000E+00 0.  1.
<scales pt_clust_5="13000.00000" pt_clust_6="13000.00000" pt_clust_7="13000.00000" pt_clust_8="13000.00000" pt_clust_9="25.56132"></scales>
<clustering>
<clus scale="   25.561">  2  9  1 -1</clus>
<clus scale="   87.829">  7  8 -1 -1</clus>
<clus scale="   89.139">  1  7  2 -1</clus>
<clus scale="   91.777">  5  6 -1 -1</clus>
<clus scale="   89.139">  1  5  2 -1</clus>
</clustering>
</event>
<event>
 9    1  0.1612788E-005  0.1182761E+03  0.7546771E-02  0.1248191E+00
          2   -1    0    0  502    0  0.00000000000E+00  0.00000000000E+00  0.44103434017E+03  0.44103434017E+03  0.00000000000E+00 0. -1.
         -2   -1    0    0    0  501 -0.00000000000E+00 -0.00000000000E+00 -0.18156483421E+03  0.18156483421E+03  0.00000000000E+00 0.  1.
         23    2    1    2    0    0 -0.37802246688E+02  0.32205019035E+02 -0.14169363555E+03  0.17451402692E+03  0.88948783753E+02 0.  0.
         23    2    1    2    0    0  0.61929163075E+02 -0.34761160325E+02  0.40624028293E+03  0.42329766438E+03  0.95426336432E+02 0.  0.
        -11    1    3    3    0    0 -0.51917539738E+02  0.51144803331E+02 -0.12777403936E+03  0.14709665861E+03  0.00000000000E+00 0.  1.
         11    1    3    3    0    0  0.14115293050E+02 -0.18939784296E+02 -0.13919596195E+02  0.27417368314E+02  0.00000000000E+00 0. -1.
        -11    1    4    4    0    0  0.26256741910E+02  0.25443912228E+02  0.61676655191E+02  0.71699504606E+02  0.00000000000E+00 0.  1.
         11    1    4    4    0    0  0.35672421165E+02 -0.60205072554E+02  0.34456362774E+03  0.35159815977E+03  0.00000000000E+00 0. -1.
         21    1    1    2  502  501 -0.24126916388E+02  0.25561412899E+01 -0.50771414117E+01  0.24787483083E+02  0.00000000000E+00 0.  1.
<scales pt_clust_5="13000.00000" pt_clust_6="13000.00000" pt_clust_7="13000.00000" pt_clust_8="13000.00000" pt_clust_9="24.26194"></scales>
<clustering>
<clus scale="   24.262">  2  9  1 -1</clus>
<clus scale="   88.949">  5  6 -1 -1</clus>
<clus scale="   95.426">  7  8 -1 -1</clus>
<clus scale="  113.115">  2  5  1 -1</clus>
<clus scale="  118.276">  1  5  2 -1</clus>
</clustering>
</event>
<event>
 9    1  0.1612788E-005  0.2770155E+03  0.7546771E-02  0.1097354E+00
          2   -1    0    0  502    0  0.00000000000E+00  0.00000000000E+00  0.59815914011E+03  0.59815914011E+03  0.00000000000E+00 0. -1.
         -2   -1    0    0    0  501 -0.00000000000E+00 -0.00000000000E+00 -0.22594825034E+03  0.22594825034E+03  0.00000000000E+00 0.  1.
         23    2    1    2    0    0  0.19707768789E+03 -0.10604353084E+03  0.10451232889E+03  0.26354450708E+03  0.91913191794E+02 0.  0.
         23    2    1    2    0    0 -0.22530889306E+03  0.18438053624E+03  0.33525872207E+03  0.45333386333E+03  0.91394209233E+02 0.  0.
        -13    1    4    4    0    0 -0.20284438734E+03  0.13736205199E+03  0.31088019251E+03  0.39580383133E+03  0.00000000000E+00 0. -1.
         13    1    4    4    0    0 -0.22464505715E+02  0.47018484246E+02  0.24378529564E+02  0.57530031997E+02  0.00000000000E+00 0.  1.
        -13    1    3    3    0    0  0.63733929639E+02  0.65304784918E+01  0.48201195221E+02  0.80174909774E+02  0.00000000000E+00 0. -1.
         13    1    3    3    0    0  0.13334375825E+03 -0.11257400933E+03  0.56311133668E+02  0.18336959731E+03  0.00000000000E+00 0.  1.
         21    1    1    2  502  501  0.28231205163E+02 -0.78337005397E+02 -0.67560161190E+02  0.10722902004E+03  0.00000000000E+00 0.  1.
<scales pt_clust_5="13000.00000" pt_clust_6="13000.00000" pt_clust_7="13000.00000" pt_clust_8="13000.00000" pt_clust_9="83.26877"></scales>
<clustering>
<clus scale="   83.269">  2  9  1 -1</clus>
<clus scale="   91.394">  5  6 -1 -1</clus>
<clus scale="   91.913">  7  8 -1 -1</clus>
<clus scale="  276.844">  1  5  2 -1</clus>
<clus scale="  276.844">  1  5  2 -1</clus>
</clustering>
</event>
<event>
 9    1  0.1612788E-005  0.9467764E+02  0.7546771E-02  0.1293705E+00
          1   -1    0    0  502    0  0.00000000000E+00  0.00000000000E+00  0.71093417425E+02  0.71093417425E+02  0.00000000000E+00 0. -1.
         -1   -1    0    0    0  501 -0.00000000000E+00 -0.00000000000E+00 -0.18356638120E+03  0.18356638120E+03  0.00000000000E+00 0.  1.
         23    2    1    2    0    0 -0.68537973242E+01  0.26184441739E+01 -0.54608758144E+02  0.10881237024E+03  0.93830616878E+02 0.  0.
         23    2    1    2    0    0 -0.15668105792E+02  0.20754047977E+02 -0.20828368524E+02  0.96601487033E+02  0.90674176672E+02 0.  0.
        -11    1    3    3    0    0 -0.48291606577E+02 -0.12220729566E+02 -0.33229696268E+02  0.59880198823E+02  0.00000000000E+00 0. -1.
         11    1    3    3    0    0  0.41437809253E+02  0.14839173740E+02 -0.21379061876E+02  0.48932171418E+02  0.00000000000E+00 0.  1.
        -11    1    4    4    0    0  0.21301731150E+02 -0.19451378026E+02  0.13751102166E+02  0.31956418259E+02  0.00000000000E+00 0.  1.
         11    1    4    4    0    0 -0.36969836942E+02  0.40205426003E+02 -0.34579470691E+02  0.64645068775E+02  0.00000000000E+00 0. -1.
         21    1    1    2  502  501  0.22521903116E+02 -0.23372492150E+02 -0.37035837104E+02  0.49245941349E+02  0.00000000000E+00 0.  1.
<scales pt_clust_5="13000.00000" pt_clust_6="13000.00000" pt_clust_7="13000.00000" pt_clust_8="13000.00000" pt_clust_9="32.45781"></scales>
<clustering>
<clus scale="   32.458">  2  9  1 -1</clus>
<clus scale="   90.674">  7  8 -1 -1</clus>
<clus scale="   91.550">  1  7  2 -1</clus>
<clus scale="   93.831">  5  6 -1 -1</clus>
<clus scale="   91.550">  1  5  2 -1</clus>
</clustering>
</event>
<event>
 9    1  0.1612788E-005  0.1134409E+03  0.7546771E-02  0.1258512E+00
         -1   -1    0    0    0  501 -0.00000000000E+00  0.00000000000E+00  0.27223271826E+02  0.27223271826E+02  0.00000000000E+00 0.  1.
          1   -1    0    0  502    0  0.00000000000E+00 -0.00000000000E+00 -0.93627369060E+03  0.93627369060E+03  0.00000000000E+00 0. -1.
         23    2    1    2    0    0 -0.74221298412E+02  0.46338156730E+02 -0.31624639520E+03  0.33942715601E+03  0.86850364692E+02 0.  0.
         23    2    1    2    0    0  0.43456610811E+02 -0.13571709296E+02 -0.55501487399E+03  0.56534906131E+03  0.97495550953E+02 0.  0.
        -11    1    3    3    0    0 -0.11766773448E+02 -0.24787302494E+02 -0.53012321517E+02  0.59692324088E+02  0.00000000000E+00 0.  1.
         11    1    3    3    0    0 -0.62454524964E+02  0.71125459224E+02 -0.26323407369E+03  0.27973483192E+03  0.00000000000E+00 0. -1.
        -13    1    4    4    0    0  0.14714889044E+02 -0.54968170417E+02 -0.31535887315E+03  0.32045162910E+03  0.00000000000E+00 0.  1.
         13    1    4    4    0    0  0.28741721767E+02  0.41396461121E+02 -0.23965600084E+03  0.24489743221E+03  0.00000000000E+00 0. -1.
         21    1    1    2  502  501  0.30764687601E+02 -0.32766447434E+02 -0.37789149581E+02  0.58720745113E+02  0.00000000000E+00 0. -1.
<scales pt_clust_5="13000.00000" pt_clust_6="13000.00000" pt_clust_7="13000.00000" pt_clust_8="13000.00000" pt_clust_9="44.94559"></scales>
<clustering>
<clus scale="   44.946">  1  9  2 -1</clus>
<clus scale="   86.850">  5  6 -1 -1</clus>
<clus scale="   97.496">  7  8 -1 -1</clus>
<clus scale="  104.434">  1  5  2 -1</clus>
<clus scale="  113.441">  2  5  1 -1</clus>
</clustering>
</event>
<event>
 9    1  0.1612788E-005  0.1072453E+03  0.7546771E-02  0.1267109E+00
          2   -1    0    0  502    0  0.00000000000E+00  0.00000000000E+00  0.74487772040E+03  0.74487772040E+03  0.00000000000E+00 0. -1.
         -2   -1    0    0    0  501 -0.00000000000E+00 -0.00000000000E+00 -0.43193368956E+02  0.43193368956E+02  0.00000000000E+00 0.  1.
         23    2    1    2    0    0 -0.49996686296E+02 -0.44241860389E+02  0.66980704240E+02  0.12966648250E+03  0.88712857543E+02 0.  0.
         23    2    1    2    0    0  0.13912837437E+02 -0.16969770701E+02  0.46341461211E+03  0.47296232076E+03  0.91971267112E+02 0.  0.
        -11    1    4    4    0    0 -0.29433060435E+02 -0.36550324047E+02  0.23869345577E+03  0.24326281479E+03  0.00000000000E+00 0. -1.
         11    1    4    4    0    0  0.43345897872E+02  0.19580553347E+02  0.22472115634E+03  0.22969950596E+03  0.00000000000E+00 0.  1.
        -13    1    3    3    0    0 -0.20128282708E+01  0.22698100583E+02 -0.10940193297E+01  0.22813419867E+02  0.00000000000E+00 0.  1.
         13    1    3    3    0    0 -0.47983858025E+02 -0.66939960973E+02  0.68074723569E+02  0.10685306264E+03  0.00000000000E+00 0. -1.
         21    1    1    2  502  501  0.36083848858E+02  0.61211631090E+02  0.17128903509E+03  0.18544228610E+03  0.00000000000E+00 0.  1.
<scales pt_clust_5="13000.00000" pt_clust_6="13000.00000" pt_clust_7="13000.00000" pt_clust_8="13000.00000" pt_clust_9="71.05567"></scales>
<clustering>
<clus scale="   71.056">  1  9  2 -1</clus>
<clus scale="   88.713">  7  8 -1 -1</clus>
<clus scale="   91.971">  5  6 -1 -1</clus>
<clus scale="  104.464">  2  7  1 -1</clus>
<clus scale="   71.056">  1  5  2 -1</clus>
</clustering>
</event>
<event>
 9    1  0.1612788E-005  0.1274427E+03  0.7546771E-02  0.1231937E+00
         -2   -1    0    0    0  501 -0.00000000000E+00  0.00000000000E+00  0.50026875041E+02  0.50026875041E+02  0.00000000000E+00 0.  1.
          2   -1    0    0  502    0  0.00000000000E+00 -0.00000000000E+00 -0.37815381144E+03  0.37815381144E+03  0.00000000000E+00 0. -1.
         23    2    1    2    0    0 -0.90856861051E+01  0.93873034831E+02 -0.13925063584E+03  0.19162152332E+03  0.91833394029E+02 0.  0.
         23    2    1    2    0    0  0.17829097099E+02 -0.75177894628E+02 -0.15951328001E+03  0.20066846131E+03  0.94094379865E+02 0.  0.
        -13    1    3    3    0    0 -0.49703158680E+02  0.58200062393E+02 -0.93275142118E+02  0.12065613695E+03  0.00000000000E+00 0. -1.
         13    1    3    3    0    0  0.40617472575E+02  0.35672972438E+02 -0.45975493721E+02  0.70965386378E+02  0.00000000000E+00 0.  1.
        -13    1    4    4    0    0  0.34735791043E+02 -0.25097723309E+02 -0.12801135884E+02  0.44725160420E+02  0.00000000000E+00 0.  1.
         13    1    4    4    0    0 -0.16906693944E+02 -0.50080171319E+02 -0.14671214413E+03  0.15594330089E+03  0.00000000000E+00 0. -1.
         21    1    1    2  502  501 -0.87434109940E+01 -0.18695140202E+02 -0.29363020548E+02  0.35890701842E+02  0.00000000000E+00 0.  1.
<scales pt_clust_5="13000.00000" pt_clust_6="13000.00000" pt_clust_7="13000.00000" pt_clust_8="13000.00000" pt_clust_9="20.63869"></scales>
<clustering>
<clus scale="   20.639">  2  9  1 -1</clus>
<clus scale="   91.833">  5  6 -1 -1</clus>
<clus scale="   94.094">  7  8 -1 -1</clus>
<clus scale="  125.783">  1  5  2 -1</clus>
<clus scale="   20.639">  2  5  1 -1</clus>
</clustering>
</event>
<event>
 9    1  0.1612788E-005  0.9573770E+02  0.7546771E-02  0.1292504E+00
          2   -1    0    0  502    0  0.00000000000E+00  0.00000000000E+00  0.36216528881E+02  0.36216528881E+02  0.00000000000E+00 0.  1.
         -2   -1    0    0    0  501 -0.00000000000E+00 -0.00000000000E+00 -0.58921134244E+03  0.58921134244E+03  0.00000000000E+00 0. -1.
         23    2    1    2    0    0  0.13928069366E+02  0.42113642336E+02 -0.19145691494E+03  0.21606341016E+03  0.89778042685E+02 0.  0.
         23    2    1    2    0    0  0.25775203825E+02  0.17475817875E+02 -0.11378820329E+03  0.15147462962E+03  0.95010751332E+02 0.  0.
        -11    1    4    4    0    0 -0.86099638955E+01 -0.29375409493E+02 -0.76572723768E+02  0.82464708733E+02  0.00000000000E+00 0. -1.
         11    1    4    4    0    0  0.34385167721E+02  0.46851227368E+02 -0.37215479518E+02  0.69009920887E+02  0.00000000000E+00 0.  1.
        -11    1    3    3    0    0 -0.33003032366E+02  0.35363638810E+02 -0.65100435773E+02  0.81103969281E+02  0.00000000000E+00 0.  1.
         11    1    3    3    0    0  0.46931101732E+02  0.67500035257E+01 -0.12635647916E+03  0.13495944088E+03  0.00000000000E+00 0. -1.
         21    1    1    2  502  501 -0.39703273191E+02 -0.59589460211E+02 -0.24774969534E+03  0.25788983153E+03  0.00000000000E+00 0.  1.
<scales pt_clust_5="13000.00000" pt_clust_6="13000.00000" pt_clust_7="13000.00000" pt_clust_8="13000.00000" pt_clust_9="71.60484"></scales>
<clustering>
<clus scale="   71.605">  2  9  1 -1</clus>
<clus scale="   89.778">  7  8 -1 -1</clus>
<clus scale="   90.547">  2  7  1 -1</clus>
<clus scale="   95.011">  5  6 -1 -1</clus>
<clus scale="   95.738">  1  5  2 -1</clus>
</clustering>
</event>
<event>
 9    1  0.1612788E-005  0.1152028E+03  0.7546771E-02  0.1252880E+00
          1   -1    0    0  502    0  0.00000000000E+00  0.00000000000E+00  0.15042760751E+03  0.15042760751E+03  0.00000000000E+00 0. -1.
         -1   -1    0    0    0  501 -0.00000000000E+00 -0.00000000000E+00 -0.19949914016E+03  0.19949914016E+03  0.00000000000E+00 0.  1.
         23    2    1    2    0    0  0.52786851206E+02 -0.39979689211E+02 -0.57961467822E+02  0.12713492422E+03  0.91754727368E+02 0.  0.
         23    2    1    2    0    0 -0.27051703684E+02  0.58284390822E+02  0.82879233831E+02  0.14234447275E+03  0.96250281234E+02 0.  0.
        -11    1    3    3    0    0  0.43844165468E+02 -0.62350027476E+02 -0.66921241076E+02  0.10143120466E+03  0.00000000000E+00 0.  1.
         11    1    3    3    0    0  0.89426857387E+01  0.22370338265E+02  0.89597732544E+01  0.25703719558E+02  0.00000000000E+00 0. -1.
        -13    1    4    4    0    0 -0.53926428441E+02  0.63453874329E+02  0.78851596009E+02  0.11468229177E+03  0.00000000000E+00 0. -1.
         13    1    4    4    0    0  0.26874724758E+02 -0.51694835070E+01  0.40276378219E+01  0.27662180987E+02  0.00000000000E+00 0.  1.
         21    1    1    2  502  501 -0.25735147523E+02 -0.18304701611E+02 -0.73989298659E+02  0.80447350703E+02  0.00000000000E+00 0.  1.
<scales pt_clust_5="13000.00000" pt_clust_6="13000.00000" pt_clust_7="13000.00000" pt_clust_8="13000.00000" pt_clust_9="31.58101"></scales>
<clustering>
<clus scale="   31.581">  2  9  1 -1</clus>
<clus scale="   91.755">  5  6 -1 -1</clus>
<clus scale="   96.250">  7  8 -1 -1</clus>
<clus scale="  111.474">  2  5  1 -1</clus>
<clus scale="  115.203">  1  5  2 -1</clus>
</clustering>
</event>
<event>
 9    1  0.1612788E-005  0.1074240E+03  0.7546771E-02  0.1266235E+00
         -2   -1    0    0    0  501 -0.00000000000E+00  0.00000000000E+00  0.65337107100E+02  0.65337107100E+02  0.00000000000E+00 0.  1.
          2   -1    0    0  502    0  0.00000000000E+00 -0.00000000000E+00 -0.34846148589E+03  0.34846148589E+03  0.00000000000E+00 0. -1.
         23    2    1    2    0    0  0.64642642307E+02  0.58967729766E+01 -0.21972263543E+02  0.11371591368E+03  0.90747371985E+02 0.  0.
         23    2    1    2    0    0 -0.50965617030E+02 -0.24488543738E+02 -0.25550628241E+03  0.27632156846E+03  0.88729735445E+02 0.  0.
        -11    1    4    4    0    0 -0.17781285604E+02  0.32586440164E+02 -0.67121352487E+02  0.76702843233E+02  0.00000000000E+00 0.  1.
         11    1    4    4    0    0 -0.33184331425E+02 -0.57074983902E+02 -0.18838492992E+03  0.19961872522E+03  0.00000000000E+00 0. -1.
        -13    1    3    3    0    0  0.34124519088E+02  0.44675474791E+02  0.67459384356E+01  0.56620566371E+02  0.00000000000E+00 0.  1.
         13    1    3    3    0    0  0.30518123218E+02 -0.38778701814E+02 -0.28718201978E+02  0.57095347306E+02  0.00000000000E+00 0. -1.
         21    1    1    2  502  501 -0.13677025277E+02  0.18591770761E+02 -0.56458328377E+01  0.23761110851E+02  0.00000000000E+00 0. -1.
<scales pt_clust_5="13000.00000" pt_clust_6="13000.00000" pt_clust_7="13000.00000" pt_clust_8="13000.00000" pt_clust_9="23.08062"></scales>
<clustering>
<clus scale="   23.081">  1  9  2 -1</clus>
<clus scale="   88.730">  5  6 -1 -1</clus>
<clus scale="   90.747">  7  8 -1 -1</clus>
<clus scale="  105.725">  2  5  1 -1</clus>
<clus scale="  105.725">  2  5  1 -1</clus>
</clustering>
</event>
<event>
 9    1  0.1612788E-005  0.1024905E+03  0.7546771E-02  0.1277504E+00
         -1   -1    0    0    0  501 -0.00000000000E+00  0.00000000000E+00  0.24597008186E+03  0.24597008186E+03  0.00000000000E+00 0.  1.
          1   -1    0    0  502    0  0.00000000000E+00 -0.00000000000E+00 -0.24006591507E+03  0.24006591507E+03  0.00000000000E+00 0. -1.
         23    2    1    2    0    0  0.22840489354E+02 -0.39037485697E+02  0.69405746255E+02  0.12318571323E+03  0.91169891335E+02 0.  0.
         23    2    1    2    0    0 -0.37094082973E+02  0.94364139239E+00 -0.19755362761E+03  0.22276367650E+03  0.96017489743E+02 0.  0.
        -11    1    4    4    0    0 -0.39927297124E+02  0.40767762967E+02 -0.77473341428E+02  0.96220154775E+02  0.00000000000E+00 0. -1.
         11    1    4    4    0    0  0.28332141514E+01 -0.39824121575E+02 -0.12008028618E+03  0.12654352173E+03  0.00000000000E+00 0.  1.
        -13    1    3    3    0    0  0.52105861892E+02 -0.35089378434E+01  0.52767585898E+02  0.74241171931E+02  0.00000000000E+00 0.  1.
         13    1    3    3    0    0 -0.29265372537E+02 -0.35528547854E+02  0.16638160358E+02  0.48944541294E+02  0.00000000000E+00 0. -1.
         21    1    1    2  502  501  0.14253593619E+02  0.38093844305E+02  0.13405204815E+03  0.14008660720E+03  0.00000000000E+00 0.  1.
<scales pt_clust_5="13000.00000" pt_clust_6="13000.00000" pt_clust_7="13000.00000" pt_clust_8="13000.00000" pt_clust_9="40.67316"></scales>
<clustering>
<clus scale="   40.673">  1  9  2 -1</clus>
<clus scale="   91.170">  7  8 -1 -1</clus>
<clus scale="   96.017">  5  6 -1 -1</clus>
<clus scale="   97.964">  1  7  2 -1</clus>
<clus scale="  102.491">  2  5  1 -1</clus>
</clustering>
</event>
<event>
 9    1  0.1612788E-005  0.1567621E+03  0.7546771E-02  0.1207737E+00
          1   -1    0    0  502    0  0.00000000000E+00  0.00000000000E+00  0.32392660047E+03  0.32392660047E+03  0.00000000000E+00 0. -1.
         -1   -1    0    0    0  501 -0.00000000000E+00 -0.00000000000E+00 -0.26857616143E+03  0.26857616143E+03  0.00000000000E+00 0.  1.
         23    2    1    2    0    0 -0.47364678055E+01 -0.92509406365E+02  0.10327001449E+01  0.13025728792E+03  0.91572212992E+02 0.  0.
         23    2    1    2    0    0 -0.52582841676E+02 -0.38958672200E+02  0.21761454204E+03  0.24490885757E+03  0.91331956238E+02 0.  0.
        -11    1    4    4    0    0  0.48178187366E+01 -0.52710521597E+02  0.92585737326E+02  0.10664768737E+03  0.00000000000E+00 0. -1.
         11    1    4    4    0    0 -0.57400660412E+02  0.13751849397E+02  0.12502880471E+03  0.13826117020E+03  0.00000000000E+00 0.  1.
        -13    1    3    3    0    0 -0.46120873815E+02 -0.29121932488E+02 -0.21454526094E+00  0.54546017114E+02  0.00000000000E+00 0. -1.
         13    1    3    3    0    0  0.41384406010E+02 -0.63387473876E+02  0.12472454058E+01  0.75711270801E+02  0.00000000000E+00 0.  1.
         21    1    1    2  502  501  0.57319309481E+02  0.13146807856E+03 -0.16329680314E+03  0.21733661642E+03  0.00000000000E+00 0.  1.
<scales pt_clust_5="13000.00000" pt_clust_6="13000.00000" pt_clust_7="13000.00000" pt_clust_8="13000.00000" pt_clust_9="127.23553"></scales>
<clustering>
<clus scale="   91.332">  5  6 -1 -1</clus>
<clus scale="   91.572">  7  8 -1 -1</clus>
<clus scale="  112.358">  1  5  2 -1</clus>
<clus scale="  127.236">  2  9  1 -1</clus>
<clus scale="  112.358">  1  5  2 -1</clus>
</clustering>
</event>
<event>
 9    1  0.1612788E-005  0.1196000E+03  0.7546771E-02  0.1243805E+00
         -1   -1    0    0    0  501 -0.00000000000E+00  0.00000000000E+00  0.12057087332E+03  0.12057087332E+03  0.00000000000E+00 0.  1.
          1   -1    0    0  502    0  0.00000000000E+00 -0.00000000000E+00 -0.34889368701E+03  0.34889368701E+03  0.00000000000E+00 0. -1.
         23    2    1    2    0    0 -0.70750191869E+02 -0.18052093862E+01 -0.12600009116E+03  0.17092729253E+03  0.91275779532E+02 0.  0.
         23    2    1    2    0    0  0.79611360104E+02  0.27808481802E+02 -0.17849931868E+03  0.21755847871E+03  0.91424310621E+02 0.  0.
        -11    1    3    3    0    0 -0.89021157437E+02  0.14461035237E+02 -0.90082984153E+02  0.12747090666E+03  0.00000000000E+00 0.  1.
         11    1    3    3    0    0  0.18270965568E+02 -0.16266244623E+02 -0.35917107012E+02  0.43456385872E+02  0.00000000000E+00 0. -1.
        -11    1    4    4    0    0  0.20873162427E+02 -0.11846270248E+02 -0.12875370164E+03  0.13097151872E+03  0.00000000000E+00 0.  1.
         11    1    4    4    0    0  0.58738197677E+02  0.39654752051E+02 -0.49745617035E+02  0.86586959992E+02  0.00000000000E+00 0. -1.
         21    1    1    2  502  501 -0.88611682348E+01 -0.26003272416E+02  0.76176596155E+02  0.80978789078E+02  0.00000000000E+00 0.  1.
<scales pt_clust_5="13000.00000" pt_clust_6="13000.00000" pt_clust_7="13000.00000" pt_clust_8="13000.00000" pt_clust_9="27.47163"></scales>
<clustering>
<clus scale="   27.472">  1  9  2 -1</clus>
<clus scale="   91.276">  5  6 -1 -1</clus>
<clus scale="   91.424">  7  8 -1 -1</clus>
<clus scale="  119.487">  1  5  2 -1</clus>
<clus scale="  119.600">  2  5  1 -1</clus>
</clustering>
</event>
<event>
 9    1  0.1612788E-005  0.9418900E+02  0.7546771E-02  0.1298503E+00
         -2   -1    0    0    0  501 -0.00000000000E+00  0.00000000000E+00  0.55545415323E+02  0.55545415323E+02  0.00000000000E+00 0.  1.
          2   -1    0    0  502    0  0.00000000000E+00 -0.00000000000E+00 -0.37069783456E+03  0.37069783456E+03  0.00000000000E+00 0. -1.
         23    2    1    2    0    0  0.19109318302E+02 -0.15363360970E+02 -0.36646724934E+02  0.10199199399E+03  0.91968393936E+02 0.  0.
         23    2    1    2    0    0  0.44905113824E+02  0.32768649186E+02 -0.16031899179E+03  0.18871938426E+03  0.82598869539E+02 0.  0.
        -11    1    3    3    0    0  0.47751613370E+02  0.17524383580E+02 -0.13539454548E+02  0.52636844784E+02  0.00000000000E+00 0.  1.
         11    1    3    3    0    0 -0.28642295068E+02 -0.32887744551E+02 -0.23107270386E+02  0.49355149205E+02  0.00000000000E+00 0. -1.
        -11    1    4    4    0    0  0.63268497411E+02  0.32839236699E+01 -0.87365705177E+02  0.10791873498E+03  0.00000000000E+00 0.  1.
         11    1    4    4    0    0 -0.18363383587E+02  0.29484725517E+02 -0.72953286612E+02  0.80800649274E+02  0.00000000000E+00 0. -1.
         21    1    1    2  502  501 -0.64014432126E+02 -0.17405288216E+02 -0.11818670252E+03  0.13553187164E+03  0.00000000000E+00 0. -1.
<scales pt_clust_5="13000.00000" pt_clust_6="13000.00000" pt_clust_7="13000.00000" pt_clust_8="13000.00000" pt_clust_9="66.33846"></scales>
<clustering>
<clus scale="   66.338">  2  9  1 -1</clus>
<clus scale="   82.599">  7  8 -1 -1</clus>
<clus scale="   85.064">  2  7  1 -1</clus>
<clus scale="   91.968">  5  6 -1 -1</clus>
<clus scale="   66.338">  2  5  1 -1</clus>
</clustering>
</event>
<event>
 9    1  0.1612788E-005  0.1081325E+03  0.7546771E-02  0.1267073E+00
         -2   -1    0    0    0  501 -0.00000000000E+00  0.00000000000E+00  0.10208756193E+03  0.10208756193E+03  0.00000000000E+00 0.  1.
          2   -1    0    0  502    0  0.00000000000E+00 -0.00000000000E+00 -0.14025128586E+03  0.14025128586E+03  0.00000000000E+00 0. -1.
         23    2    1    2    0    0 -0.39782753806E+02 -0.28008767938E+02 -0.32619070007E+01  0.10286451090E+03  0.90572120340E+02 0.  0.
         23    2    1    2    0    0  0.21280688002E+02  0.43165131845E+02 -0.38482028629E+02  0.11529046373E+03  0.97441922238E+02 0.  0.
        -11    1    3    3    0    0 -0.35727062405E+01 -0.53204998623E+02  0.14575605685E+02  0.55280958651E+02  0.00000000000E+00 0.  1.
         11    1    3    3    0    0 -0.36210047565E+02  0.25196230685E+02 -0.17837512686E+02  0.47583552245E+02  0.00000000000E+00 0. -1.
        -13    1    4    4    0    0 -0.33616767773E+02  0.25966981950E+02 -0.39136486637E+02  0.57758426340E+02  0.00000000000E+00 0. -1.
         13    1    4    4    0    0  0.54897455775E+02  0.17198149895E+02  0.65445800796E+00  0.57532037385E+02  0.00000000000E+00 0.  1.
         21    1    1    2  502  501  0.18502065804E+02 -0.15156363907E+02  0.35802116987E+01  0.24183873174E+02  0.00000000000E+00 0. -1.
<scales pt_clust_5="13000.00000" pt_clust_6="13000.00000" pt_clust_7="13000.00000" pt_clust_8="13000.00000" pt_clust_9="23.91740"></scales>
<clustering>
<clus scale="   23.917">  1  9  2 -1</clus>
<clus scale="   90.572">  5  6 -1 -1</clus>
<clus scale="   97.442">  7  8 -1 -1</clus>
<clus scale="  101.985">  1  5  2 -1</clus>
<clus scale="  108.132">  2  5  1 -1</clus>
</clustering>
</event>
<event>
 9    1  0.1612788E-005  0.1427644E+03  0.7546771E-02  0.1210055E+00
          1   -1    0    0  502    0  0.00000000000E+00  0.00000000000E+00  0.12382166882E+03  0.12382166882E+03  0.00000000000E+00 0. -1.
         -1   -1    0    0    0  501 -0.00000000000E+00 -0.00000000000E+00 -0.45028225411E+03  0.45028225411E+03  0.00000000000E+00 0.  1.
         23    2    1    2    0    0 -0.75001255617E+02  0.92280492316E+02 -0.23877499141E+03  0.28211742539E+03  0.91846979157E+02 0.  0.
         23    2    1    2    0    0  0.59472656945E+01 -0.10915262479E+03  0.36825324519E+02  0.14861254181E+03  0.93701214453E+02 0.  0.
        -11    1    3    3    0    0  0.18343778551E+01  0.57097277086E+02 -0.14518448415E+03  0.15601922455E+03  0.00000000000E+00 0.  1.
         11    1    3    3    0    0 -0.76835633472E+02  0.35183215230E+02 -0.93590507259E+02  0.12609820084E+03  0.00000000000E+00 0. -1.
        -11    1    4    4    0    0 -0.17007824754E+02 -0.91193427952E+02  0.60764672717E+02  0.11089568456E+03  0.00000000000E+00 0. -1.
         11    1    4    4    0    0  0.22955090448E+02 -0.17959196841E+02 -0.23939348198E+02  0.37716857250E+02  0.00000000000E+00 0.  1.
         21    1    1    2  502  501  0.69053989923E+02  0.16872132477E+02 -0.12451091840E+03  0.14337395573E+03  0.00000000000E+00 0.  1.
<scales pt_clust_5="13000.00000" pt_clust_6="13000.00000" pt_clust_7="13000.00000" pt_clust_8="13000.00000" pt_clust_9="71.08532"></scales>
<clustering>
<clus scale="   71.085">  2  9  1 -1</clus>
<clus scale="   91.847">  5  6 -1 -1</clus>
<clus scale="   93.701">  7  8 -1 -1</clus>
<clus scale="  141.554">  2  5  1 -1</clus>
<clus scale="  142.764">  1  5  2 -1</clus>
</clustering>
</event>
<event>
 9    1  0.1612788E-005  0.1143813E+03  0.7546771E-02  0.1252668E+00
          2   -1    0    0  502    0  0.00000000000E+00  0.00000000000E+00  0.78349506812E+02  0.78349506812E+02  0.00000000000E+00 0. -1.
         -2   -1    0    0    0  501 -0.00000000000E+00 -0.00000000000E+00 -0.39367185953E+03  0.39367185953E+03  0.00000000000E+00 0.  1.
         23    2    1    2    0    0 -0.37912560408E+02  0.24850356767E+02 -0.20739889117E+03  0.23114249304E+03  0.91420181371E+02 0.  0.
         23    2    1    2    0    0  0.73701497356E+00 -0.81304416045E+02 -0.11165180171E+02  0.12284816966E+03  0.91411488780E+02 0.  0.
        -11    1    3    3    0    0 -0.17660358184E+02 -0.32971118927E+02 -0.51597662255E+02  0.63728342868E+02  0.00000000000E+00 0. -1.
         11    1    3    3    0    0 -0.20252202225E+02  0.57821475694E+02 -0.15580122891E+03  0.16741415017E+03  0.00000000000E+00 0.  1.
        -13    1    4    4    0    0  0.51142945650E+01 -0.30303896883E+02 -0.49935550154E+02  0.58634813416E+02  0.00000000000E+00 0.  1.
         13    1    4    4    0    0 -0.43772795914E+01 -0.51000519162E+02  0.38770369983E+02  0.64213356243E+02  0.00000000000E+00 0. -1.
         21    1    1    2  502  501  0.37175545435E+02  0.56454059279E+02 -0.96758281375E+02  0.11803070364E+03  0.00000000000E+00 0.  1.
<scales pt_clust_5="13000.00000" pt_clust_6="13000.00000" pt_clust_7="13000.00000" pt_clust_8="13000.00000" pt_clust_9="67.59498"></scales>
<clustering>
<clus scale="   67.595">  2  9  1 -1</clus>
<clus scale="   91.411">  7  8 -1 -1</clus>
<clus scale="   91.420">  5  6 -1 -1</clus>
<clus scale="  114.374">  1  7  2 -1</clus>
<clus scale="  114.374">  1  5  2 -1</clus>
</clustering>
</event>
<event>
 9    1  0.1612788E-005  0.9809283E+02  0.7546771E-02  0.1286309E+00
         -1   -1    0    0    0  501 -0.00000000000E+00  0.00000000000E+00  0.25441085017E+02  0.25441085017E+02  0.00000000000E+00 0.  1.
          1   -1    0    0  502    0  0.00000000000E+00 -0.00000000000E+00 -0.49494818163E+03  0.49494818163E+03  0.00000000000E+00 0. -1.
         23    2    1    2    0    0 -0.27841833656E+02  0.32648386651E+02 -0.20309701314E+03  0.22613712735E+03  0.89713537239E+02 0.  0.
         23    2    1    2    0    0  0.15331056314E+02 -0.12460510075E+02 -0.24213730529E+03  0.26029278609E+03  0.93442786104E+02 0.  0.
        -11    1    4    4    0    0  0.36495200588E+02  0.26191731826E+02 -0.16933741059E+03  0.17519436380E+03  0.00000000000E+00 0. -1.
         11    1    4    4    0    0 -0.21164144273E+02 -0.38652241901E+02 -0.72799894704E+02  0.85098422287E+02  0.00000000000E+00 0.  1.
        -13    1    3    3    0    0  0.29459496502E+02 -0.50524631998E+01 -0.76889393811E+02  0.82494655580E+02  0.00000000000E+00 0. -1.
         13    1    3    3    0    0 -0.57301330159E+02  0.37700849851E+02 -0.12620761933E+03  0.14364247177E+03  0.00000000000E+00 0.  1.
         21    1    1    2  502  501  0.12510777342E+02 -0.20187876575E+02 -0.24272778171E+02  0.33959353210E+02  0.00000000000E+00 0. -1.
<scales pt_clust_5="13000.00000" pt_clust_6="13000.00000" pt_clust_7="13000.00000" pt_clust_8="13000.00000" pt_clust_9="23.75016"></scales>
<clustering>
<clus scale="   23.750">  1  9  2 -1</clus>
<clus scale="   89.714">  7  8 -1 -1</clus>
<clus scale="   93.443">  5  6 -1 -1</clus>
<clus scale="   94.547">  1  7  2 -1</clus>
<clus scale="   98.093">  2  5  1 -1</clus>
</clustering>
</event>
<event>
 9    1  0.1612788E-005  0.4257603E+03  0.7546771E-02  0.1035263E+00
          1   -1    0    0  502    0  0.00000000000E+00  0.00000000000E+00  0.89450226005E+03  0.89450226005E+03  0.00000000000E+00 0. -1.
         -1   -1    0    0    0  501 -0.00000000000E+00 -0.00000000000E+00 -0.29657688277E+03  0.29657688277E+03  0.00000000000E+00 0.  1.
         23    2    1    2    0    0  0.18436474458E+03 -0.37391448783E+03 -0.55098693810E+01  0.42715840412E+03  0.92906083213E+02 0.  0.
         23    2    1    2    0    0 -0.20931613881E+03  0.35870173917E+03  0.59895919261E+03  0.73435665819E+03  0.89707320598E+02 0.  0.
        -11    1    4    4    0    0 -0.15966602411E+03  0.22348445139E+03  0.44958074765E+03  0.52684095126E+03  0.00000000000E+00 0. -1.
         11    1    4    4    0    0 -0.49650114700E+02  0.13521728778E+03  0.14937844495E+03  0.20751570692E+03  0.00000000000E+00 0.  1.
        -13    1    3    3    0    0  0.15604552048E+03 -0.32043947349E+03 -0.38072075806E+02  0.35844266430E+03  0.00000000000E+00 0.  1.
         13    1    3    3    0    0  0.28319224097E+02 -0.53475014339E+02  0.32562206425E+02  0.68715739822E+02  0.00000000000E+00 0. -1.
         21    1    1    2  502  501  0.24951394235E+02  0.15212748661E+02  0.44760540536E+01  0.29564080503E+02  0.00000000000E+00 0.  1.
<scales pt_clust_5="13000.00000" pt_clust_6="13000.00000" pt_clust_7="13000.00000" pt_clust_8="13000.00000" pt_clust_9="29.22327"></scales>
<clustering>
<clus scale="   29.223">  2  9  1 -1</clus>
<clus scale="   89.707">  5  6 -1 -1</clus>
<clus scale="   92.906">  7  8 -1 -1</clus>
<clus scale="  425.074">  1  5  2 -1</clus>
<clus scale="  425.074">  1  5  2 -1</clus>
</clustering>
</event>
<event>
 9    1  0.1612788E-005  0.1115683E+03  0.7546771E-02  0.1257699E+00
          1   -1    0    0  502    0  0.00000000000E+00  0.00000000000E+00  0.75086934204E+03  0.75086934204E+03  0.00000000000E+00 0. -1.
         -1   -1    0    0    0  501 -0.00000000000E+00 -0.00000000000E+00 -0.31850639092E+02  0.31850639092E+02  0.00000000000E+00 0.  1.
         23    2    1    2    0    0  0.23557294361E+02 -0.89403235184E+02  0.30500357204E+03  0.33168116256E+03  0.91854940316E+02 0.  0.
         23    2    1    2    0    0 -0.84802061940E+01  0.47577376651E+02  0.38304772878E+03  0.39685670876E+03  0.91837705180E+02 0.  0.
        -11    1    3    3    0    0 -0.48576629420E+01 -0.99344981234E+02  0.24832749792E+03  0.26750620256E+03  0.00000000000E+00 0.  1.
         11    1    3    3    0    0  0.28414957303E+02  0.99417460500E+01  0.56676074123E+02  0.64174960000E+02  0.00000000000E+00 0. -1.
        -11    1    4    4    0    0  0.86495195034E+01 -0.26131351096E+02  0.84628388214E+02  0.88992279382E+02  0.00000000000E+00 0.  1.
         11    1    4    4    0    0 -0.17129725697E+02  0.73708727748E+02  0.29841934057E+03  0.30786442938E+03  0.00000000000E+00 0. -1.
         21    1    1    2  502  501 -0.15077088167E+02  0.41825858533E+02  0.30967402118E+02  0.54182109810E+02  0.00000000000E+00 0. -1.
<scales pt_clust_5="13000.00000" pt_clust_6="13000.00000" pt_clust_7="13000.00000" pt_clust_8="13000.00000" pt_clust_9="44.46033"></scales>
<clustering>
<clus scale="   44.460">  2  9  1 -1</clus>
<clus scale="   91.838">  7  8 -1 -1</clus>
<clus scale="   91.855">  5  6 -1 -1</clus>
<clus scale="  111.554">  1  7  2 -1</clus>
<clus scale="  111.554">  1  5  2 -1</clus>
</clustering>
</event>
<event>
 9    1  0.1612788E-005  0.1036639E+03  0.7546771E-02  0.1276582E+00
         -3   -1    0    0    0  501 -0.00000000000E+00  0.00000000000E+00  0.27747228133E+03  0.27747228133E+03  0.00000000000E+00 0.  1.
          3   -1    0    0  502    0  0.00000000000E+00 -0.00000000000E+00 -0.85911186638E+02  0.85911186638E+02  0.00000000000E+00 0. -1.
         23    2    1    2    0    0 -0.13716122671E+02  0.11668777302E+02  0.53944285833E+02  0.10928401018E+03  0.93320504291E+02 0.  0.
         23    2    1    2    0    0  0.22489590217E+02  0.31840053920E+02 -0.14434283617E+01  0.10812774237E+03  0.10084619221E+03 0.  0.
        -13    1    4    4    0    0 -0.23219954719E+02  0.44851887165E+02 -0.23533076352E+02  0.55719509707E+02  0.00000000000E+00 0.  1.
         13    1    4    4    0    0  0.45709544936E+02 -0.13011833246E+02  0.22089647990E+02  0.52408232664E+02  0.00000000000E+00 0. -1.
        -13    1    3    3    0    0 -0.29064084189E+02 -0.28399106513E+02  0.52452453024E+02  0.66351262752E+02  0.00000000000E+00 0.  1.
         13    1    3    3    0    0  0.15347961518E+02  0.40067883816E+02  0.14918328085E+01  0.42932747424E+02  0.00000000000E+00 0. -1.
         21    1    1    2  502  501 -0.87734675456E+01 -0.43508831222E+02  0.13906023722E+03  0.14597171542E+03  0.00000000000E+00 0.  1.
<scales pt_clust_5="13000.00000" pt_clust_6="13000.00000" pt_clust_7="13000.00000" pt_clust_8="13000.00000" pt_clust_9="44.38459"></scales>
<clustering>
<clus scale="   44.385">  1  9  2 -1</clus>
<clus scale="   93.321">  7  8 -1 -1</clus>
<clus scale="   96.359">  1  7  2 -1</clus>
<clus scale="  100.846">  5  6 -1 -1</clus>
<clus scale="  103.664">  2  5  1 -1</clus>
</clustering>
</event>
<event>
 9    1  0.1612788E-005  0.1042507E+03  0.7546771E-02  0.1272137E+00
          1   -1    0    0  502    0  0.00000000000E+00  0.00000000000E+00  0.52136875623E+03  0.52136875623E+03  0.00000000000E+00 0. -1.
         -1   -1    0    0    0  501 -0.00000000000E+00 -0.00000000000E+00 -0.35111034729E+02  0.35111034729E+02  0.00000000000E+00 0.  1.
         23    2    1    2    0    0  0.30560520455E+02  0.35437919523E+02  0.19167067748E+03  0.21704630524E+03  0.90452520478E+02 0.  0.
         23    2    1    2    0    0 -0.57935912659E+02 -0.14970579038E+02  0.28401814975E+03  0.30365603960E+03  0.89218791662E+02 0.  0.
        -13    1    3    3    0    0  0.27946050307E+02 -0.22542800262E+02  0.35724545896E+02  0.50649805043E+02  0.00000000000E+00 0.  1.
         13    1    3    3    0    0  0.26144701481E+01  0.57980719785E+02  0.15594613159E+03  0.16639650020E+03  0.00000000000E+00 0. -1.
        -13    1    4    4    0    0  0.22649208479E+02 -0.87110240135E+01  0.42108963299E+02  0.48600754873E+02  0.00000000000E+00 0.  1.
         13    1    4    4    0    0 -0.80585121137E+02 -0.62595550248E+01  0.24190918645E+03  0.25505528472E+03  0.00000000000E+00 0. -1.
         21    1    1    2  502  501  0.27375392203E+02 -0.20467340485E+02  0.10568894270E+02  0.35777446120E+02  0.00000000000E+00 0.  1.
<scales pt_clust_5="13000.00000" pt_clust_6="13000.00000" pt_clust_7="13000.00000" pt_clust_8="13000.00000" pt_clust_9="34.18076"></scales>
<clustering>
<clus scale="   34.181">  2  9  1 -1</clus>
<clus scale="   89.219">  7  8 -1 -1</clus>
<clus scale="   90.453">  5  6 -1 -1</clus>
<clus scale="  103.182">  1  7  2 -1</clus>
<clus scale="  103.182">  1  5  2 -1</clus>
</clustering>
</event>
<event>
 9    1  0.1612788E-005  0.9849361E+02  0.7546771E-02  0.1285208E+00
          2   -1    0    0  502    0  0.00000000000E+00  0.00000000000E+00  0.84711396526E+02  0.84711396526E+02  0.00000000000E+00 0. -1.
         -2   -1    0    0    0  501 -0.00000000000E+00 -0.00000000000E+00 -0.38449753071E+03  0.38449753071E+03  0.00000000000E+00 0.  1.
         23    2    1    2    0    0  0.67907202090E+02  0.12523414872E+02 -0.98722877105E+02  0.15336251885E+03  0.94898006866E+02 0.  0.
         23    2    1    2    0    0  0.39101985762E+01  0.33767122618E+02 -0.39125305936E+00  0.97741373839E+02  0.91639046580E+02 0.  0.
        -11    1    4    4    0    0  0.38129459467E+02  0.31824857162E+02  0.24502228225E+02  0.55380830624E+02  0.00000000000E+00 0. -1.
         11    1    4    4    0    0 -0.34219260891E+02  0.19422654559E+01 -0.24893481284E+02  0.42360543215E+02  0.00000000000E+00 0.  1.
        -11    1    3    3    0    0  0.50205284377E+02 -0.28335790485E+02 -0.91652199525E+02  0.10827563567E+03  0.00000000000E+00 0. -1.
         11    1    3    3    0    0  0.17701917712E+02  0.40859205357E+02 -0.70706775799E+01  0.45086883176E+02  0.00000000000E+00 0.  1.
         21    1    1    2  502  501 -0.71817400666E+02 -0.46290537490E+02 -0.20067200402E+03  0.21810503455E+03  0.00000000000E+00 0.  1.
<scales pt_clust_5="13000.00000" pt_clust_6="13000.00000" pt_clust_7="13000.00000" pt_clust_8="13000.00000" pt_clust_9="85.44327"></scales>
<clustering>
<clus scale="   85.443">  2  9  1 -1</clus>
<clus scale="   91.639">  5  6 -1 -1</clus>
<clus scale="   94.898">  7  8 -1 -1</clus>
<clus scale="   95.358">  1  5  2 -1</clus>
<clus scale="   95.358">  1  5  2 -1</clus>
</clustering>
</event>
<event>
 9    1  0.1612788E-005  0.1061760E+03  0.7546771E-02  0.1269592E+00
          1   -1    0    0  502    0  0.00000000000E+00  0.00000000000E+00  0.79407562662E+02  0.79407562662E+02  0.00000000000E+00 0. -1.
         -1   -1    0    0    0  501 -0.00000000000E+00 -0.00000000000E+00 -0.22868668308E+03  0.22868668308E+03  0.00000000000E+00 0.  1.
         23    2    1    2    0    0  0.31639914829E+02  0.48971494375E+02 -0.10937102147E+03  0.15478265207E+03  0.92716544231E+02 0.  0.
         23    2    1    2    0    0  0.31728527125E+01 -0.52219823956E+02 -0.36585189849E+01  0.10294779242E+03  0.88588296031E+02 0.  0.
        -13    1    3    3    0    0 -0.15692202846E+02 -0.16871187569E+02 -0.47470170356E+02  0.52766459743E+02  0.00000000000E+00 0.  1.
         13    1    3    3    0    0  0.47332117675E+02  0.65842681944E+02 -0.61900851111E+02  0.10201619233E+03  0.00000000000E+00 0. -1.
        -13    1    4    4    0    0  0.37744498916E+02 -0.16033293477E+01  0.12080722160E+02  0.39663102644E+02  0.00000000000E+00 0.  1.
         13    1    4    4    0    0 -0.34571646204E+02 -0.50616494608E+02 -0.15739241145E+02  0.63284689772E+02  0.00000000000E+00 0. -1.
         21    1    1    2  502  501 -0.34812767542E+02  0.32483295808E+01 -0.36249579968E+02  0.50363801255E+02  0.00000000000E+00 0. -1.
<scales pt_clust_5="13000.00000" pt_clust_6="13000.00000" pt_clust_7="13000.00000" pt_clust_8="13000.00000" pt_clust_9="34.96399"></scales>
<clustering>
<clus scale="   34.964">  2  9  1 -1</clus>
<clus scale="   88.588">  7  8 -1 -1</clus>
<clus scale="   92.717">  5  6 -1 -1</clus>
<clus scale="  102.591">  1  7  2 -1</clus>
<clus scale="  102.591">  1  5  2 -1</clus>
</clustering>
</event>
<event>
 9    1  0.1612788E-005  0.9120595E+02  0.7546771E-02  0.1319046E+00
         -2   -1    0    0    0  501 -0.00000000000E+00  0.00000000000E+00  0.10156190527E+03  0.10156190527E+03  0.00000000000E+00 0.  1.
          2   -1    0    0  502    0  0.00000000000E+00 -0.00000000000E+00 -0.15587991717E+03  0.15587991717E+03  0.00000000000E+00 0. -1.
         23    2    1    2    0    0  0.10921082199E+02  0.19159472911E+02 -0.99426782734E+01  0.68069671184E+02  0.63625999758E+02 0.  0.
         23    2    1    2    0    0  0.17784433149E+02  0.33603282026E+02 -0.73415948532E+02  0.12265429582E+03  0.90601921381E+02 0.  0.
        -11    1    3    3    0    0 -0.23130790630E+02 -0.51048031287E+01 -0.11279414869E+02  0.26235809306E+02  0.00000000000E+00 0.  1.
         11    1    3    3    0    0  0.34051872829E+02  0.24264276040E+02  0.13367365960E+01  0.41833861878E+02  0.00000000000E+00 0. -1.
        -13    1    4    4    0    0 -0.12989184813E+02 -0.16744462254E+02 -0.57877173376E+02  0.61634918157E+02  0.00000000000E+00 0. -1.
         13    1    4    4    0    0  0.30773617961E+02  0.50347744280E+02 -0.15538775156E+02  0.61019377659E+02  0.00000000000E+00 0.  1.
         21    1    1    2  502  501 -0.28705515347E+02 -0.52762754937E+02  0.29040614903E+02  0.66717855435E+02  0.00000000000E+00 0. -1.
<scales pt_clust_5="13000.00000" pt_clust_6="13000.00000" pt_clust_7="13000.00000" pt_clust_8="13000.00000" pt_clust_9="60.06592"></scales>
<clustering>
<clus scale="   60.066">  1  9  2 -1</clus>
<clus scale="   63.626">  5  6 -1 -1</clus>
<clus scale="   64.483">  1  5  2 -1</clus>
<clus scale="   90.602">  7  8 -1 -1</clus>
<clus scale="   91.206">  2  5  1 -1</clus>
</clustering>
</event>
<event>
 9    1  0.1612788E-005  0.1092066E+03  0.7546771E-02  0.1265124E+00
         -2   -1    0    0    0  501 -0.00000000000E+00  0.00000000000E+00  0.10597980959E+03  0.10597980959E+03  0.00000000000E+00 0.  1.
          2   -1    0    0  502    0  0.00000000000E+00 -0.00000000000E+00 -0.28446315531E+03  0.28446315531E+03  0.00000000000E+00 0. -1.
         23    2    1    2    0    0  0.15633725299E+02 -0.48633326159E+02 -0.19483872245E+01  0.10452349272E+03  0.91168802434E+02 0.  0.
         23    2    1    2    0    0  0.14056272430E+02  0.46450435260E+02 -0.21257175718E+03  0.23917643166E+03  0.98302552261E+02 0.  0.
        -13    1    3    3    0    0 -0.24093954301E+02 -0.34673255322E+02  0.29890977354E+02  0.51732231690E+02  0.00000000000E+00 0.  1.
         13    1    3    3    0    0  0.39727679600E+02 -0.13960070837E+02 -0.31839364578E+02  0.52791261028E+02  0.00000000000E+00 0. -1.
        -13    1    4    4    0    0 -0.25274307067E+02 -0.20057787034E+02 -0.58133839404E+02  0.66487959078E+02  0.00000000000E+00 0.  1.
         13    1    4    4    0    0  0.39330579497E+02  0.66508222294E+02 -0.15443791777E+03  0.17268847258E+03  0.00000000000E+00 0. -1.
         21    1    1    2  502  501 -0.29689997729E+02  0.21828908990E+01  0.36036798688E+02  0.46743040524E+02  0.00000000000E+00 0.  1.
<scales pt_clust_5="13000.00000" pt_clust_6="13000.00000" pt_clust_7="13000.00000" pt_clust_8="13000.00000" pt_clust_9="29.77014"></scales>
<clustering>
<clus scale="   29.770">  1  9  2 -1</clus>
<clus scale="   91.169">  5  6 -1 -1</clus>
<clus scale="   98.303">  7  8 -1 -1</clus>
<clus scale="  102.832">  1  5  2 -1</clus>
<clus scale="  109.207">  2  5  1 -1</clus>
</clustering>
</event>
<event>
 9    1  0.1612788E-005  0.9629071E+02  0.7546771E-02  0.1288936E+00
         -2   -1    0    0    0  501 -0.00000000000E+00  0.00000000000E+00  0.63741838779E+02  0.63741838779E+02  0.00000000000E+00 0.  1.
          2   -1    0    0  502    0  0.00000000000E+00 -0.00000000000E+00 -0.41091049362E+03  0.41091049362E+03  0.00000000000E+00 0. -1.
         23    2    1    2    0    0  0.47210654405E+02 -0.20221668358E+02 -0.75837137402E+02  0.12974831411E+03  0.91899901218E+02 0.  0.
         23    2    1    2    0    0  0.29259967475E+02  0.29992733132E+02 -0.24306016186E+03  0.26279129538E+03  0.90693510826E+02 0.  0.
        -13    1    4    4    0    0 -0.85639052305E+01  0.38579726796E+02 -0.40631462531E+02  0.56680257055E+02  0.00000000000E+00 0.  1.
         13    1    4    4    0    0  0.37823872706E+02 -0.85869936633E+01 -0.20242869933E+03  0.20611103833E+03  0.00000000000E+00 0. -1.
        -13    1    3    3    0    0  0.38682871819E+02 -0.54607547052E+02 -0.63447552392E+02  0.92216813390E+02  0.00000000000E+00 0.  1.
         13    1    3    3    0    0  0.85277825859E+01  0.34385878694E+02 -0.12389585010E+02  0.37531500718E+02  0.00000000000E+00 0. -1.
         21    1    1    2  502  501 -0.76470621880E+02 -0.97710647743E+01 -0.28271355575E+02  0.82112722910E+02  0.00000000000E+00 0.  1.
<scales pt_clust_5="13000.00000" pt_clust_6="13000.00000" pt_clust_7="13000.00000" pt_clust_8="13000.00000" pt_clust_9="77.09235"></scales>
<clustering>
<clus scale="   77.092">  1  9  2 -1</clus>
<clus scale="   90.694">  5  6 -1 -1</clus>
<clus scale="   91.900">  7  8 -1 -1</clus>
<clus scale="   95.140">  2  5  1 -1</clus>
<clus scale="   95.140">  2  5  1 -1</clus>
</clustering>
</event>
<event>
 9    1  0.1612788E-005  0.9383152E+02  0.7546771E-02  0.1302187E+00
         -2   -1    0    0    0  501 -0.00000000000E+00  0.00000000000E+00  0.89447797849E+03  0.89447797849E+03  0.00000000000E+00 0.  1.
          2   -1    0    0  502    0  0.00000000000E+00 -0.00000000000E+00 -0.16014661746E+02  0.16014661746E+02  0.00000000000E+00 0. -1.
         23    2    1    2    0    0 -0.23901402099E+02  0.25816057647E+02  0.32461371443E+03  0.33942721109E+03  0.92730912714E+02 0.  0.
         23    2    1    2    0    0  0.75794631923E+01  0.13622397890E+02  0.21649535389E+03  0.23102177549E+03  0.79106286153E+02 0.  0.
        -11    1    4    4    0    0  0.36882458609E+02  0.20085691700E+02  0.17402063463E+03  0.17901656918E+03  0.00000000000E+00 0.  1.
         11    1    4    4    0    0 -0.29302995416E+02 -0.64632938104E+01  0.42474719257E+02  0.52005206308E+02  0.00000000000E+00 0. -1.
        -13    1    3    3    0    0 -0.51684690354E+02 -0.10942330716E+02  0.18588619007E+03  0.19324781364E+03  0.00000000000E+00 0. -1.
         13    1    3    3    0    0  0.27783288254E+02  0.36758388363E+02  0.13872752436E+03  0.14617939744E+03  0.00000000000E+00 0.  1.
         21    1    1    2  502  501  0.16321938907E+02 -0.39438455537E+02  0.33735424842E+03  0.34004365366E+03  0.00000000000E+00 0.  1.
<scales pt_clust_5="13000.00000" pt_clust_6="13000.00000" pt_clust_7="13000.00000" pt_clust_8="13000.00000" pt_clust_9="42.68252"></scales>
<clustering>
<clus scale="   42.683">  1  9  2 -1</clus>
<clus scale="   79.106">  5  6 -1 -1</clus>
<clus scale="   80.394">  2  5  1 -1</clus>
<clus scale="   92.731">  7  8 -1 -1</clus>
<clus scale="   80.394">  2  5  1 -1</clus>
</clustering>
</event>
<event>
 9    1  0.1612788E-005  0.1799098E+03  0.7546771E-02  0.1168314E+00
          1   -1    0    0  502    0  0.00000000000E+00  0.00000000000E+00  0.12568461966E+03  0.12568461966E+03  0.00000000000E+00 0. -1.
         -1   -1    0    0    0  501 -0.00000000000E+00 -0.00000000000E+00 -0.75313131743E+03  0.75313131743E+03  0.00000000000E+00 0.  1.
         23    2    1    2    0    0  0.12535728739E+03 -0.14869619991E+03 -0.25963579041E+03  0.33703016194E+03  0.91397904900E+02 0.  0.
         23    2    1    2    0    0 -0.84232248252E+02  0.11680253709E+03  0.15948848141E+01  0.16873200709E+03  0.87920658800E+02 0.  0.
        -11    1    3    3    0    0  0.25766640538E+02 -0.95078545076E+02 -0.91883443530E+02  0.13470863630E+03  0.00000000000E+00 0. -1.
         11    1    3    3    0    0  0.99590646857E+02 -0.53617654832E+02 -0.16775234688E+03  0.20232152564E+03  0.00000000000E+00 0.  1.
        -11    1    4    4    0    0 -0.55082009083E+02  0.77251696400E+01  0.43709825895E+01  0.55792575307E+02  0.00000000000E+00 0.  1.
         11    1    4    4    0    0 -0.29150239169E+02  0.10907736745E+03 -0.27760977754E+01  0.11293943179E+03  0.00000000000E+00 0. -1.
         21    1    1    2  502  501 -0.41125039142E+02  0.31893662819E+02 -0.36940579217E+03  0.37305376806E+03  0.00000000000E+00 0.  1.
<scales pt_clust_5="13000.00000" pt_clust_6="13000.00000" pt_clust_7="13000.00000" pt_clust_8="13000.00000" pt_clust_9="52.04301"></scales>
<clustering>
<clus scale="   52.043">  2  9  1 -1</clus>
<clus scale="   87.921">  7  8 -1 -1</clus>
<clus scale="   91.398">  5  6 -1 -1</clus>
<clus scale="  178.168">  1  7  2 -1</clus>
<clus scale="  178.168">  1  5  2 -1</clus>
</clustering>
</event>
<event>
 9    1  0.1612788E-005  0.1051998E+03  0.7546771E-02  0.1270214E+00
         -1   -1    0    0    0  501 -0.00000000000E+00  0.00000000000E+00  0.10276185615E+03  0.10276185615E+03  0.00000000000E+00 0.  1.
          1   -1    0    0  502    0  0.00000000000E+00 -0.00000000000E+00 -0.44470850105E+03  0.44470850105E+03  0.00000000000E+00 0. -1.
         23    2    1    2    0    0  0.35405388724E+02  0.49719214697E+01  0.59268314001E+02  0.11332812624E+03  0.89734439308E+02 0.  0.
         23    2    1    2    0    0 -0.51025102703E+02 -0.18962841086E+02 -0.39926827275E+03  0.41308253288E+03  0.90878352172E+02 0.  0.
        -11    1    4    4    0    0 -0.56097074488E+02  0.17976781666E+02 -0.32132419567E+03  0.32667917774E+03  0.00000000000E+00 0.  1.
         11    1    4    4    0    0  0.50719717847E+01 -0.36939622753E+02 -0.77944077082E+02  0.86403355138E+02  0.00000000000E+00 0. -1.
        -13    1    3    3    0    0  0.22510638968E+02 -0.25930229637E+02 -0.10527598792E+02  0.35915679195E+02  0.00000000000E+00 0. -1.
         13    1    3    3    0    0  0.12894749756E+02  0.30902151106E+02  0.69795912793E+02  0.77412447041E+02  0.00000000000E+00 0.  1.
         21    1    1    2  502  501  0.15619713979E+02  0.13990919617E+02 -0.19466861507E+01  0.21059698086E+02  0.00000000000E+00 0.  1.
<scales pt_clust_5="13000.00000" pt_clust_6="13000.00000" pt_clust_7="13000.00000" pt_clust_8="13000.00000" pt_clust_9="20.96953"></scales>
<clustering>
<clus scale="   20.970">  1  9  2 -1</clus>
<clus scale="   89.734">  7  8 -1 -1</clus>
<clus scale="   90.878">  5  6 -1 -1</clus>
<clus scale="  104.213">  1  7  2 -1</clus>
<clus scale="  105.200">  2  5  1 -1</clus>
</clustering>
</event>
<event>
 9    1  0.1612788E-005  0.1261036E+03  0.7546771E-02  0.1233535E+00
          2   -1    0    0  502    0  0.00000000000E+00  0.00000000000E+00  0.57875857324E+02  0.57875857324E+02  0.00000000000E+00 0. -1.
         -2   -1    0    0    0  501 -0.00000000000E+00 -0.00000000000E+00 -0.44034218808E+03  0.44034218808E+03  0.00000000000E+00 0.  1.
         23    2    1    2    0    0  0.87654370249E+02  0.60108776445E+01 -0.18952664198E+03  0.22806822155E+03  0.91516918576E+02 0.  0.
         23    2    1    2    0    0 -0.82177809642E+02 -0.29532923185E+02 -0.68608323611E+02  0.14349451325E+03  0.90874569124E+02 0.  0.
        -11    1    4    4    0    0  0.13542689543E+02 -0.26200758302E+02 -0.23052221278E+02  0.37433795980E+02  0.00000000000E+00 0. -1.
         11    1    4    4    0    0 -0.95720499185E+02 -0.33321648829E+01 -0.45556102333E+02  0.10606071727E+03  0.00000000000E+00 0.  1.
        -13    1    3    3    0    0  0.85110651944E+01  0.20071711939E+02 -0.11946488073E+03  0.12143792479E+03  0.00000000000E+00 0.  1.
         13    1    3    3    0    0  0.79143305054E+02 -0.14060834294E+02 -0.70061761253E+02  0.10663029675E+03  0.00000000000E+00 0. -1.
         21    1    1    2  502  501 -0.54765606065E+01  0.23522045540E+02 -0.12433136517E+03  0.12665531062E+03  0.00000000000E+00 0. -1.
<scales pt_clust_5="13000.00000" pt_clust_6="13000.00000" pt_clust_7="13000.00000" pt_clust_8="13000.00000" pt_clust_9="24.15118"></scales>
<clustering>
<clus scale="   24.151">  2  9  1 -1</clus>
<clus scale="   90.875">  5  6 -1 -1</clus>
<clus scale="   91.517">  7  8 -1 -1</clus>
<clus scale="  125.638">  1  5  2 -1</clus>
<clus scale="  125.638">  1  5  2 -1</clus>
</clustering>
</event>
<event>
 9    1  0.1612788E-005  0.9383912E+02  0.7546771E-02  0.1294173E+00
         -2   -1    0    0    0  501 -0.00000000000E+00  0.00000000000E+00  0.42767831780E+03  0.42767831780E+03  0.00000000000E+00 0.  1.
          2   -1    0    0  502    0  0.00000000000E+00 -0.00000000000E+00 -0.48845768311E+02  0.48845768311E+02  0.00000000000E+00 0. -1.
         23    2    1    2    0    0 -0.28904654622E+02 -0.30522735203E+02  0.11258024166E+03  0.15073121621E+03  0.90986110506E+02 0.  0.
         23    2    1    2    0    0  0.16350829180E+02 -0.22719634192E+01  0.45912453107E+02  0.10267240385E+03  0.90339126238E+02 0.  0.
        -11    1    4    4    0    0 -0.21689540422E+02 -0.34658500276E+02  0.13232942543E+02  0.42973928997E+02  0.00000000000E+00 0. -1.
         11    1    4    4    0    0  0.38040369602E+02  0.32386536857E+02  0.32679510565E+02  0.59698474853E+02  0.00000000000E+00 0.  1.
        -11    1    3    3    0    0 -0.60219982830E+02 -0.21922643313E+02  0.92561958576E+02  0.11258225792E+03  0.00000000000E+00 0. -1.
         11    1    3    3    0    0  0.31315328208E+02 -0.86000918904E+01  0.20018283081E+02  0.38148958293E+02  0.00000000000E+00 0.  1.
         21    1    1    2  502  501  0.12553825442E+02  0.32794698622E+02  0.22033985472E+03  0.22312046605E+03  0.00000000000E+00 0.  1.
<scales pt_clust_5="13000.00000" pt_clust_6="13000.00000" pt_clust_7="13000.00000" pt_clust_8="13000.00000" pt_clust_9="35.11539"></scales>
<clustering>
<clus scale="   35.115">  1  9  2 -1</clus>
<clus scale="   90.339">  5  6 -1 -1</clus>
<clus scale="   90.986">  7  8 -1 -1</clus>
<clus scale="   93.212">  2  5  1 -1</clus>
<clus scale="   93.212">  2  5  1 -1</clus>
</clustering>
</event>
<event>
 9    1  0.1612788E-005  0.1241534E+03  0.7546771E-02  0.1236943E+00
         -1   -1    0    0    0  501 -0.00000000000E+00  0.00000000000E+00  0.29094358049E+03  0.29094358049E+03  0.00000000000E+00 0.  1.
          1   -1    0    0  502    0  0.00000000000E+00 -0.00000000000E+00 -0.13644903474E+03  0.13644903474E+03  0.00000000000E+00 0. -1.
         23    2    1    2    0    0 -0.60665252098E+02 -0.34332389035E+02  0.16599206995E+03  0.20260926305E+03  0.92941704513E+02 0.  0.
         23    2    1    2    0    0  0.83362991385E+02  0.41880699662E+01 -0.77930118523E+02  0.14838206339E+03  0.94748113967E+02 0.  0.
        -13    1    3    3    0    0  0.17143514172E+02  0.15532144761E+02  0.42213915321E+02  0.48136911469E+02  0.00000000000E+00 0. -1.
         13    1    3    3    0    0 -0.77808766269E+02 -0.49864533797E+02  0.12377815463E+03  0.15447235158E+03  0.00000000000E+00 0.  1.
        -13    1    4    4    0    0  0.27865031154E+02 -0.37100413234E+02 -0.31362250699E+01  0.46505231222E+02  0.00000000000E+00 0.  1.
         13    1    4    4    0    0  0.55497960232E+02  0.41288483200E+02 -0.74793893453E+02  0.10187683217E+03  0.00000000000E+00 0. -1.
         21    1    1    2  502  501 -0.22697739288E+02  0.30144319069E+02  0.66432594324E+02  0.76401288795E+02  0.00000000000E+00 0. -1.
<scales pt_clust_5="13000.00000" pt_clust_6="13000.00000" pt_clust_7="13000.00000" pt_clust_8="13000.00000" pt_clust_9="37.73417"></scales>
<clustering>
<clus scale="   37.734">  1  9  2 -1</clus>
<clus scale="   92.942">  5  6 -1 -1</clus>
<clus scale="   94.748">  7  8 -1 -1</clus>
<clus scale="  122.780">  1  5  2 -1</clus>
<clus scale="  124.153">  2  5  1 -1</clus>
</clustering>
</event>
<event>
 9    1  0.1612788E-005  0.1728867E+03  0.7546771E-02  0.1179772E+00
         -1   -1    0    0    0  501 -0.00000000000E+00  0.00000000000E+00  0.15643265530E+03  0.15643265530E+03  0.00000000000E+00 0.  1.
          1   -1    0    0  502    0  0.00000000000E+00 -0.00000000000E+00 -0.97364220880E+03  0.97364220880E+03  0.00000000000E+00 0. -1.
         23    2    1    2    0    0  0.12019136076E+03  0.42203305542E+02 -0.30310710526E+03  0.34979768402E+03  0.11940443997E+03 0.  0.
         23    2    1    2    0    0 -0.12537791848E+03 -0.66359236089E+01 -0.63523833501E+03  0.65392116676E+03  0.91222212967E+02 0.  0.
        -11    1    4    4    0    0 -0.11680208930E+03 -0.36447169788E+02 -0.46202624368E+03  0.47795331791E+03  0.00000000000E+00 0.  1.
         11    1    4    4    0    0 -0.85758291842E+01  0.29811246179E+02 -0.17321209133E+03  0.17596784885E+03  0.00000000000E+00 0. -1.
        -13    1    3    3    0    0  0.38233109915E+02 -0.17939068335E+02 -0.15893280353E+02  0.45124020509E+02  0.00000000000E+00 0.  1.
         13    1    3    3    0    0  0.81958250849E+02  0.60142373877E+02 -0.28721382491E+03  0.30467366351E+03  0.00000000000E+00 0. -1.
         21    1    1    2  502  501  0.51865577183E+01 -0.35567381933E+02  0.12113588677E+03  0.12635601332E+03  0.00000000000E+00 0.  1.
<scales pt_clust_5="13000.00000" pt_clust_6="13000.00000" pt_clust_7="13000.00000" pt_clust_8="13000.00000" pt_clust_9="35.94355"></scales>
<clustering>
<clus scale="   35.944">  1  9  2 -1</clus>
<clus scale="   91.222">  5  6 -1 -1</clus>
<clus scale="  119.404">  7  8 -1 -1</clus>
<clus scale="  154.770">  2  5  1 -1</clus>
<clus scale="  154.770">  2  5  1 -1</clus>
</clustering>
</event>
<event>
 9    1  0.1612788E-005  0.1185263E+03  0.7546771E-02  0.1247790E+00
         -1   -1    0    0    0  501 -0.00000000000E+00  0.00000000000E+00  0.68322582214E+02  0.68322582214E+02  0.00000000000E+00 0.  1.
          1   -1    0    0  502    0  0.00000000000E+00 -0.00000000000E+00 -0.58793438243E+03  0.58793438243E+03  0.00000000000E+00 0. -1.
         23    2    1    2    0    0 -0.15444149467E+02  0.79916951603E+02 -0.11403607162E+03  0.16732103120E+03  0.91470546873E+02 0.  0.
         23    2    1    2    0    0  0.63718206506E+02 -0.46210124099E+02 -0.41366916051E+03  0.42950497818E+03  0.84598856432E+02 0.  0.
        -13    1    3    3    0    0 -0.10638717667E+02  0.34934521699E+02 -0.11642664054E+03  0.12201953019E+03  0.00000000000E+00 0. -1.
         13    1    3    3    0    0 -0.48054317998E+01  0.44982429904E+02  0.23905689121E+01  0.45301501019E+02  0.00000000000E+00 0.  1.
        -13    1    4    4    0    0 -0.20199915884E+02 -0.15604984465E+02 -0.11303694445E+03  0.11588314352E+03  0.00000000000E+00 0.  1.
         13    1    4    4    0    0  0.83918122390E+02 -0.30605139634E+02 -0.30063221606E+03  0.31362183466E+03  0.00000000000E+00 0. -1.
         21    1    1    2  502  501 -0.48274057039E+02 -0.33706827504E+02  0.80934319211E+01  0.59430955264E+02  0.00000000000E+00 0.  1.
<scales pt_clust_5="13000.00000" pt_clust_6="13000.00000" pt_clust_7="13000.00000" pt_clust_8="13000.00000" pt_clust_9="58.87729"></scales>
<clustering>
<clus scale="   58.877">  1  9  2 -1</clus>
<clus scale="   84.599">  7  8 -1 -1</clus>
<clus scale="   91.471">  5  6 -1 -1</clus>
<clus scale="  113.308">  2  7  1 -1</clus>
<clus scale="  113.308">  2  5  1 -1</clus>
</clustering>
</event>
<event>
 9    1  0.1612788E-005  0.2598405E+03  0.7546771E-02  0.1107350E+00
          3   -1    0    0  502    0  0.00000000000E+00  0.00000000000E+00  0.10776209596E+04  0.10776209596E+04  0.00000000000E+00 0. -1.
         -3   -1    0    0    0  501 -0.00000000000E+00 -0.00000000000E+00 -0.13925994643E+03  0.13925994643E+03  0.00000000000E+00 0.  1.
         23    2    1    2    0    0 -0.28902069044E+03 -0.66718631937E+02  0.15924326563E+03  0.34837323556E+03  0.89560919221E+02 0.  0.
         23    2    1    2    0    0  0.22909564378E+03  0.36288957432E+02  0.75812627474E+03  0.79809731441E+03  0.91663364480E+02 0.  0.
        -11    1    4    4    0    0  0.50586998450E+02 -0.28169379238E+02  0.21965025234E+03  0.22715367418E+03  0.00000000000E+00 0.  1.
         11    1    4    4    0    0  0.17850864533E+03  0.64458336670E+02  0.53847602239E+03  0.57094364023E+03  0.00000000000E+00 0. -1.
        -11    1    3    3    0    0 -0.20362689796E+03 -0.61693407953E+01  0.89030258163E+02  0.22232490010E+03  0.00000000000E+00 0. -1.
         11    1    3    3    0    0 -0.85393792488E+02 -0.60549291142E+02  0.70213007470E+02  0.12604833546E+03  0.00000000000E+00 0.  1.
         21    1    1    2  502  501  0.59925046665E+02  0.30429674505E+02  0.20991472780E+02  0.70410356040E+02  0.00000000000E+00 0. -1.
<scales pt_clust_5="13000.00000" pt_clust_6="13000.00000" pt_clust_7="13000.00000" pt_clust_8="13000.00000" pt_clust_9="67.20845"></scales>
<clustering>
<clus scale="   67.208">  2  9  1 -1</clus>
<clus scale="   89.561">  7  8 -1 -1</clus>
<clus scale="   91.663">  5  6 -1 -1</clus>
<clus scale="  259.106">  2  7  1 -1</clus>
<clus scale="  259.841">  1  5  2 -1</clus>
</clustering>
</event>
<event>
 9    1  0.1612788E-005  0.9398201E+02  0.7546771E-02  0.1297885E+00
         -2   -1    0    0    0  501 -0.00000000000E+00  0.00000000000E+00  0.21475260861E+02  0.21475260861E+02  0.00000000000E+00 0.  1.
          2   -1    0    0  502    0  0.00000000000E+00 -0.00000000000E+00 -0.48669402217E+03  0.48669402217E+03  0.00000000000E+00 0. -1.
         23    2    1    2    0    0 -0.23973517021E+01 -0.25233290616E+02 -0.21481965694E+03  0.23536469080E+03  0.92771689750E+02 0.  0.
         23    2    1    2    0    0 -0.82853641346E+01  0.57101715146E+01 -0.20404959027E+03  0.22138912710E+03  0.85297461809E+02 0.  0.
        -13    1    4    4    0    0  0.26357695474E+02  0.22690601013E+02 -0.40655624885E+02  0.53502068370E+02  0.00000000000E+00 0.  1.
         13    1    4    4    0    0 -0.34643059608E+02 -0.16980429498E+02 -0.16339396539E+03  0.16788705873E+03  0.00000000000E+00 0. -1.
        -13    1    3    3    0    0  0.29783361207E+02  0.21183374899E+02 -0.11506555781E+03  0.12073055359E+03  0.00000000000E+00 0.  1.
         13    1    3    3    0    0 -0.32180712909E+02 -0.46416665515E+02 -0.99754099127E+02  0.11463413721E+03  0.00000000000E+00 0. -1.
         21    1    1    2  502  501  0.10682715837E+02  0.19523119101E+02 -0.46349514099E+02  0.51415465127E+02  0.00000000000E+00 0. -1.
<scales pt_clust_5="13000.00000" pt_clust_6="13000.00000" pt_clust_7="13000.00000" pt_clust_8="13000.00000" pt_clust_9="22.25472"></scales>
<clustering>
<clus scale="   22.255">  1  9  2 -1</clus>
<clus scale="   85.297">  5  6 -1 -1</clus>
<clus scale="   86.612">  2  5  1 -1</clus>
<clus scale="   92.772">  7  8 -1 -1</clus>
<clus scale="   86.612">  2  5  1 -1</clus>
</clustering>
</event>
<event>
 9    1  0.1612788E-005  0.9897341E+02  0.7546771E-02  0.1284642E+00
         -1   -1    0    0    0  501 -0.00000000000E+00  0.00000000000E+00  0.17550069146E+03  0.17550069146E+03  0.00000000000E+00 0.  1.
          1   -1    0    0  502    0  0.00000000000E+00 -0.00000000000E+00 -0.97040151395E+02  0.97040151395E+02  0.00000000000E+00 0. -1.
         23    2    1    2    0    0 -0.46277443354E+02 -0.15804191047E+02  0.91124312204E+02  0.13794135052E+03  0.91284180941E+02 0.  0.
         23    2    1    2    0    0  0.18641922460E+02  0.39099993917E+01 -0.27409321208E+02  0.10109389538E+03  0.95424815561E+02 0.  0.
        -11    1    4    4    0    0  0.29108265429E+02 -0.29283257678E+02  0.17016416222E+02  0.44658243556E+02  0.00000000000E+00 0. -1.
         11    1    4    4    0    0 -0.10466342969E+02  0.33193257070E+02 -0.44425737430E+02  0.56435651819E+02  0.00000000000E+00 0.  1.
        -13    1    3    3    0    0 -0.52383008232E+02  0.65854252780E+01  0.10001099586E+03  0.11309087793E+03  0.00000000000E+00 0.  1.
         13    1    3    3    0    0  0.61055648780E+01 -0.22389616325E+02 -0.88866836546E+01  0.24850472592E+02  0.00000000000E+00 0. -1.
         21    1    1    2  502  501  0.27635520894E+02  0.11894191655E+02  0.14745549064E+02  0.33505596956E+02  0.00000000000E+00 0. -1.
<scales pt_clust_5="13000.00000" pt_clust_6="13000.00000" pt_clust_7="13000.00000" pt_clust_8="13000.00000" pt_clust_9="30.08644"></scales>
<clustering>
<clus scale="   30.086">  1  9  2 -1</clus>
<clus scale="   91.284">  7  8 -1 -1</clus>
<clus scale="   94.988">  1  7  2 -1</clus>
<clus scale="   95.425">  5  6 -1 -1</clus>
<clus scale="   98.973">  2  5  1 -1</clus>
</clustering>
</event>
<event>
 9    1  0.1612788E-005  0.1541951E+03  0.7546771E-02  0.1217173E+00
         -2   -1    0    0    0  501 -0.00000000000E+00  0.00000000000E+00  0.12385903609E+03  0.12385903609E+03  0.00000000000E+00 0.  1.
          2   -1    0    0  502    0  0.00000000000E+00 -0.00000000000E+00 -0.69642292238E+03  0.69642292238E+03  0.00000000000E+00 0. -1.
         23    2    1    2    0    0  0.21979753249E+02 -0.22800250270E+02  0.31085704622E+02  0.10147697992E+03  0.91259495159E+02 0.  0.
         23    2    1    2    0    0 -0.71553188703E+02  0.10990497270E+03 -0.59767079484E+03  0.61840326454E+03  0.89516795941E+02 0.  0.
        -11    1    4    4    0    0  0.10044756487E+02  0.47254878278E+02 -0.11231025119E+03  0.12226002281E+03  0.00000000000E+00 0.  1.
         11    1    4    4    0    0 -0.81597945190E+02  0.62650094421E+02 -0.48536054365E+03  0.49614324174E+03  0.00000000000E+00 0. -1.
        -13    1    3    3    0    0 -0.57994008792E+01  0.20173171067E+02  0.43958091072E+02  0.48712458901E+02  0.00000000000E+00 0. -1.
         13    1    3    3    0    0  0.27779154129E+02 -0.42973421336E+02 -0.12872386451E+02  0.52764521019E+02  0.00000000000E+00 0.  1.
         21    1    1    2  502  501  0.49573435454E+02 -0.87104722429E+02 -0.59787960741E+01  0.10040171400E+03  0.00000000000E+00 0.  1.
<scales pt_clust_5="13000.00000" pt_clust_6="13000.00000" pt_clust_7="13000.00000" pt_clust_8="13000.00000" pt_clust_9="125.55024"></scales>
<clustering>
<clus scale="   89.517">  5  6 -1 -1</clus>
<clus scale="   91.259">  7  8 -1 -1</clus>
<clus scale="   96.598">  1  7  2 -1</clus>
<clus scale="  125.550">  1  9  2 -1</clus>
<clus scale="  154.195">  2  5  1 -1</clus>
</clustering>
</event>
<event>
 9    1  0.1612788E-005  0.9304526E+02  0.7546771E-02  0.1296295E+00
         -1   -1    0    0    0  501 -0.00000000000E+00  0.00000000000E+00  0.81394325807E+02  0.81394325807E+02  0.00000000000E+00 0.  1.
          1   -1    0    0  502    0  0.00000000000E+00 -0.00000000000E+00 -0.21555324323E+03  0.21555324323E+03  0.00000000000E+00 0. -1.
         23    2    1    2    0    0 -0.68296324521E+01 -0.64366276584E+01 -0.29190347360E+02  0.96180317187E+02  0.91161960160E+02 0.  0.
         23    2    1    2    0    0 -0.29060517934E+02 -0.42751886502E+02 -0.38724425862E+02  0.11079003551E+03  0.90014517202E+02 0.  0.
        -11    1    4    4    0    0  0.18582540254E+02 -0.48599250794E+02 -0.34870435107E+02  0.62635015962E+02  0.00000000000E+00 0. -1.
         11    1    4    4    0    0 -0.47643058187E+02  0.58473642921E+01 -0.38539907549E+01  0.48155019545E+02  0.00000000000E+00 0.  1.
        -13    1    3    3    0    0 -0.23539778494E+02 -0.32078159051E+02 -0.46355338626E+02  0.61089662618E+02  0.00000000000E+00 0.  1.
         13    1    3    3    0    0  0.16710146042E+02  0.25641531393E+02  0.17164991266E+02  0.35090654569E+02  0.00000000000E+00 0. -1.
         21    1    1    2  502  501  0.35890150386E+02  0.49188514160E+02 -0.66244144203E+02  0.89977216345E+02  0.00000000000E+00 0. -1.
<scales pt_clust_5="13000.00000" pt_clust_6="13000.00000" pt_clust_7="13000.00000" pt_clust_8="13000.00000" pt_clust_9="60.89017"></scales>
<clustering>
<clus scale="   60.890">  2  9  1 -1</clus>
<clus scale="   90.015">  5  6 -1 -1</clus>
<clus scale="   91.162">  7  8 -1 -1</clus>
<clus scale="   91.921">  2  5  1 -1</clus>
<clus scale="   60.890">  2  5  1 -1</clus>
</clustering>
</event>
<event>
 9    1  0.1612788E-005  0.1306764E+03  0.7546771E-02  0.1229501E+00
         -2   -1    0    0    0  501 -0.00000000000E+00  0.00000000000E+00  0.87731328812E+02  0.87731328812E+02  0.00000000000E+00 0.  1.
          2   -1    0    0  502    0  0.00000000000E+00 -0.00000000000E+00 -0.42422036952E+03  0.42422036952E+03  0.00000000000E+00 0. -1.
         23    2    1    2    0    0  0.12070283247E+03  0.10934596807E+02 -0.12837078552E+03  0.19267946448E+03  0.77185350188E+02 0.  0.
         23    2    1    2    0    0 -0.78877674986E+02  0.37372679987E+02 -0.22122011234E+03  0.25404497383E+03  0.89342631493E+02 0.  0.
        -13    1    3    3    0    0  0.22032551374E+02 -0.16809091522E+02  0.87334830793E+00  0.27726190057E+02  0.00000000000E+00 0.  1.
         13    1    3    3    0    0  0.98670281093E+02  0.27743688328E+02 -0.12924413383E+03  0.16495327442E+03  0.00000000000E+00 0. -1.
        -13    1    4    4    0    0 -0.18916826341E+01  0.44014588636E+02 -0.52950354689E+02  0.68881075323E+02  0.00000000000E+00 0. -1.
         13    1    4    4    0    0 -0.76985992352E+02 -0.66419086492E+01 -0.16826975765E+03  0.18516389850E+03  0.00000000000E+00 0.  1.
         21    1    1    2  502  501 -0.41825157480E+02 -0.48307276794E+02  0.13101857155E+02  0.65227260025E+02  0.00000000000E+00 0.  1.
<scales pt_clust_5="13000.00000" pt_clust_6="13000.00000" pt_clust_7="13000.00000" pt_clust_8="13000.00000" pt_clust_9="63.89786"></scales>
<clustering>
<clus scale="   63.898">  1  9  2 -1</clus>
<clus scale="   77.185">  5  6 -1 -1</clus>
<clus scale="   89.343">  7  8 -1 -1</clus>
<clus scale="  122.686">  1  5  2 -1</clus>
<clus scale="  130.676">  2  5  1 -1</clus>
</clustering>
</event>
<event>
 9    1  0.1612788E-005  0.1472365E+03  0.7546771E-02  0.1204156E+00
          1   -1    0    0  502    0  0.00000000000E+00  0.00000000000E+00  0.46275787143E+03  0.46275787143E+03  0.00000000000E+00 0. -1.
         -1   -1    0    0    0  501 -0.00000000000E+00 -0.00000000000E+00 -0.35162611098E+03  0.35162611098E+03  0.00000000000E+00 0.  1.
         23    2    1    2    0    0 -0.11092878825E+03 -0.84783172652E+02 -0.48021615712E+02  0.17272084945E+03  0.89627193590E+02 0.  0.
         23    2    1    2    0    0  0.57600506204E+02  0.98438488344E+02  0.38369255444E+03  0.41047443105E+03  0.90891847370E+02 0.  0.
        -11    1    4    4    0    0  0.36044471877E+02 -0.82053290022E+01  0.10303843259E+03  0.10946894522E+03  0.00000000000E+00 0.  1.
         11    1    4    4    0    0  0.21556034327E+02  0.10664381735E+03  0.28065412184E+03  0.30100548583E+03  0.00000000000E+00 0. -1.
        -13    1    3    3    0    0  0.12432966697E+02 -0.26852063835E+02 -0.72504318149E+01  0.30466059060E+02  0.00000000000E+00 0. -1.
         13    1    3    3    0    0 -0.12336175494E+03 -0.57931108817E+02 -0.40771183898E+02  0.14225479039E+03  0.00000000000E+00 0.  1.
         21    1    1    2  502  501  0.53328282041E+02 -0.13655315692E+02 -0.22453917828E+03  0.23118870192E+03  0.00000000000E+00 0.  1.
<scales pt_clust_5="13000.00000" pt_clust_6="13000.00000" pt_clust_7="13000.00000" pt_clust_8="13000.00000" pt_clust_9="55.04883"></scales>
<clustering>
<clus scale="   55.049">  2  9  1 -1</clus>
<clus scale="   89.627">  7  8 -1 -1</clus>
<clus scale="   90.892">  5  6 -1 -1</clus>
<clus scale="  146.459">  2  7  1 -1</clus>
<clus scale="  147.237">  1  5  2 -1</clus>
</clustering>
</event>
<event>
 9    1  0.1612788E-005  0.1618740E+03  0.7546771E-02  0.1187150E+00
         -1   -1    0    0    0  501 -0.00000000000E+00  0.00000000000E+00  0.76991920406E+02  0.76991920406E+02  0.00000000000E+00 0.  1.
          1   -1    0    0  502    0  0.00000000000E+00 -0.00000000000E+00 -0.41492323637E+03  0.41492323637E+03  0.00000000000E+00 0. -1.
         23    2    1    2    0    0 -0.11122183105E+03  0.31410930300E+02 -0.92909334472E+02  0.17600446317E+03  0.94807617730E+02 0.  0.
         23    2    1    2    0    0  0.13685851141E+03 -0.19667803198E+02 -0.22303261644E+03  0.28015216191E+03  0.98105102801E+02 0.  0.
        -13    1    4    4    0    0  0.10078948688E+03 -0.50572811638E+02 -0.19426330364E+03  0.22462048233E+03  0.00000000000E+00 0. -1.
         13    1    4    4    0    0  0.36069024527E+02  0.30905008439E+02 -0.28769312805E+02  0.55531679573E+02  0.00000000000E+00 0.  1.
        -13    1    3    3    0    0 -0.10020712312E+03  0.58871836555E+02 -0.56911000476E+02  0.12940719701E+03  0.00000000000E+00 0. -1.
         13    1    3    3    0    0 -0.11014707933E+02 -0.27460906255E+02 -0.35998333995E+02  0.46597266160E+02  0.00000000000E+00 0.  1.
         21    1    1    2  502  501 -0.25636680358E+02 -0.11743127101E+02 -0.21989365046E+02  0.35758531695E+02  0.00000000000E+00 0. -1.
<scales pt_clust_5="13000.00000" pt_clust_6="13000.00000" pt_clust_7="13000.00000" pt_clust_8="13000.00000" pt_clust_9="28.19823"></scales>
<clustering>
<clus scale="   28.198">  1  9  2 -1</clus>
<clus scale="   94.808">  7  8 -1 -1</clus>
<clus scale="   98.105">  5  6 -1 -1</clus>
<clus scale="  159.897">  1  7  2 -1</clus>
<clus scale="  161.874">  2  5  1 -1</clus>
</clustering>
</event>
<event>
 9    1  0.1612788E-005  0.1714160E+03  0.7546771E-02  0.1176819E+00
         -2   -1    0    0    0  501 -0.00000000000E+00  0.00000000000E+00  0.80336611841E+03  0.80336611841E+03  0.00000000000E+00 0.  1.
          2   -1    0    0  502    0  0.00000000000E+00 -0.00000000000E+00 -0.57782325659E+02  0.57782325659E+02  0.00000000000E+00 0. -1.
         23    2    1    2    0    0 -0.27424951326E+02  0.14840577534E+03  0.50037443469E+03  0.53017388882E+03  0.89069497475E+02 0.  0.
         23    2    1    2    0    0  0.49358877689E+02 -0.13402533746E+03  0.13336642836E+03  0.21609751210E+03  0.92262888721E+02 0.  0.
        -11    1    3    3    0    0 -0.28839071453E+02  0.71581350704E+01  0.13970299119E+03  0.14282806688E+03  0.00000000000E+00 0. -1.
         11    1    3    3    0    0  0.14141201269E+01  0.14124764027E+03  0.36067144350E+03  0.38734582194E+03  0.00000000000E+00 0.  1.
        -13    1    4    4    0    0  0.59419761142E+02 -0.78997582495E+02  0.12527092072E+03  0.15957484023E+03  0.00000000000E+00 0.  1.
         13    1    4    4    0    0 -0.10060883453E+02 -0.55027754961E+02  0.80955076374E+01  0.56522671874E+02  0.00000000000E+00 0. -1.
         21    1    1    2  502  501 -0.21933926363E+02 -0.14380437887E+02  0.11184292970E+03  0.11487704315E+03  0.00000000000E+00 0. -1.
<scales pt_clust_5="13000.00000" pt_clust_6="13000.00000" pt_clust_7="13000.00000" pt_clust_8="13000.00000" pt_clust_9="26.22774"></scales>
<clustering>
<clus scale="   26.228">  1  9  2 -1</clus>
<clus scale="   89.069">  5  6 -1 -1</clus>
<clus scale="   92.263">  7  8 -1 -1</clus>
<clus scale="  169.719">  1  5  2 -1</clus>
<clus scale="  171.416">  2  5  1 -1</clus>
</clustering>
</event>
<event>
 9    1  0.1612788E-005  0.1116085E+03  0.7546771E-02  0.1258530E+00
         -1   -1    0    0    0  501 -0.00000000000E+00  0.00000000000E+00  0.97007491354E+02  0.97007491354E+02  0.00000000000E+00 0.  1.
          1   -1    0    0  502    0  0.00000000000E+00 -0.00000000000E+00 -0.21097218802E+03  0.21097218802E+03  0.00000000000E+00 0. -1.
         23    2    1    2    0    0  0.59279117675E+02 -0.77760664075E+01 -0.44528985766E+02  0.11682753267E+03  0.89951991721E+02 0.  0.
         23    2    1    2    0    0 -0.59228207848E+02  0.29231257888E+02 -0.10168154729E+03  0.15242074088E+03  0.92360695901E+02 0.  0.
        -11    1    3    3    0    0  0.15143609853E+02 -0.18009690966E+02  0.24685278969E+02  0.34103385255E+02  0.00000000000E+00 0.  1.
         11    1    3    3    0    0  0.44135507823E+02  0.10233624559E+02 -0.69214264735E+02  0.82724147413E+02  0.00000000000E+00 0. -1.
        -11    1    4    4    0    0  0.15163722665E+02  0.27719116439E+02 -0.58244987537E+02  0.66262858936E+02  0.00000000000E+00 0. -1.
         11    1    4    4    0    0 -0.74391930513E+02  0.15121414492E+01 -0.43436559754E+02  0.86157881941E+02  0.00000000000E+00 0.  1.
         21    1    1    2  502  501 -0.50909827315E-01 -0.21455191481E+02  0.32245836389E+02  0.38731405832E+02  0.00000000000E+00 0. -1.
<scales pt_clust_5="13000.00000" pt_clust_6="13000.00000" pt_clust_7="13000.00000" pt_clust_8="13000.00000" pt_clust_9="21.45525"></scales>
<clustering>
<clus scale="   21.455">  1  9  2 -1</clus>
<clus scale="   89.952">  5  6 -1 -1</clus>
<clus scale="   92.361">  7  8 -1 -1</clus>
<clus scale="  109.624">  1  5  2 -1</clus>
<clus scale="  111.608">  2  5  1 -1</clus>
</clustering>
</event>
<event>
 9    1  0.1612788E-005  0.2031420E+03  0.7546771E-02  0.1147592E+00
          2   -1    0    0  502    0  0.00000000000E+00  0.00000000000E+00  0.42355094935E+03  0.42355094935E+03  0.00000000000E+00 0. -1.
         -2   -1    0    0    0  501 -0.00000000000E+00 -0.00000000000E+00 -0.21166955093E+03  0.21166955093E+03  0.00000000000E+00 0.  1.
         23    2    1    2    0    0  0.15752486739E+03  0.77632723801E+01  0.32274113477E+02  0.18310878807E+03  0.87251691238E+02 0.  0.
         23    2    1    2    0    0 -0.19176977795E+03 -0.10686419815E+02  0.27660833043E+03  0.34920174421E+03  0.92411267683E+02 0.  0.
        -13    1    4    4    0    0 -0.16241708140E+03  0.17128429908E+02  0.25639786891E+03  0.30399433979E+03  0.00000000000E+00 0. -1.
         13    1    4    4    0    0 -0.29352696548E+02 -0.27814849723E+02  0.20210461516E+02  0.45207404421E+02  0.00000000000E+00 0.  1.
        -13    1    3    3    0    0  0.13961182230E+03  0.24626388233E+02 -0.94680167498E+00  0.14177029434E+03  0.00000000000E+00 0.  1.
         13    1    3    3    0    0  0.17913045092E+02 -0.16863115853E+02  0.33220915152E+02  0.41338493735E+02  0.00000000000E+00 0. -1.
         21    1    1    2  502  501  0.34244910554E+02  0.29231474347E+01 -0.97001045483E+02  0.10290996800E+03  0.00000000000E+00 0.  1.
<scales pt_clust_5="13000.00000" pt_clust_6="13000.00000" pt_clust_7="13000.00000" pt_clust_8="13000.00000" pt_clust_9="34.36944"></scales>
<clustering>
<clus scale="   34.369">  2  9  1 -1</clus>
<clus scale="   87.252">  7  8 -1 -1</clus>
<clus scale="   92.411">  5  6 -1 -1</clus>
<clus scale="  200.847">  2  7  1 -1</clus>
<clus scale="  203.142">  1  5  2 -1</clus>
</clustering>
</event>
<event>
 9    1  0.1612788E-005  0.1975532E+03  0.7546771E-02  0.1152255E+00
          1   -1    0    0  502    0  0.00000000000E+00  0.00000000000E+00  0.63163939966E+03  0.63163939966E+03  0.00000000000E+00 0. -1.
         -1   -1    0    0    0  501 -0.00000000000E+00 -0.00000000000E+00 -0.18031024264E+03  0.18031024264E+03  0.00000000000E+00 0.  1.
         23    2    1    2    0    0  0.91571452116E+02  0.19778467478E+03  0.15287662674E+03  0.28154213263E+03  0.91600223924E+02 0.  0.
         23    2    1    2    0    0 -0.21117004908E+02 -0.15829024534E+03  0.37526927589E+03  0.41894248603E+03  0.95833436288E+02 0.  0.
        -11    1    3    3    0    0  0.51267252780E+02  0.15271026934E+03  0.62462521745E+02  0.17277246364E+03  0.00000000000E+00 0.  1.
         11    1    3    3    0    0  0.40304199335E+02  0.45074405435E+02  0.90414104998E+02  0.10876966899E+03  0.00000000000E+00 0. -1.
        -11    1    4    4    0    0 -0.50348978146E+02 -0.12863767091E+03  0.23469892076E+03  0.27233481853E+03  0.00000000000E+00 0. -1.
         11    1    4    4    0    0  0.29231973239E+02 -0.29652574432E+02  0.14057035513E+03  0.14660766750E+03  0.00000000000E+00 0.  1.
         21    1    1    2  502  501 -0.70454447208E+02 -0.39494429437E+02 -0.76816745612E+02  0.11146502364E+03  0.00000000000E+00 0.  1.
<scales pt_clust_5="13000.00000" pt_clust_6="13000.00000" pt_clust_7="13000.00000" pt_clust_8="13000.00000" pt_clust_9="80.76905"></scales>
<clustering>
<clus scale="   80.769">  2  9  1 -1</clus>
<clus scale="   91.600">  5  6 -1 -1</clus>
<clus scale="   95.833">  7  8 -1 -1</clus>
<clus scale="  195.535">  2  5  1 -1</clus>
<clus scale="  197.553">  1  5  2 -1</clus>
</clustering>
</event>
<event>
 9    1  0.1612788E-005  0.9913238E+02  0.7546771E-02  0.1284813E+00
          1   -1    0    0  502    0  0.00000000000E+00  0.00000000000E+00  0.76461418088E+02  0.76461418088E+02  0.00000000000E+00 0. -1.
         -1   -1    0    0    0  501 -0.00000000000E+00 -0.00000000000E+00 -0.35159185830E+03  0.35159185830E+03  0.00000000000E+00 0.  1.
         23    2    1    2    0    0 -0.78906335539E+01 -0.28445913824E+02 -0.25439402143E+03  0.27007461322E+03  0.85746990946E+02 0.  0.
         23    2    1    2    0    0 -0.10540664222E+02  0.39585007034E+02  0.28799015407E+02  0.10396430049E+03  0.91110450024E+02 0.  0.
        -13    1    3    3    0    0 -0.42397854254E+02 -0.13298395092E+02 -0.19290107946E+03  0.19795265043E+03  0.00000000000E+00 0. -1.
         13    1    3    3    0    0  0.34507220700E+02 -0.15147518732E+02 -0.61492941974E+02  0.72121962791E+02  0.00000000000E+00 0.  1.
        -13    1    4    4    0    0 -0.27214745768E+02 -0.19682093076E+02 -0.46342776349E+01  0.33904331644E+02  0.00000000000E+00 0.  1.
         13    1    4    4    0    0  0.16674081546E+02  0.59267100109E+02  0.33433293042E+02  0.70059968844E+02  0.00000000000E+00 0. -1.
         21    1    1    2  502  501  0.18431297776E+02 -0.11139093210E+02 -0.49535434192E+02  0.54014362681E+02  0.00000000000E+00 0. -1.
<scales pt_clust_5="13000.00000" pt_clust_6="13000.00000" pt_clust_7="13000.00000" pt_clust_8="13000.00000" pt_clust_9="21.53583"></scales>
<clustering>
<clus scale="   21.536">  2  9  1 -1</clus>
<clus scale="   85.747">  5  6 -1 -1</clus>
<clus scale="   91.110">  7  8 -1 -1</clus>
<clus scale="   94.227">  2  5  1 -1</clus>
<clus scale="   99.132">  1  5  2 -1</clus>
</clustering>
</event>
<event>
 9    1  0.1612788E-005  0.9819076E+02  0.7546771E-02  0.1285164E+00
          1   -1    0    0  502    0  0.00000000000E+00  0.00000000000E+00  0.41896811992E+03  0.41896811992E+03  0.00000000000E+00 0. -1.
         -1   -1    0    0    0  501 -0.00000000000E+00 -0.00000000000E+00 -0.37798714332E+02  0.37798714332E+02  0.00000000000E+00 0.  1.
         23    2    1    2    0    0  0.12303151587E+02  0.67222170146E+01  0.55178901381E+02  0.10793644276E+03  0.91700647641E+02 0.  0.
         23    2    1    2    0    0 -0.30957061994E+02 -0.14641699993E+02  0.29821740542E+03  0.31444970504E+03  0.93660434778E+02 0.  0.
        -11    1    3    3    0    0 -0.26477305847E+02 -0.25375835584E+02  0.42279582368E+02  0.55969132937E+02  0.00000000000E+00 0.  1.
         11    1    3    3    0    0  0.38780457433E+02  0.32098052599E+02  0.12899319013E+02  0.51967309824E+02  0.00000000000E+00 0. -1.
        -13    1    4    4    0    0 -0.12803982868E+02  0.38895281672E+02  0.93567901981E+02  0.10213587614E+03  0.00000000000E+00 0. -1.
         13    1    4    4    0    0 -0.18153079126E+02 -0.53536981665E+02  0.20464950344E+03  0.21231382890E+03  0.00000000000E+00 0.  1.
         21    1    1    2  502  501  0.18653910407E+02  0.79194829784E+01  0.27773098792E+02  0.34380686448E+02  0.00000000000E+00 0.  1.
<scales pt_clust_5="13000.00000" pt_clust_6="13000.00000" pt_clust_7="13000.00000" pt_clust_8="13000.00000" pt_clust_9="20.26540"></scales>
<clustering>
<clus scale="   20.265">  2  9  1 -1</clus>
<clus scale="   91.701">  5  6 -1 -1</clus>
<clus scale="   93.660">  7  8 -1 -1</clus>
<clus scale="   96.323">  2  5  1 -1</clus>
<clus scale="   98.191">  1  5  2 -1</clus>
</clustering>
</event>
<event>
 9    1  0.1612788E-005  0.2472681E+03  0.7546771E-02  0.1115058E+00
         -1   -1    0    0    0  501 -0.00000000000E+00  0.00000000000E+00  0.32702059154E+03  0.32702059154E+03  0.00000000000E+00 0.  1.
          1   -1    0    0  502    0  0.00000000000E+00 -0.00000000000E+00 -0.28306326085E+03  0.28306326085E+03  0.00000000000E+00 0. -1.
         23    2    1    2    0    0  0.78595706249E+02 -0.19598966522E+03  0.16826195038E+03  0.28488011653E+03  0.90859027804E+02 0.  0.
         23    2    1    2    0    0 -0.10388705180E+03  0.21205128048E+03 -0.14219486430E+03  0.29030834222E+03  0.91111410078E+02 0.  0.
        -13    1    3    3    0    0  0.51405499813E+02 -0.25855502290E+02  0.44578386345E+02  0.72789181468E+02  0.00000000000E+00 0. -1.
         13    1    3    3    0    0  0.27190206436E+02 -0.17013416293E+03  0.12368356403E+03  0.21209093506E+03  0.00000000000E+00 0.  1.
        -13    1    4    4    0    0 -0.66851827838E+02  0.17976328327E+03 -0.14598252837E+03  0.24102884368E+03  0.00000000000E+00 0. -1.
         13    1    4    4    0    0 -0.37035223960E+02  0.32287997213E+02  0.37876640658E+01  0.49279498545E+02  0.00000000000E+00 0.  1.
         21    1    1    2  502  501  0.25291345549E+02 -0.16061615254E+02  0.17890244615E+02  0.34895393631E+02  0.00000000000E+00 0. -1.
<scales pt_clust_5="13000.00000" pt_clust_6="13000.00000" pt_clust_7="13000.00000" pt_clust_8="13000.00000" pt_clust_9="29.96043"></scales>
<clustering>
<clus scale="   29.960">  1  9  2 -1</clus>
<clus scale="   90.859">  5  6 -1 -1</clus>
<clus scale="   91.111">  7  8 -1 -1</clus>
<clus scale="  247.175">  1  5  2 -1</clus>
<clus scale="  247.268">  2  5  1 -1</clus>
</clustering>
</event>
<event>
 9    1  0.1612788E-005  0.1392399E+03  0.7546771E-02  0.1214623E+00
          1   -1    0    0  502    0  0.00000000000E+00  0.00000000000E+00  0.71973700780E+02  0.71973700780E+02  0.00000000000E+00 0. -1.
         -1   -1    0    0    0  501 -0.00000000000E+00 -0.00000000000E+00 -0.70135513516E+03  0.70135513516E+03  0.00000000000E+00 0.  1.
         23    2    1    2    0    0 -0.77022507253E+02  0.54156946657E+02 -0.30004077384E+03  0.32786296402E+03  0.92758911792E+02 0.  0.
         23    2    1    2    0    0  0.44240133181E+02 -0.10063722386E+03 -0.37190326132E+02  0.14783032613E+03  0.91573166146E+02 0.  0.
        -11    1    3    3    0    0 -0.17832361323E+02  0.68568926513E+02 -0.17402239729E+03  0.18789221791E+03  0.00000000000E+00 0. -1.
         11    1    3    3    0    0 -0.59190145930E+02 -0.14411979855E+02 -0.12601837655E+03  0.13997074611E+03  0.00000000000E+00 0.  1.
        -13    1    4    4    0    0 -0.24076903990E+02 -0.38193307550E+01 -0.93483684001E+01  0.26108936878E+02  0.00000000000E+00 0.  1.
         13    1    4    4    0    0  0.68317037171E+02 -0.96817893100E+02 -0.27841957732E+02  0.12172138926E+03  0.00000000000E+00 0. -1.
         21    1    1    2  502  501  0.32782374073E+02  0.46480277198E+02 -0.29215033441E+03  0.29763554578E+03  0.00000000000E+00 0.  1.
<scales pt_clust_5="13000.00000" pt_clust_6="13000.00000" pt_clust_7="13000.00000" pt_clust_8="13000.00000" pt_clust_9="56.87794"></scales>
<clustering>
<clus scale="   56.878">  2  9  1 -1</clus>
<clus scale="   91.573">  7  8 -1 -1</clus>
<clus scale="   92.759">  5  6 -1 -1</clus>
<clus scale="  138.453">  1  7  2 -1</clus>
<clus scale="  138.453">  1  5  2 -1</clus>
</clustering>
</event>
<event>
 9    1  0.1612788E-005  0.1013972E+03  0.7546771E-02  0.1278075E+00
          1   -1    0    0  502    0  0.00000000000E+00  0.00000000000E+00  0.15986828412E+03  0.15986828412E+03  0.00000000000E+00 0. -1.
         -1   -1    0    0    0  501 -0.00000000000E+00 -0.00000000000E+00 -0.27469866331E+03  0.27469866331E+03  0.00000000000E+00 0.  1.
         23    2    1    2    0    0 -0.50172940715E+01  0.15850429178E+02 -0.16566477202E+03  0.18925582475E+03  0.89980782219E+02 0.  0.
         23    2    1    2    0    0  0.36307872080E+02  0.33506801841E+02  0.11735155519E+03  0.15676865031E+03  0.91455206918E+02 0.  0.
        -11    1    4    4    0    0 -0.11940895808E+02  0.41399452586E+02  0.92238525007E+02  0.10180591909E+03  0.00000000000E+00 0. -1.
         11    1    4    4    0    0  0.48248767888E+02 -0.78926507452E+01  0.25113030179E+02  0.54962731221E+02  0.00000000000E+00 0.  1.
        -13    1    3    3    0    0 -0.21124793583E+02 -0.29487067310E+02 -0.10922835444E+03  0.11509377679E+03  0.00000000000E+00 0.  1.
         13    1    3    3    0    0  0.16107499512E+02  0.45337496487E+02 -0.56436417581E+02  0.74162047960E+02  0.00000000000E+00 0. -1.
         21    1    1    2  502  501 -0.31290578008E+02 -0.49357231019E+02 -0.66517162347E+02  0.88542472366E+02  0.00000000000E+00 0.  1.
<scales pt_clust_5="13000.00000" pt_clust_6="13000.00000" pt_clust_7="13000.00000" pt_clust_8="13000.00000" pt_clust_9="58.44003"></scales>
<clustering>
<clus scale="   58.440">  2  9  1 -1</clus>
<clus scale="   89.981">  7  8 -1 -1</clus>
<clus scale="   91.455">  5  6 -1 -1</clus>
<clus scale="  100.069">  2  7  1 -1</clus>
<clus scale="  101.397">  1  5  2 -1</clus>
</clustering>
</event>
<event>
 9    1  0.1612788E-005  0.1096976E+03  0.7546771E-02  0.1261565E+00
         -1   -1    0    0    0  501 -0.00000000000E+00  0.00000000000E+00  0.86733232897E+03  0.86733232897E+03  0.00000000000E+00 0.  1.
          1   -1    0    0  502    0  0.00000000000E+00 -0.00000000000E+00 -0.31555152165E+02  0.31555152165E+02  0.00000000000E+00 0. -1.
         23    2    1    2    0    0  0.23876568995E+02  0.10428879290E+02  0.41123656978E+03  0.42192965752E+03  0.90720821769E+02 0.  0.
         23    2    1    2    0    0 -0.69036693056E+02  0.29458686664E+02  0.12859064553E+03  0.17493657530E+03  0.91833392905E+02 0.  0.
        -11    1    3    3    0    0  0.41374880061E+02 -0.27720495231E+02  0.27134564645E+03  0.27587817312E+03  0.00000000000E+00 0.  1.
         11    1    3    3    0    0 -0.17498311066E+02  0.38149374521E+02  0.13989092333E+03  0.14605148440E+03  0.00000000000E+00 0. -1.
        -13    1    4    4    0    0 -0.20513369044E+02 -0.58056325269E+01  0.11013227412E+03  0.11217674216E+03  0.00000000000E+00 0.  1.
         13    1    4    4    0    0 -0.48523324012E+02  0.35264319191E+02  0.18458371413E+02  0.62759833145E+02  0.00000000000E+00 0. -1.
         21    1    1    2  502  501  0.45160124061E+02 -0.39887565953E+02  0.29594996149E+03  0.30202124831E+03  0.00000000000E+00 0.  1.
<scales pt_clust_5="13000.00000" pt_clust_6="13000.00000" pt_clust_7="13000.00000" pt_clust_8="13000.00000" pt_clust_9="60.25325"></scales>
<clustering>
<clus scale="   60.253">  1  9  2 -1</clus>
<clus scale="   90.721">  5  6 -1 -1</clus>
<clus scale="   91.833">  7  8 -1 -1</clus>
<clus scale="  108.768">  1  5  2 -1</clus>
<clus scale="  109.698">  2  5  1 -1</clus>
</clustering>
</event>
<event>
 9    1  0.1612788E-005  0.1260369E+03  0.7546771E-02  0.1233787E+00
         -1   -1    0    0    0  501 -0.00000000000E+00  0.00000000000E+00  0.38877020801E+02  0.38877020801E+02  0.00000000000E+00 0.  1.
          1   -1    0    0  502    0  0.00000000000E+00 -0.00000000000E+00 -0.53093349273E+03  0.53093349273E+03  0.00000000000E+00 0. -1.
         23    2    1    2    0    0 -0.16467556534E+02  0.93230381226E+02 -0.18949206051E+03  0.23129159049E+03  0.92873432327E+02 0.  0.
         23    2    1    2    0    0  0.34409078059E+02 -0.68401845700E+02 -0.21826155150E+03  0.24882317866E+03  0.91717349641E+02 0.  0.
        -11    1    3    3    0    0 -0.40654057175E+02  0.11647730888E+02 -0.34912538348E+02  0.54838921703E+02  0.00000000000E+00 0. -1.
         11    1    3    3    0    0  0.24186500641E+02  0.81582650337E+02 -0.15457952217E+03  0.17645266879E+03  0.00000000000E+00 0.  1.
        -13    1    4    4    0    0  0.38670694809E+02 -0.88082956484E+02 -0.15491748086E+03  0.18235530081E+03  0.00000000000E+00 0. -1.
         13    1    4    4    0    0 -0.42616167501E+01  0.19681110785E+02 -0.63344070647E+02  0.66467877845E+02  0.00000000000E+00 0.  1.
         21    1    1    2  502  501 -0.17941521525E+02 -0.24828535526E+02 -0.84302859908E+02  0.89695744378E+02  0.00000000000E+00 0. -1.
<scales pt_clust_5="13000.00000" pt_clust_6="13000.00000" pt_clust_7="13000.00000" pt_clust_8="13000.00000" pt_clust_9="30.63257"></scales>
<clustering>
<clus scale="   30.633">  2  9  1 -1</clus>
<clus scale="   91.717">  7  8 -1 -1</clus>
<clus scale="   92.873">  5  6 -1 -1</clus>
<clus scale="  125.187">  2  7  1 -1</clus>
<clus scale="   30.633">  2  5  1 -1</clus>
</clustering>
</event>
<event>
 9    1  0.1612788E-005  0.1640017E+03  0.7546771E-02  0.1184753E+00
          1   -1    0    0  502    0  0.00000000000E+00  0.00000000000E+00  0.15866186642E+03  0.15866186642E+03  0.00000000000E+00 0. -1.
         -1   -1    0    0    0  501 -0.00000000000E+00 -0.00000000000E+00 -0.58501786209E+03  0.58501786209E+03  0.00000000000E+00 0.  1.
         23    2    1    2    0    0  0.69173651259E+02 -0.94377117885E+02 -0.47489979657E+03  0.49789944186E+03  0.93177266593E+02 0.  0.
         23    2    1    2    0    0 -0.46410654987E+02  0.12910683891E+03  0.89995954630E+02  0.18710671023E+03  0.89928440515E+02 0.  0.
        -11    1    3    3    0    0  0.44180423780E+01 -0.28215117271E+02 -0.23156086363E+02  0.36767054229E+02  0.00000000000E+00 0. -1.
         11    1    3    3    0    0  0.64755608881E+02 -0.66162000614E+02 -0.45174371021E+03  0.46113238763E+03  0.00000000000E+00 0.  1.
        -11    1    4    4    0    0 -0.62713890371E+02  0.42677419649E+02  0.36742992239E+02  0.84287850086E+02  0.00000000000E+00 0.  1.
         11    1    4    4    0    0  0.16303235384E+02  0.86429419262E+02  0.53252962390E+02  0.10281886014E+03  0.00000000000E+00 0. -1.
         21    1    1    2  502  501 -0.22762996272E+02 -0.34729721026E+02 -0.41452153728E+02  0.58673576425E+02  0.00000000000E+00 0. -1.
<scales pt_clust_5="13000.00000" pt_clust_6="13000.00000" pt_clust_7="13000.00000" pt_clust_8="13000.00000" pt_clust_9="41.52478"></scales>
<clustering>
<clus scale="   41.525">  2  9  1 -1</clus>
<clus scale="   89.928">  7  8 -1 -1</clus>
<clus scale="   93.177">  5  6 -1 -1</clus>
<clus scale="  162.178">  1  7  2 -1</clus>
<clus scale="  162.178">  1  5  2 -1</clus>
</clustering>
</event>
<event>
 9    1  0.1612788E-005  0.1352978E+03  0.7546771E-02  0.1220587E+00
          2   -1    0    0  502    0  0.00000000000E+00  0.00000000000E+00  0.51931118073E+03  0.51931118073E+03  0.00000000000E+00 0. -1.
         -2   -1    0    0    0  501 -0.00000000000E+00 -0.00000000000E+00 -0.17184810057E+03  0.17184810057E+03  0.00000000000E+00 0.  1.
         23    2    1    2    0    0 -0.73061726706E+02  0.60116097387E+02 -0.12303155943E+03  0.18258675723E+03  0.96172751987E+02 0.  0.
         23    2    1    2    0    0  0.95827766244E+02 -0.40446995063E+02  0.25235894013E+03  0.28837182125E+03  0.93028772077E+02 0.  0.
        -11    1    3    3    0    0 -0.23642490055E+02 -0.13799539940E+02  0.38580731986E+01  0.27645603038E+02  0.00000000000E+00 0. -1.
         11    1    3    3    0    0 -0.49419236651E+02  0.73915637327E+02 -0.12688963263E+03  0.15494115419E+03  0.00000000000E+00 0.  1.
        -11    1    4    4    0    0  0.25896952612E+02  0.20568716531E+02  0.13369873303E+03  0.13772826677E+03  0.00000000000E+00 0.  1.
         11    1    4    4    0    0  0.69930813632E+02 -0.61015711594E+02  0.11866020710E+03  0.15064355448E+03  0.00000000000E+00 0. -1.
         21    1    1    2  502  501 -0.22766039539E+02 -0.19669102323E+02  0.21813569946E+03  0.22020070282E+03  0.00000000000E+00 0. -1.
<scales pt_clust_5="13000.00000" pt_clust_6="13000.00000" pt_clust_7="13000.00000" pt_clust_8="13000.00000" pt_clust_9="30.08598"></scales>
<clustering>
<clus scale="   30.086">  1  9  2 -1</clus>
<clus scale="   93.029">  7  8 -1 -1</clus>
<clus scale="   96.173">  5  6 -1 -1</clus>
<clus scale="  133.081">  1  7  2 -1</clus>
<clus scale="   30.086">  1  5  2 -1</clus>
</clustering>
</event>
<event>
 9    1  0.1612788E-005  0.2243780E+03  0.7546771E-02  0.1130963E+00
         -2   -1    0    0    0  501 -0.00000000000E+00  0.00000000000E+00  0.48297951175E+02  0.48297951175E+02  0.00000000000E+00 0.  1.
          2   -1    0    0  502    0  0.00000000000E+00 -0.00000000000E+00 -0.17078405422E+04  0.17078405422E+04  0.00000000000E+00 0. -1.
         23    2    1    2    0    0  0.19718506537E+03  0.15971264323E+01 -0.61202871965E+03  0.64985805655E+03  0.94084213125E+02 0.  0.
         23    2    1    2    0    0 -0.20679341145E+03  0.28034741437E+02 -0.10506669378E+04  0.10749705384E+04  0.90062103766E+02 0.  0.
        -11    1    3    3    0    0  0.97511073350E+02 -0.37652631890E+02 -0.22186214061E+03  0.24525280743E+03  0.00000000000E+00 0.  1.
         11    1    3    3    0    0  0.99673992022E+02  0.39249758323E+02 -0.39016657904E+03  0.40460524912E+03  0.00000000000E+00 0. -1.
        -13    1    4    4    0    0 -0.90790661474E+02 -0.24627363994E+02 -0.33072043294E+03  0.34383928808E+03  0.00000000000E+00 0.  1.
         13    1    4    4    0    0 -0.11600274998E+03  0.52662105431E+02 -0.71994650489E+03  0.73113125036E+03  0.00000000000E+00 0. -1.
         21    1    1    2  502  501  0.96083460778E+01 -0.29631867869E+02  0.31530664701E+01  0.31309898370E+02  0.00000000000E+00 0.  1.
<scales pt_clust_5="13000.00000" pt_clust_6="13000.00000" pt_clust_7="13000.00000" pt_clust_8="13000.00000" pt_clust_9="31.15073"></scales>
<clustering>
<clus scale="   31.151">  1  9  2 -1</clus>
<clus scale="   90.062">  7  8 -1 -1</clus>
<clus scale="   94.084">  5  6 -1 -1</clus>
<clus scale="  222.721">  2  7  1 -1</clus>
<clus scale="  222.721">  2  5  1 -1</clus>
</clustering>
</event>
<event>
 9    1  0.1612788E-005  0.1044487E+03  0.7546771E-02  0.1273118E+00
          2   -1    0    0  502    0  0.00000000000E+00  0.00000000000E+00  0.48532699423E+03  0.48532699423E+03  0.00000000000E+00 0. -1.
         -2   -1    0    0    0  501 -0.00000000000E+00 -0.00000000000E+00 -0.33233483310E+02  0.33233483310E+02  0.00000000000E+00 0.  1.
         23    2    1    2    0    0  0.32756829113E+02 -0.16347398523E+02  0.11368628245E+03  0.14910785992E+03  0.89265535238E+02 0.  0.
         23    2    1    2    0    0 -0.58769671969E+02  0.34999518992E+02  0.27561361513E+03  0.29897136147E+03  0.93499569319E+02 0.  0.
        -11    1    3    3    0    0  0.52526248968E+02  0.12503442170E+02  0.38899153034E+02  0.66546878240E+02  0.00000000000E+00 0.  1.
         11    1    3    3    0    0 -0.19769419855E+02 -0.28850840693E+02  0.74787129416E+02  0.82560981682E+02  0.00000000000E+00 0. -1.
        -11    1    4    4    0    0  0.28027313456E+01  0.51453444651E+02  0.10842628412E+03  0.12004820430E+03  0.00000000000E+00 0.  1.
         11    1    4    4    0    0 -0.61572403314E+02 -0.16453925659E+02  0.16718733101E+03  0.17892315717E+03  0.00000000000E+00 0. -1.
         21    1    1    2  502  501  0.26012842856E+02 -0.18652120469E+02  0.62793613339E+02  0.70481256144E+02  0.00000000000E+00 0. -1.
<scales pt_clust_5="13000.00000" pt_clust_6="13000.00000" pt_clust_7="13000.00000" pt_clust_8="13000.00000" pt_clust_9="32.00890"></scales>
<clustering>
<clus scale="   32.009">  1  9  2 -1</clus>
<clus scale="   89.266">  5  6 -1 -1</clus>
<clus scale="   93.500">  7  8 -1 -1</clus>
<clus scale="  100.676">  2  5  1 -1</clus>
<clus scale="   32.009">  1  5  2 -1</clus>
</clustering>
</event>
<event>
 9    1  0.1612788E-005  0.2032867E+03  0.7546771E-02  0.1159105E+00
          2   -1    0    0  502    0  0.00000000000E+00  0.00000000000E+00  0.10653189774E+04  0.10653189774E+04  0.00000000000E+00 0. -1.
         -2   -1    0    0    0  501 -0.00000000000E+00 -0.00000000000E+00 -0.73426652467E+02  0.73426652467E+02  0.00000000000E+00 0.  1.
         23    2    1    2    0    0 -0.14357926809E+02 -0.16532594400E+03  0.42046259264E+03  0.46105268952E+03  0.90785312071E+02 0.  0.
         23    2    1    2    0    0 -0.12274796320E+03  0.82297205988E+01  0.28530490611E+03  0.32365245588E+03  0.90648949137E+02 0.  0.
        -13    1    4    4    0    0 -0.16510536723E+01  0.26761082832E+02  0.28534544293E+02  0.39154843259E+02  0.00000000000E+00 0. -1.
         13    1    4    4    0    0 -0.12109690953E+03 -0.18531362233E+02  0.25677036181E+03  0.28449761262E+03  0.00000000000E+00 0.  1.
        -13    1    3    3    0    0  0.21341175917E+02 -0.56684727118E+02  0.23905745339E+03  0.24661117189E+03  0.00000000000E+00 0. -1.
         13    1    3    3    0    0 -0.35699102726E+02 -0.10864121688E+03  0.18140513925E+03  0.21444151764E+03  0.00000000000E+00 0.  1.
         21    1    1    2  502  501  0.13710589001E+03  0.15709622340E+03  0.28612482622E+03  0.35404048449E+03  0.00000000000E+00 0. -1.
<scales pt_clust_5="13000.00000" pt_clust_6="13000.00000" pt_clust_7="13000.00000" pt_clust_8="13000.00000" pt_clust_9="181.88869"></scales>
<clustering>
<clus scale="   90.649">  5  6 -1 -1</clus>
<clus scale="   90.785">  7  8 -1 -1</clus>
<clus scale="  152.814">  1  5  2 -1</clus>
<clus scale="  181.889">  2  9  1 -1</clus>
<clus scale="  152.814">  1  5  2 -1</clus>
</clustering>
</event>
<event>
 9    1  0.1612788E-005  0.1375885E+03  0.7546771E-02  0.1217055E+00
         -1   -1    0    0    0  501 -0.00000000000E+00  0.00000000000E+00  0.30688520618E+03  0.30688520618E+03  0.00000000000E+00 0.  1.
          1   -1    0    0  502    0  0.00000000000E+00 -0.00000000000E+00 -0.11788109209E+03  0.11788109209E+03  0.00000000000E+00 0. -1.
         23    2    1    2    0    0  0.79065603425E+02  0.37271276578E+02  0.12458519421E+03  0.17663407718E+03  0.89652712738E+02 0.  0.
         23    2    1    2    0    0 -0.68499417927E+02 -0.88524622360E+02 -0.22802068302E+02  0.14641668389E+03  0.91592204814E+02 0.  0.
        -11    1    4    4    0    0 -0.68383544542E+02 -0.28772062127E+02 -0.39936354813E+02  0.84255879076E+02  0.00000000000E+00 0. -1.
         11    1    4    4    0    0 -0.11587338456E+00 -0.59752560233E+02  0.17134286510E+02  0.62160804815E+02  0.00000000000E+00 0.  1.
        -13    1    3    3    0    0  0.67531751933E+02 -0.62679082007E+01  0.34901434001E+02  0.76275384547E+02  0.00000000000E+00 0. -1.
         13    1    3    3    0    0  0.11533851492E+02  0.43539184778E+02  0.89683760208E+02  0.10035869263E+03  0.00000000000E+00 0.  1.
         21    1    1    2  502  501 -0.10566185498E+02  0.51253345783E+02  0.87220988179E+02  0.10171553720E+03  0.00000000000E+00 0.  1.
<scales pt_clust_5="13000.00000" pt_clust_6="13000.00000" pt_clust_7="13000.00000" pt_clust_8="13000.00000" pt_clust_9="52.33115"></scales>
<clustering>
<clus scale="   52.331">  1  9  2 -1</clus>
<clus scale="   89.653">  7  8 -1 -1</clus>
<clus scale="   91.592">  5  6 -1 -1</clus>
<clus scale="  136.305">  1  7  2 -1</clus>
<clus scale="  137.588">  2  5  1 -1</clus>
</clustering>
</event>
<event>
 9    1  0.1612788E-005  0.1003577E+03  0.7546771E-02  0.1280541E+00
         -4   -1    0    0    0  501 -0.00000000000E+00  0.00000000000E+00  0.90882484711E+02  0.90882484711E+02  0.00000000000E+00 0.  1.
          4   -1    0    0  502    0  0.00000000000E+00 -0.00000000000E+00 -0.16220789637E+03  0.16220789637E+03  0.00000000000E+00 0. -1.
         23    2    1    2    0    0 -0.46616082910E+01  0.42200184737E+02  0.15605592225E+02  0.10423208811E+03  0.93905311348E+02 0.  0.
         23    2    1    2    0    0 -0.97139834755E+01 -0.20711287249E+02 -0.72402606106E+02  0.11920184855E+03  0.91889196491E+02 0.  0.
        -11    1    4    4    0    0  0.20833384402E+02  0.15699887758E+02  0.66869380572E+01  0.26930122945E+02  0.00000000000E+00 0. -1.
         11    1    4    4    0    0 -0.30547367878E+02 -0.36411175007E+02 -0.79089544163E+02  0.92271725602E+02  0.00000000000E+00 0.  1.
        -11    1    3    3    0    0 -0.36295710584E+02  0.21233339908E+02  0.40870607873E+02  0.58639917448E+02  0.00000000000E+00 0.  1.
         11    1    3    3    0    0  0.31634102293E+02  0.20966844830E+02 -0.25265015648E+02  0.45592170662E+02  0.00000000000E+00 0. -1.
         21    1    1    2  502  501  0.14375591766E+02 -0.21488897488E+02 -0.14528397780E+02  0.29656444425E+02  0.00000000000E+00 0. -1.
<scales pt_clust_5="13000.00000" pt_clust_6="13000.00000" pt_clust_7="13000.00000" pt_clust_8="13000.00000" pt_clust_9="25.85402"></scales>
<clustering>
<clus scale="   25.854">  2  9  1 -1</clus>
<clus scale="   91.889">  5  6 -1 -1</clus>
<clus scale="   93.905">  7  8 -1 -1</clus>
<clus scale="   98.474">  2  5  1 -1</clus>
<clus scale="   25.854">  2  5  1 -1</clus>
</clustering>
</event>
<event>
 9    1  0.1612788E-005  0.9584949E+02  0.7546771E-02  0.1290917E+00
         -3   -1    0    0    0  501 -0.00000000000E+00  0.00000000000E+00  0.36421884033E+02  0.36421884033E+02  0.00000000000E+00 0.  1.
          3   -1    0    0  502    0  0.00000000000E+00 -0.00000000000E+00 -0.37276808405E+03  0.37276808405E+03  0.00000000000E+00 0. -1.
         23    2    1    2    0    0 -0.11041200639E+02 -0.32950502224E+02 -0.16419403067E+03  0.19221344238E+03  0.93694631744E+02 0.  0.
         23    2    1    2    0    0 -0.48171597580E+01  0.91022758361E+01 -0.16313989336E+03  0.18695242514E+03  0.90722257490E+02 0.  0.
        -13    1    4    4    0    0 -0.36360404385E+02 -0.25501720261E+02 -0.75764496301E+02  0.87821840354E+02  0.00000000000E+00 0.  1.
         13    1    4    4    0    0  0.31543244627E+02  0.34603996097E+02 -0.87375397062E+02  0.99130584782E+02  0.00000000000E+00 0. -1.
        -13    1    3    3    0    0  0.22837781423E+02 -0.47805514680E+02 -0.13520690918E+03  0.14521652724E+03  0.00000000000E+00 0. -1.
         13    1    3    3    0    0 -0.33878982062E+02  0.14855012456E+02 -0.28987121486E+02  0.46996915140E+02  0.00000000000E+00 0.  1.
         21    1    1    2  502  501  0.15858360397E+02  0.23848226388E+02 -0.90122759894E+01  0.30024100567E+02  0.00000000000E+00 0. -1.
<scales pt_clust_5="13000.00000" pt_clust_6="13000.00000" pt_clust_7="13000.00000" pt_clust_8="13000.00000" pt_clust_9="28.63958"></scales>
<clustering>
<clus scale="   28.640">  1  9  2 -1</clus>
<clus scale="   90.722">  5  6 -1 -1</clus>
<clus scale="   92.946">  2  5  1 -1</clus>
<clus scale="   93.695">  7  8 -1 -1</clus>
<clus scale="   92.946">  2  5  1 -1</clus>
</clustering>
</event>
<event>
 9    1  0.1612788E-005  0.1537046E+03  0.7546771E-02  0.1196339E+00
          3   -1    0    0  502    0  0.00000000000E+00  0.00000000000E+00  0.15945521175E+03  0.15945521175E+03  0.00000000000E+00 0. -1.
         -3   -1    0    0    0  501 -0.00000000000E+00 -0.00000000000E+00 -0.18043295835E+03  0.18043295835E+03  0.00000000000E+00 0.  1.
         23    2    1    2    0    0 -0.12960425170E+03  0.25013682701E+02 -0.22902674773E+02  0.16333175564E+03  0.93433310478E+02 0.  0.
         23    2    1    2    0    0  0.10444083181E+03 -0.43195800345E+02 -0.34963962891E+00  0.14542827990E+03  0.91517745976E+02 0.  0.
        -13    1    4    4    0    0  0.36259385186E+01 -0.43977826018E+02  0.53453801141E+01  0.44449631044E+02  0.00000000000E+00 0.  1.
         13    1    4    4    0    0  0.10081489330E+03  0.78202567284E+00 -0.56950197430E+01  0.10097864885E+03  0.00000000000E+00 0. -1.
        -13    1    3    3    0    0 -0.68208690636E+02 -0.33880624120E+02 -0.17113061664E+02  0.78058817878E+02  0.00000000000E+00 0.  1.
         13    1    3    3    0    0 -0.61395561068E+02  0.58894306821E+02 -0.57896131083E+01  0.85272937762E+02  0.00000000000E+00 0. -1.
         21    1    1    2  502  501  0.25163419889E+02  0.18182117644E+02  0.22745678025E+01  0.31128134560E+02  0.00000000000E+00 0. -1.
<scales pt_clust_5="13000.00000" pt_clust_6="13000.00000" pt_clust_7="13000.00000" pt_clust_8="13000.00000" pt_clust_9="31.04492"></scales>
<clustering>
<clus scale="   31.045">  1  9  2 -1</clus>
<clus scale="   91.518">  5  6 -1 -1</clus>
<clus scale="   93.433">  7  8 -1 -1</clus>
<clus scale="  152.548">  1  5  2 -1</clus>
<clus scale="   31.045">  1  5  2 -1</clus>
</clustering>
</event>
<event>
 9    1  0.1612788E-005  0.1584650E+03  0.7546771E-02  0.1191138E+00
         -2   -1    0    0    0  501 -0.00000000000E+00  0.00000000000E+00  0.51363942998E+02  0.51363942998E+02  0.00000000000E+00 0.  1.
          2   -1    0    0  502    0  0.00000000000E+00 -0.00000000000E+00 -0.10055418441E+04  0.10055418441E+04  0.00000000000E+00 0. -1.
         23    2    1    2    0    0  0.11774614576E+03  0.78630611070E+02 -0.22711793132E+03  0.28405335474E+03  0.95167356672E+02 0.  0.
         23    2    1    2    0    0 -0.11597287416E+03 -0.42044782038E+02 -0.71923220279E+03  0.73539657416E+03  0.91080670364E+02 0.  0.
        -11    1    4    4    0    0 -0.52361381879E+02  0.23131006958E+02 -0.19182644275E+03  0.20018526903E+03  0.00000000000E+00 0.  1.
         11    1    4    4    0    0 -0.63611492285E+02 -0.65175788995E+02 -0.52740576004E+03  0.53521130513E+03  0.00000000000E+00 0. -1.
        -13    1    3    3    0    0  0.10644730276E+03  0.29478845755E+02 -0.10702306226E+03  0.15379846055E+03  0.00000000000E+00 0.  1.
         13    1    3    3    0    0  0.11298842998E+02  0.49151765316E+02 -0.12009486906E+03  0.13025489419E+03  0.00000000000E+00 0. -1.
         21    1    1    2  502  501 -0.17732715974E+01 -0.36585829033E+02 -0.78277670106E+01  0.37455858214E+02  0.00000000000E+00 0.  1.
<scales pt_clust_5="13000.00000" pt_clust_6="13000.00000" pt_clust_7="13000.00000" pt_clust_8="13000.00000" pt_clust_9="36.62878"></scales>
<clustering>
<clus scale="   36.629">  1  9  2 -1</clus>
<clus scale="   91.081">  5  6 -1 -1</clus>
<clus scale="   95.167">  7  8 -1 -1</clus>
<clus scale="  156.045">  2  5  1 -1</clus>
<clus scale="  156.045">  2  5  1 -1</clus>
</clustering>
</event>
<event>
 9    1  0.1612788E-005  0.1185189E+03  0.7546771E-02  0.1246786E+00
          1   -1    0    0  502    0  0.00000000000E+00  0.00000000000E+00  0.27872994087E+03  0.27872994087E+03  0.00000000000E+00 0. -1.
         -1   -1    0    0    0  501 -0.00000000000E+00 -0.00000000000E+00 -0.22532734599E+03  0.22532734599E+03  0.00000000000E+00 0.  1.
         23    2    1    2    0    0  0.11028671112E+01  0.67439043689E+02 -0.14134764906E+03  0.18474695832E+03  0.97995100818E+02 0.  0.
         23    2    1    2    0    0 -0.21912152733E+02 -0.63156289249E+02  0.24158579841E+03  0.26788137254E+03  0.94487419528E+02 0.  0.
        -11    1    3    3    0    0 -0.42470938416E+02  0.44763133687E+02 -0.11102674469E+03  0.12702148159E+03  0.00000000000E+00 0.  1.
         11    1    3    3    0    0  0.43573805528E+02  0.22675910002E+02 -0.30320904370E+02  0.57725476736E+02  0.00000000000E+00 0. -1.
        -13    1    4    4    0    0 -0.48929017061E+02 -0.52647445954E+02  0.22081970852E+03  0.23222219090E+03  0.00000000000E+00 0. -1.
         13    1    4    4    0    0  0.27016864328E+02 -0.10508843294E+02  0.20766089891E+02  0.35659181635E+02  0.00000000000E+00 0.  1.
         21    1    1    2  502  501  0.20809285621E+02 -0.42827544407E+01 -0.46835554464E+02  0.51428956004E+02  0.00000000000E+00 0. -1.
<scales pt_clust_5="13000.00000" pt_clust_6="13000.00000" pt_clust_7="13000.00000" pt_clust_8="13000.00000" pt_clust_9="21.24543"></scales>
<clustering>
<clus scale="   21.245">  2  9  1 -1</clus>
<clus scale="   94.487">  7  8 -1 -1</clus>
<clus scale="   97.995">  5  6 -1 -1</clus>
<clus scale="  115.635">  1  7  2 -1</clus>
<clus scale="  115.635">  1  5  2 -1</clus>
</clustering>
</event>
<event>
 9    1  0.1612788E-005  0.3628583E+03  0.7546771E-02  0.1057514E+00
          1   -1    0    0  502    0  0.00000000000E+00  0.00000000000E+00  0.47997450194E+03  0.47997450194E+03  0.00000000000E+00 0. -1.
         -1   -1    0    0    0  501 -0.00000000000E+00 -0.00000000000E+00 -0.34082159283E+03  0.34082159283E+03  0.00000000000E+00 0.  1.
         23    2    1    2    0    0  0.17545641166E+03  0.32075828052E+03  0.10766793703E+03  0.39128827599E+03  0.88562426277E+02 0.  0.
         23    2    1    2    0    0 -0.16520371353E+03 -0.29590420926E+03  0.93458661855E+02  0.36195353763E+03  0.86164226364E+02 0.  0.
        -13    1    4    4    0    0 -0.11449139319E+03 -0.16531426067E+03  0.93732626594E+02  0.22186232033E+03  0.00000000000E+00 0. -1.
         13    1    4    4    0    0 -0.50712320345E+02 -0.13058994859E+03 -0.27396473888E+00  0.14009121730E+03  0.00000000000E+00 0.  1.
        -13    1    3    3    0    0  0.14228033956E+03  0.16936885887E+03  0.62761097621E+02  0.22993142620E+03  0.00000000000E+00 0.  1.
         13    1    3    3    0    0  0.33176072096E+02  0.15138942165E+03  0.44906839408E+02  0.16135684979E+03  0.00000000000E+00 0. -1.
         21    1    1    2  502  501 -0.10252698126E+02 -0.24854071263E+02 -0.61973689779E+02  0.67554281153E+02  0.00000000000E+00 0. -1.
<scales pt_clust_5="13000.00000" pt_clust_6="13000.00000" pt_clust_7="13000.00000" pt_clust_8="13000.00000" pt_clust_9="26.88573"></scales>
<clustering>
<clus scale="   26.886">  2  9  1 -1</clus>
<clus scale="   86.164">  5  6 -1 -1</clus>
<clus scale="   88.562">  7  8 -1 -1</clus>
<clus scale="  362.280">  1  5  2 -1</clus>
<clus scale="  362.280">  1  5  2 -1</clus>
</clustering>
</event>
<event>
 9    1  0.1612788E-005  0.1831936E+03  0.7546771E-02  0.1164986E+00
          2   -1    0    0  502    0  0.00000000000E+00  0.00000000000E+00  0.66032943699E+03  0.66032943699E+03  0.00000000000E+00 0. -1.
         -2   -1    0    0    0  501 -0.00000000000E+00 -0.00000000000E+00 -0.79411977318E+02  0.79411977318E+02  0.00000000000E+00 0.  1.
         23    2    1    2    0    0 -0.13439215044E+03 -0.45034148399E+02  0.22193356684E+03  0.27914240487E+03  0.92610201831E+02 0.  0.
         23    2    1    2    0    0  0.17848084335E+03 -0.44695036607E+01  0.33467797684E+03  0.38999304679E+03  0.90608169912E+02 0.  0.
        -11    1    4    4    0    0  0.15337974177E+03  0.22409099348E+02  0.30717539870E+03  0.34407010694E+03  0.00000000000E+00 0. -1.
         11    1    4    4    0    0  0.25101101584E+02 -0.26878603008E+02  0.27502578132E+02  0.45922939848E+02  0.00000000000E+00 0.  1.
        -11    1    3    3    0    0 -0.50537851478E+02 -0.57017706563E+02  0.14905712451E+03  0.16740107425E+03  0.00000000000E+00 0. -1.
         11    1    3    3    0    0 -0.83854298966E+02  0.11983558164E+02  0.72876442327E+02  0.11174133061E+03  0.00000000000E+00 0.  1.
         21    1    1    2  502  501 -0.44088692910E+02  0.49503652060E+02  0.24305915998E+02  0.70605962654E+02  0.00000000000E+00 0.  1.
<scales pt_clust_5="13000.00000" pt_clust_6="13000.00000" pt_clust_7="13000.00000" pt_clust_8="13000.00000" pt_clust_9="66.29045"></scales>
<clustering>
<clus scale="   66.290">  2  9  1 -1</clus>
<clus scale="   90.608">  5  6 -1 -1</clus>
<clus scale="   92.610">  7  8 -1 -1</clus>
<clus scale="  182.190">  1  5  2 -1</clus>
<clus scale="  182.190">  1  5  2 -1</clus>
</clustering>
</event>
<event>
 9    1  0.1612788E-005  0.1017903E+03  0.7546771E-02  0.1277258E+00
          4   -1    0    0  502    0  0.00000000000E+00  0.00000000000E+00  0.37070074319E+03  0.37070074319E+03  0.00000000000E+00 0. -1.
         -4   -1    0    0    0  501 -0.00000000000E+00 -0.00000000000E+00 -0.71144650086E+02  0.71144650086E+02  0.00000000000E+00 0.  1.
         23    2    1    2    0    0  0.42945856834E+02 -0.77471232226E+02  0.88895355180E+02  0.15530884263E+03  0.91500349638E+02 0.  0.
         23    2    1    2    0    0  0.20940792656E+02  0.26691733358E+02  0.16666714836E+03  0.19382464521E+03  0.92946701494E+02 0.  0.
        -11    1    4    4    0    0 -0.46295614524E+01  0.33922138245E+02  0.11080407214E+02  0.35984993072E+02  0.00000000000E+00 0. -1.
         11    1    4    4    0    0  0.25570354109E+02 -0.72304048870E+01  0.15558674115E+03  0.15783965213E+03  0.00000000000E+00 0.  1.
        -13    1    3    3    0    0 -0.18822398505E+02 -0.35484344099E+02  0.65873017511E+02  0.77153585773E+02  0.00000000000E+00 0. -1.
         13    1    3    3    0    0  0.61768255339E+02 -0.41986888127E+02  0.23022337669E+02  0.78155256854E+02  0.00000000000E+00 0.  1.
         21    1    1    2  502  501 -0.63886649490E+02  0.50779498868E+02  0.43993589558E+02  0.92711905441E+02  0.00000000000E+00 0.  1.
<scales pt_clust_5="13000.00000" pt_clust_6="13000.00000" pt_clust_7="13000.00000" pt_clust_8="13000.00000" pt_clust_9="81.60920"></scales>
<clustering>
<clus scale="   81.609">  2  9  1 -1</clus>
<clus scale="   91.500">  7  8 -1 -1</clus>
<clus scale="   92.947">  5  6 -1 -1</clus>
<clus scale="  100.471">  2  7  1 -1</clus>
<clus scale="  101.790">  1  5  2 -1</clus>
</clustering>
</event>
<event>
 9    1  0.1612788E-005  0.1903796E+03  0.7546771E-02  0.1159079E+00
         -1   -1    0    0    0  501 -0.00000000000E+00  0.00000000000E+00  0.27446317174E+03  0.27446317174E+03  0.00000000000E+00 0.  1.
          1   -1    0    0  502    0  0.00000000000E+00 -0.00000000000E+00 -0.58545391758E+03  0.58545391758E+03  0.00000000000E+00 0. -1.
         23    2    1    2    0    0  0.13786038990E+03 -0.22073374542E+02  0.67790094191E+02  0.17542860025E+03  0.81773931966E+02 0.  0.
         23    2    1    2    0    0 -0.16489443280E+03  0.46805141693E+02 -0.51135899574E+03  0.54694043509E+03  0.90966596889E+02 0.  0.
        -11    1    3    3    0    0  0.64602398259E+02 -0.52087433950E+01 -0.11879133296E+02  0.65891688979E+02  0.00000000000E+00 0. -1.
         11    1    3    3    0    0  0.73257991637E+02 -0.16864631147E+02  0.79669227487E+02  0.10953691127E+03  0.00000000000E+00 0.  1.
        -13    1    4    4    0    0 -0.51782167411E+02  0.59089844018E+02 -0.17412247441E+03  0.19102784777E+03  0.00000000000E+00 0.  1.
         13    1    4    4    0    0 -0.11311226539E+03 -0.12284702325E+02 -0.33723652133E+03  0.35591258732E+03  0.00000000000E+00 0. -1.
         21    1    1    2  502  501  0.27034042907E+02 -0.24731767151E+02  0.13257815571E+03  0.13754805398E+03  0.00000000000E+00 0.  1.
<scales pt_clust_5="13000.00000" pt_clust_6="13000.00000" pt_clust_7="13000.00000" pt_clust_8="13000.00000" pt_clust_9="36.64014"></scales>
<clustering>
<clus scale="   36.640">  1  9  2 -1</clus>
<clus scale="   81.774">  5  6 -1 -1</clus>
<clus scale="   90.967">  7  8 -1 -1</clus>
<clus scale="  186.162">  1  5  2 -1</clus>
<clus scale="  190.380">  2  5  1 -1</clus>
</clustering>
</event>
<event>
 9    1  0.1612788E-005  0.1012577E+03  0.7546771E-02  0.1278662E+00
          1   -1    0    0  502    0  0.00000000000E+00  0.00000000000E+00  0.29600893959E+03  0.29600893959E+03  0.00000000000E+00 0. -1.
         -1   -1    0    0    0  501 -0.00000000000E+00 -0.00000000000E+00 -0.62975461930E+02  0.62975461930E+02  0.00000000000E+00 0.  1.
         23    2    1    2    0    0  0.16593317060E+02  0.59727281253E+01  0.16157913375E+02  0.92445328933E+02  0.89297530898E+02 0.  0.
         23    2    1    2    0    0 -0.32619447389E+02 -0.42781286503E+02  0.19190282351E+03  0.21925964149E+03  0.91399288253E+02 0.  0.
        -13    1    3    3    0    0  0.37925237014E+02 -0.28757796190E+02  0.19746274837E+02  0.51529116179E+02  0.00000000000E+00 0.  1.
         13    1    3    3    0    0 -0.21331919954E+02  0.34730524315E+02 -0.35883614616E+01  0.40916212754E+02  0.00000000000E+00 0. -1.
        -13    1    4    4    0    0 -0.31041363580E+00 -0.60762819189E+02  0.74310481506E+02  0.95990959023E+02  0.00000000000E+00 0.  1.
         13    1    4    4    0    0 -0.32309033753E+02  0.17981532686E+02  0.11759234200E+03  0.12326868246E+03  0.00000000000E+00 0. -1.
         21    1    1    2  502  501  0.16026130329E+02  0.36808558378E+02  0.24972740780E+02  0.47279431101E+02  0.00000000000E+00 0. -1.
<scales pt_clust_5="13000.00000" pt_clust_6="13000.00000" pt_clust_7="13000.00000" pt_clust_8="13000.00000" pt_clust_9="40.14607"></scales>
<clustering>
<clus scale="   40.146">  2  9  1 -1</clus>
<clus scale="   89.298">  5  6 -1 -1</clus>
<clus scale="   91.399">  7  8 -1 -1</clus>
<clus scale="   99.365">  2  5  1 -1</clus>
<clus scale="  101.258">  1  5  2 -1</clus>
</clustering>
</event>
<event>
 9    1  0.1612788E-005  0.1189109E+03  0.7546771E-02  0.1245257E+00
          1   -1    0    0  502    0  0.00000000000E+00  0.00000000000E+00  0.39374159977E+03  0.39374159977E+03  0.00000000000E+00 0. -1.
         -1   -1    0    0    0  501 -0.00000000000E+00 -0.00000000000E+00 -0.73389976221E+02  0.73389976221E+02  0.00000000000E+00 0.  1.
         23    2    1    2    0    0  0.33729510649E+02 -0.66148405863E+02  0.29014491440E+02  0.12065447918E+03  0.90566942898E+02 0.  0.
         23    2    1    2    0    0  0.87566340353E+01  0.80075620346E+02  0.27260230850E+03  0.29799995365E+03  0.89460439094E+02 0.  0.
        -13    1    3    3    0    0  0.45816717689E+02 -0.83921330504E+02  0.23191450760E+02  0.98385998606E+02  0.00000000000E+00 0.  1.
         13    1    3    3    0    0 -0.12087207040E+02  0.17772924641E+02  0.58230406795E+01  0.22268480574E+02  0.00000000000E+00 0. -1.
        -13    1    4    4    0    0 -0.84281415113E+01  0.91903448852E+02  0.25325910477E+03  0.26955046212E+03  0.00000000000E+00 0. -1.
         13    1    4    4    0    0  0.17184775547E+02 -0.11827828506E+02  0.19343203725E+02  0.28449491526E+02  0.00000000000E+00 0.  1.
         21    1    1    2  502  501 -0.42486144684E+02 -0.13927214483E+02  0.18734823611E+02  0.48477143162E+02  0.00000000000E+00 0. -1.
<scales pt_clust_5="13000.00000" pt_clust_6="13000.00000" pt_clust_7="13000.00000" pt_clust_8="13000.00000" pt_clust_9="44.71062"></scales>
<clustering>
<clus scale="   44.711">  2  9  1 -1</clus>
<clus scale="   89.460">  7  8 -1 -1</clus>
<clus scale="   90.567">  5  6 -1 -1</clus>
<clus scale="  118.070">  1  7  2 -1</clus>
<clus scale="  118.070">  1  5  2 -1</clus>
</clustering>
</event>
<event>
 9    1  0.1612788E-005  0.1144180E+03  0.7546771E-02  0.1252901E+00
         -1   -1    0    0    0  501 -0.00000000000E+00  0.00000000000E+00  0.82252122582E+02  0.82252122582E+02  0.00000000000E+00 0.  1.
          1   -1    0    0  502    0  0.00000000000E+00 -0.00000000000E+00 -0.42221568627E+03  0.42221568627E+03  0.00000000000E+00 0. -1.
         23    2    1    2    0    0  0.53036029327E+02  0.57062852691E+02 -0.29102083830E+01  0.12033842764E+03  0.91672669264E+02 0.  0.
         23    2    1    2    0    0 -0.43177861223E+02 -0.27558422354E+02 -0.98112106877E+02  0.14317167727E+03  0.90820423443E+02 0.  0.
        -11    1    3    3    0    0  0.62672421763E+02  0.28488712939E+00  0.38479861900E-01  0.62673081071E+02  0.00000000000E+00 0.  1.
         11    1    3    3    0    0 -0.96363924353E+01  0.56777965562E+02 -0.29486882449E+01  0.57665346569E+02  0.00000000000E+00 0. -1.
        -13    1    4    4    0    0 -0.30849142867E+01 -0.43390592957E+02 -0.93460006336E+01  0.44492785720E+02  0.00000000000E+00 0.  1.
         13    1    4    4    0    0 -0.40092946936E+02  0.15832170603E+02 -0.88766106244E+02  0.98678891551E+02  0.00000000000E+00 0. -1.
         21    1    1    2  502  501 -0.98581681046E+01 -0.29504430337E+02 -0.23894124843E+03  0.24095770394E+03  0.00000000000E+00 0. -1.
<scales pt_clust_5="13000.00000" pt_clust_6="13000.00000" pt_clust_7="13000.00000" pt_clust_8="13000.00000" pt_clust_9="31.10779"></scales>
<clustering>
<clus scale="   31.108">  2  9  1 -1</clus>
<clus scale="   90.820">  7  8 -1 -1</clus>
<clus scale="   91.673">  5  6 -1 -1</clus>
<clus scale="  113.736">  2  7  1 -1</clus>
<clus scale="   31.108">  2  5  1 -1</clus>
</clustering>
</event>
<event>
 9    1  0.1612788E-005  0.1146406E+03  0.7546771E-02  0.1252683E+00
         -2   -1    0    0    0  501 -0.00000000000E+00  0.00000000000E+00  0.13841895029E+03  0.13841895029E+03  0.00000000000E+00 0.  1.
          2   -1    0    0  502    0  0.00000000000E+00 -0.00000000000E+00 -0.39170673557E+03  0.39170673557E+03  0.00000000000E+00 0. -1.
         23    2    1    2    0    0  0.51306196879E+02  0.60943352505E+02  0.55021017845E+02  0.13022495165E+03  0.87090800752E+02 0.  0.
         23    2    1    2    0    0 -0.28483666447E+02 -0.66688559969E+02 -0.34096536560E+03  0.35964745636E+03  0.88488581424E+02 0.  0.
        -11    1    3    3    0    0  0.17279534398E+02 -0.21990851733E+02  0.85072519182E+01  0.29232741988E+02  0.00000000000E+00 0. -1.
         11    1    3    3    0    0  0.34026662481E+02  0.82934204239E+02  0.46513765927E+02  0.10099220966E+03  0.00000000000E+00 0.  1.
        -13    1    4    4    0    0 -0.56511101303E+02 -0.65204644725E+02 -0.26198637494E+03  0.27582967737E+03  0.00000000000E+00 0. -1.
         13    1    4    4    0    0  0.28027434856E+02 -0.14839152437E+01 -0.78978990660E+02  0.83817778989E+02  0.00000000000E+00 0.  1.
         21    1    1    2  502  501 -0.22822530432E+02  0.57452074633E+01  0.32656562475E+02  0.40253277839E+02  0.00000000000E+00 0.  1.
<scales pt_clust_5="13000.00000" pt_clust_6="13000.00000" pt_clust_7="13000.00000" pt_clust_8="13000.00000" pt_clust_9="23.53456"></scales>
<clustering>
<clus scale="   23.535">  1  9  2 -1</clus>
<clus scale="   87.091">  5  6 -1 -1</clus>
<clus scale="   88.489">  7  8 -1 -1</clus>
<clus scale="  113.565">  1  5  2 -1</clus>
<clus scale="  114.641">  2  5  1 -1</clus>
</clustering>
</event>
<event>
 9    1  0.1612788E-005  0.1217081E+03  0.7546771E-02  0.1241777E+00
          2   -1    0    0  502    0  0.00000000000E+00  0.00000000000E+00  0.52435191862E+03  0.52435191862E+03  0.00000000000E+00 0. -1.
         -2   -1    0    0    0  501 -0.00000000000E+00 -0.00000000000E+00 -0.41597481561E+02  0.41597481561E+02  0.00000000000E+00 0.  1.
         23    2    1    2    0    0 -0.51698461288E+02 -0.37458670882E+02  0.11231885248E+03  0.15785100189E+03  0.90694714579E+02 0.  0.
         23    2    1    2    0    0  0.83058969331E+02  0.15106465120E+02  0.32173369266E+03  0.34600993846E+03  0.95306405064E+02 0.  0.
        -11    1    4    4    0    0  0.58511781668E+02 -0.30043115098E+02  0.11031852262E+03  0.12843828787E+03  0.00000000000E+00 0.  1.
         11    1    4    4    0    0  0.24547187663E+02  0.45149580218E+02  0.21141517005E+03  0.21757165059E+03  0.00000000000E+00 0. -1.
        -13    1    3    3    0    0 -0.62573789665E+02  0.44982122245E+01  0.88240209679E+02  0.10826840569E+03  0.00000000000E+00 0.  1.
         13    1    3    3    0    0  0.10875328376E+02 -0.41956883107E+02  0.24078642802E+02  0.49582596206E+02  0.00000000000E+00 0. -1.
         21    1    1    2  502  501 -0.31360508043E+02  0.22352205762E+02  0.48701891913E+02  0.62088459821E+02  0.00000000000E+00 0. -1.
<scales pt_clust_5="13000.00000" pt_clust_6="13000.00000" pt_clust_7="13000.00000" pt_clust_8="13000.00000" pt_clust_9="38.51107"></scales>
<clustering>
<clus scale="   38.511">  2  9  1 -1</clus>
<clus scale="   90.695">  7  8 -1 -1</clus>
<clus scale="   95.306">  5  6 -1 -1</clus>
<clus scale="  118.132">  2  7  1 -1</clus>
<clus scale="  121.708">  1  5  2 -1</clus>
</clustering>
</event>
<event>
 9    1  0.1612788E-005  0.1216959E+03  0.7546771E-02  0.1240586E+00
         -1   -1    0    0    0  501 -0.00000000000E+00  0.00000000000E+00  0.19059705381E+03  0.19059705381E+03  0.00000000000E+00 0.  1.
          1   -1    0    0  502    0  0.00000000000E+00 -0.00000000000E+00 -0.13134366973E+03  0.13134366973E+03  0.00000000000E+00 0. -1.
         23    2    1    2    0    0 -0.86155615675E+02 -0.14022549908E+02  0.53477074387E+02  0.13627576363E+03  0.89954790039E+02 0.  0.
         23    2    1    2    0    0  0.79822403131E+02 -0.14333378692E+02 -0.43814243000E+02  0.12818982455E+03  0.89083564376E+02 0.  0.
        -13    1    4    4    0    0  0.45971463211E+01 -0.23302368424E+02 -0.46682626443E+02  0.52377492687E+02  0.00000000000E+00 0.  1.
         13    1    4    4    0    0  0.75225256810E+02  0.89689897317E+01  0.28683834430E+01  0.75812331863E+02  0.00000000000E+00 0. -1.
        -13    1    3    3    0    0 -0.52709199511E+02 -0.40882243736E+01  0.77571688575E+02  0.93874065428E+02  0.00000000000E+00 0.  1.
         13    1    3    3    0    0 -0.33446416164E+02 -0.99343255346E+01 -0.24094614187E+02  0.42401698207E+02  0.00000000000E+00 0. -1.
         21    1    1    2  502  501  0.63332125437E+01  0.28355928601E+02  0.49590552694E+02  0.57475135358E+02  0.00000000000E+00 0.  1.
<scales pt_clust_5="13000.00000" pt_clust_6="13000.00000" pt_clust_7="13000.00000" pt_clust_8="13000.00000" pt_clust_9="29.05457"></scales>
<clustering>
<clus scale="   29.055">  1  9  2 -1</clus>
<clus scale="   89.084">  5  6 -1 -1</clus>
<clus scale="   89.955">  7  8 -1 -1</clus>
<clus scale="  121.053">  2  5  1 -1</clus>
<clus scale="  121.053">  2  5  1 -1</clus>
</clustering>
</event>
<event>
 9    1  0.1612788E-005  0.1083152E+03  0.7546771E-02  0.1265619E+00
         -1   -1    0    0    0  501 -0.00000000000E+00  0.00000000000E+00  0.72834391029E+03  0.72834391029E+03  0.00000000000E+00 0.  1.
          1   -1    0    0  502    0  0.00000000000E+00 -0.00000000000E+00 -0.53943598278E+02  0.53943598278E+02  0.00000000000E+00 0. -1.
         23    2    1    2    0    0 -0.34417592935E+02 -0.68861624073E+02  0.41061224937E+03  0.42744756168E+03  0.90457198055E+02 0.  0.
         23    2    1    2    0    0 -0.61841915026E+02  0.19199831216E+02  0.65934049169E+02  0.12927754490E+03  0.90400933640E+02 0.  0.
        -11    1    3    3    0    0  0.23179910244E+02 -0.52676131498E+02  0.16867949761E+03  0.17822697883E+03  0.00000000000E+00 0.  1.
         11    1    3    3    0    0 -0.57597503179E+02 -0.16185492575E+02  0.24193275176E+03  0.24922058285E+03  0.00000000000E+00 0. -1.
        -11    1    4    4    0    0  0.18690106778E+02  0.80105807066E+01  0.38372542910E+02  0.43427428476E+02  0.00000000000E+00 0.  1.
         11    1    4    4    0    0 -0.80532021805E+02  0.11189250510E+02  0.27561506259E+02  0.85850116425E+02  0.00000000000E+00 0. -1.
         21    1    1    2  502  501  0.96259507961E+02  0.49661792856E+02  0.19785401347E+03  0.22556240198E+03  0.00000000000E+00 0.  1.
<scales pt_clust_5="13000.00000" pt_clust_6="13000.00000" pt_clust_7="13000.00000" pt_clust_8="13000.00000" pt_clust_9="108.31522"></scales>
<clustering>
<clus scale="   90.401">  7  8 -1 -1</clus>
<clus scale="   90.457">  5  6 -1 -1</clus>
<clus scale="  108.315">  1  9  2 -1</clus>
<clus scale="  104.380">  2  7  1 -1</clus>
<clus scale="  104.380">  2  5  1 -1</clus>
</clustering>
</event>
<event>
 9    1  0.1612788E-005  0.1021784E+03  0.7546771E-02  0.1275892E+00
         -1   -1    0    0    0  501 -0.00000000000E+00  0.00000000000E+00  0.84375636072E+03  0.84375636072E+03  0.00000000000E+00 0.  1.
          1   -1    0    0  502    0  0.00000000000E+00 -0.00000000000E+00 -0.18844871272E+02  0.18844871272E+02  0.00000000000E+00 0. -1.
         23    2    1    2    0    0 -0.66793828291E+02  0.40985532508E+01  0.44269988178E+03  0.45682463722E+03  0.90704741911E+02 0.  0.
         23    2    1    2    0    0  0.26030802546E+02  0.93646836084E+00  0.28820077449E+03  0.30318511137E+03  0.90460188430E+02 0.  0.
        -11    1    3    3    0    0 -0.67183197092E+02  0.38042051321E+02  0.34016959034E+03  0.34882105703E+03  0.00000000000E+00 0. -1.
         11    1    3    3    0    0  0.38936880094E+00 -0.33943498070E+02  0.10253029144E+03  0.10800358019E+03  0.00000000000E+00 0.  1.
        -13    1    4    4    0    0  0.56763709471E+02  0.16432191859E+02  0.16482155364E+03  0.17509506042E+03  0.00000000000E+00 0. -1.
         13    1    4    4    0    0 -0.30732906925E+02 -0.15495723498E+02  0.12337922085E+03  0.12809005095E+03  0.00000000000E+00 0.  1.
         21    1    1    2  502  501  0.40763025745E+02 -0.50350216116E+01  0.94010833181E+02  0.10259148340E+03  0.00000000000E+00 0. -1.
<scales pt_clust_5="13000.00000" pt_clust_6="13000.00000" pt_clust_7="13000.00000" pt_clust_8="13000.00000" pt_clust_9="41.07281"></scales>
<clustering>
<clus scale="   41.073">  2  9  1 -1</clus>
<clus scale="   90.460">  7  8 -1 -1</clus>
<clus scale="   90.705">  5  6 -1 -1</clus>
<clus scale="  101.961">  2  7  1 -1</clus>
<clus scale="   41.073">  2  5  1 -1</clus>
</clustering>
</event>
<event>
 9    1  0.1612788E-005  0.1320136E+03  0.7546771E-02  0.1224865E+00
         -3   -1    0    0    0  501 -0.00000000000E+00  0.00000000000E+00  0.55427686394E+03  0.55427686394E+03  0.00000000000E+00 0.  1.
          3   -1    0    0  502    0  0.00000000000E+00 -0.00000000000E+00 -0.81212942551E+02  0.81212942551E+02  0.00000000000E+00 0. -1.
         23    2    1    2    0    0 -0.22796937068E+01  0.82369206088E+02  0.28169784776E+03  0.30676616518E+03  0.89229589007E+02 0.  0.
         23    2    1    2    0    0  0.31157665236E+02 -0.96392663639E+02 -0.67720545873E+00  0.13401561465E+03  0.87734717511E+02 0.  0.
        -11    1    4    4    0    0  0.56427745131E+02 -0.89251066035E+02 -0.10195665233E+02  0.10608390452E+03  0.00000000000E+00 0.  1.
         11    1    4    4    0    0 -0.25270079896E+02 -0.71415976036E+01  0.95184597744E+01  0.27931710129E+02  0.00000000000E+00 0. -1.
        -13    1    3    3    0    0  0.17217234937E+02  0.13659239528E+02  0.71972019305E+01  0.23125910122E+02  0.00000000000E+00 0. -1.
         13    1    3    3    0    0 -0.19496928643E+02  0.68709966560E+02  0.27450064583E+03  0.28364025506E+03  0.00000000000E+00 0.  1.
         21    1    1    2  502  501 -0.28877971529E+02  0.14023457551E+02  0.19204327909E+03  0.19470802666E+03  0.00000000000E+00 0. -1.
<scales pt_clust_5="13000.00000" pt_clust_6="13000.00000" pt_clust_7="13000.00000" pt_clust_8="13000.00000" pt_clust_9="32.10288"></scales>
<clustering>
<clus scale="   32.103">  1  9  2 -1</clus>
<clus scale="   87.735">  5  6 -1 -1</clus>
<clus scale="   89.230">  7  8 -1 -1</clus>
<clus scale="  131.008">  2  5  1 -1</clus>
<clus scale="  131.008">  2  5  1 -1</clus>
</clustering>
</event>
<event>
 9    1  0.1612788E-005  0.1242046E+03  0.7546771E-02  0.1236573E+00
         -2   -1    0    0    0  501 -0.00000000000E+00  0.00000000000E+00  0.27892479980E+03  0.27892479980E+03  0.00000000000E+00 0.  1.
          2   -1    0    0  502    0  0.00000000000E+00 -0.00000000000E+00 -0.35392235280E+03  0.35392235280E+03  0.00000000000E+00 0. -1.
         23    2    1    2    0    0  0.83938284630E+02 -0.88728528360E+01  0.24858738391E+03  0.27817633500E+03  0.91989253554E+02 0.  0.
         23    2    1    2    0    0 -0.46961365227E+02 -0.31043869336E-01 -0.26631239122E+03  0.28591969809E+03  0.92856950451E+02 0.  0.
        -11    1    4    4    0    0  0.80617196148E+01 -0.33084796861E+02 -0.51643979205E+02  0.61860291744E+02  0.00000000000E+00 0.  1.
         11    1    4    4    0    0 -0.55023084841E+02  0.33053752991E+02 -0.21466841202E+03  0.22405940634E+03  0.00000000000E+00 0. -1.
        -11    1    3    3    0    0  0.83365302273E+02 -0.36838998342E+02  0.14836527881E+03  0.17412392534E+03  0.00000000000E+00 0.  1.
         11    1    3    3    0    0  0.57298235689E+00  0.27966145506E+02  0.10022210511E+03  0.10405240966E+03  0.00000000000E+00 0. -1.
         21    1    1    2  502  501 -0.36976919403E+02  0.89038967054E+01 -0.57272545682E+02  0.68751119511E+02  0.00000000000E+00 0. -1.
<scales pt_clust_5="13000.00000" pt_clust_6="13000.00000" pt_clust_7="13000.00000" pt_clust_8="13000.00000" pt_clust_9="38.03383"></scales>
<clustering>
<clus scale="   38.034">  2  9  1 -1</clus>
<clus scale="   91.989">  7  8 -1 -1</clus>
<clus scale="   92.857">  5  6 -1 -1</clus>
<clus scale="  123.557">  1  7  2 -1</clus>
<clus scale="   38.034">  2  5  1 -1</clus>
</clustering>
</event>
<event>
 9    1  0.1612788E-005  0.1223651E+03  0.7546771E-02  0.1240404E+00
         -2   -1    0    0    0  501 -0.00000000000E+00  0.00000000000E+00  0.10823831868E+03  0.10823831868E+03  0.00000000000E+00 0.  1.
          2   -1    0    0  502    0  0.00000000000E+00 -0.00000000000E+00 -0.26465086369E+03  0.26465086369E+03  0.00000000000E+00 0. -1.
         23    2    1    2    0    0 -0.49319467317E+01 -0.57788373899E+02 -0.97682797518E+01  0.10907041343E+03  0.91853772597E+02 0.  0.
         23    2    1    2    0    0 -0.10512509998E+02  0.89928873469E+02 -0.17669826630E+03  0.21718416874E+03  0.88028238014E+02 0.  0.
        -13    1    3    3    0    0  0.39811548981E+02 -0.29318674381E+02 -0.22820590684E+02  0.54454783618E+02  0.00000000000E+00 0.  1.
         13    1    3    3    0    0 -0.44743495712E+02 -0.28469699518E+02  0.13052310932E+02  0.54615629813E+02  0.00000000000E+00 0. -1.
        -13    1    4    4    0    0  0.21162858830E+02 -0.36129819234E+01 -0.63132285119E+02  0.66682873788E+02  0.00000000000E+00 0.  1.
         13    1    4    4    0    0 -0.31675368828E+02  0.93541855392E+02 -0.11356598118E+03  0.15050129495E+03  0.00000000000E+00 0. -1.
         21    1    1    2  502  501  0.15444456730E+02 -0.32140499570E+02  0.30054001049E+02  0.46634600195E+02  0.00000000000E+00 0. -1.
<scales pt_clust_5="13000.00000" pt_clust_6="13000.00000" pt_clust_7="13000.00000" pt_clust_8="13000.00000" pt_clust_9="35.65870"></scales>
<clustering>
<clus scale="   35.659">  1  9  2 -1</clus>
<clus scale="   88.028">  7  8 -1 -1</clus>
<clus scale="   91.854">  5  6 -1 -1</clus>
<clus scale="  119.520">  2  7  1 -1</clus>
<clus scale="  119.520">  2  5  1 -1</clus>
</clustering>
</event>
<event>
 9    1  0.1612788E-005  0.9449372E+02  0.7546771E-02  0.1292597E+00
         -2   -1    0    0    0  501 -0.00000000000E+00  0.00000000000E+00  0.30497327118E+02  0.30497327118E+02  0.00000000000E+00 0.  1.
          2   -1    0    0  502    0  0.00000000000E+00 -0.00000000000E+00 -0.59104902586E+03  0.59104902586E+03  0.00000000000E+00 0. -1.
         23    2    1    2    0    0  0.11376297627E+02  0.41812861145E+02 -0.10258176709E+03  0.14108378120E+03  0.86624932180E+02 0.  0.
         23    2    1    2    0    0 -0.30141320917E+02 -0.23290805847E+02 -0.43627718202E+03  0.44631922662E+03  0.86093621344E+02 0.  0.
        -11    1    4    4    0    0 -0.14508662422E+02 -0.55758129584E+02 -0.29010738085E+03  0.29577316093E+03  0.00000000000E+00 0. -1.
         11    1    4    4    0    0 -0.15632658495E+02  0.32467323737E+02 -0.14616980116E+03  0.15054606569E+03  0.00000000000E+00 0.  1.
        -13    1    3    3    0    0  0.44450577540E+02  0.18430251905E+02 -0.26606885668E+02  0.54985947240E+02  0.00000000000E+00 0.  1.
         13    1    3    3    0    0 -0.33074279913E+02  0.23382609240E+02 -0.75974881417E+02  0.86097833962E+02  0.00000000000E+00 0. -1.
         21    1    1    2  502  501  0.18765023290E+02 -0.18522055298E+02 -0.21692749638E+02  0.34143345156E+02  0.00000000000E+00 0.  1.
<scales pt_clust_5="13000.00000" pt_clust_6="13000.00000" pt_clust_7="13000.00000" pt_clust_8="13000.00000" pt_clust_9="26.36651"></scales>
<clustering>
<clus scale="   26.367">  1  9  2 -1</clus>
<clus scale="   86.094">  5  6 -1 -1</clus>
<clus scale="   86.625">  7  8 -1 -1</clus>
<clus scale="   94.007">  2  5  1 -1</clus>
<clus scale="   94.007">  2  5  1 -1</clus>
</clustering>
</event>
<event>
 9    1  0.1612788E-005  0.1065590E+03  0.7546771E-02  0.1267310E+00
          1   -1    0    0  502    0  0.00000000000E+00  0.00000000000E+00  0.21011756299E+03  0.21011756299E+03  0.00000000000E+00 0. -1.
         -1   -1    0    0    0  501 -0.00000000000E+00 -0.00000000000E+00 -0.26452038772E+03  0.26452038772E+03  0.00000000000E+00 0.  1.
         23    2    1    2    0    0  0.37480336493E+02  0.91301772013E+02 -0.17224876466E+03  0.21804604471E+03  0.90186758948E+02 0.  0.
         23    2    1    2    0    0 -0.13627032854E+02 -0.51749350309E+02  0.16198521414E+03  0.19270411620E+03  0.89621289431E+02 0.  0.
        -11    1    3    3    0    0  0.21721336611E+02  0.14727068407E+02  0.27414087579E+01  0.26385949481E+02  0.00000000000E+00 0. -1.
         11    1    3    3    0    0  0.15758999882E+02  0.76574703606E+02 -0.17499017342E+03  0.19166009523E+03  0.00000000000E+00 0.  1.
        -11    1    4    4    0    0 -0.31868522819E+02  0.14210253518E+02  0.68160146838E+02  0.76572447190E+02  0.00000000000E+00 0.  1.
         11    1    4    4    0    0  0.18241489965E+02 -0.65959603827E+02  0.93825067301E+02  0.11613166901E+03  0.00000000000E+00 0. -1.
         21    1    1    2  502  501 -0.23853303639E+02 -0.39552421704E+02 -0.44139274215E+02  0.63887789799E+02  0.00000000000E+00 0.  1.
<scales pt_clust_5="13000.00000" pt_clust_6="13000.00000" pt_clust_7="13000.00000" pt_clust_8="13000.00000" pt_clust_9="46.18846"></scales>
<clustering>
<clus scale="   46.188">  2  9  1 -1</clus>
<clus scale="   89.621">  7  8 -1 -1</clus>
<clus scale="   90.187">  5  6 -1 -1</clus>
<clus scale="  106.081">  1  7  2 -1</clus>
<clus scale="  106.081">  1  5  2 -1</clus>
</clustering>
</event>
<event>
 9    1  0.1612788E-005  0.9055445E+02  0.7546771E-02  0.1302180E+00
          1   -1    0    0  502    0  0.00000000000E+00  0.00000000000E+00  0.46865107384E+02  0.46865107384E+02  0.00000000000E+00 0. -1.
         -1   -1    0    0    0  501 -0.00000000000E+00 -0.00000000000E+00 -0.30174417408E+03  0.30174417408E+03  0.00000000000E+00 0.  1.
         23    2    1    2    0    0  0.79060806554E+01  0.16454151053E+02 -0.18555149457E+03  0.20727049070E+03  0.90545314502E+02 0.  0.
         23    2    1    2    0    0  0.34591310655E+01  0.66723793619E+01 -0.30621458426E+02  0.94839675890E+02  0.89444978466E+02 0.  0.
        -11    1    4    4    0    0 -0.17113870306E+02 -0.23416182710E+02 -0.46722200532E+02  0.54992419406E+02  0.00000000000E+00 0.  1.
         11    1    4    4    0    0  0.20573001372E+02  0.30088562072E+02  0.16100742106E+02  0.39847256484E+02  0.00000000000E+00 0. -1.
        -13    1    3    3    0    0 -0.11117326014E+02 -0.34580899199E+02 -0.93568042139E+02  0.10037137060E+03  0.00000000000E+00 0.  1.
         13    1    3    3    0    0  0.19023406669E+02  0.51035050252E+02 -0.91983452429E+02  0.10689912009E+03  0.00000000000E+00 0. -1.
         21    1    1    2  502  501 -0.11365211721E+02 -0.23126530415E+02 -0.38706113697E+02  0.46499114874E+02  0.00000000000E+00 0.  1.
<scales pt_clust_5="13000.00000" pt_clust_6="13000.00000" pt_clust_7="13000.00000" pt_clust_8="13000.00000" pt_clust_9="25.76828"></scales>
<clustering>
<clus scale="   25.768">  2  9  1 -1</clus>
<clus scale="   89.445">  5  6 -1 -1</clus>
<clus scale="   89.454">  1  5  2 -1</clus>
<clus scale="   90.545">  7  8 -1 -1</clus>
<clus scale="   89.454">  1  5  2 -1</clus>
</clustering>
</event>
<event>
 9    1  0.1612788E-005  0.2870524E+03  0.7546771E-02  0.1091974E+00
         -1   -1    0    0    0  501 -0.00000000000E+00  0.00000000000E+00  0.84365225321E+03  0.84365225321E+03  0.00000000000E+00 0.  1.
          1   -1    0    0  502    0  0.00000000000E+00 -0.00000000000E+00 -0.17453761562E+03  0.17453761562E+03  0.00000000000E+00 0. -1.
         23    2    1    2    0    0  0.18599596729E+03 -0.17369980909E+03  0.56708338553E+03  0.62806511864E+03  0.90089419912E+02 0.  0.
         23    2    1    2    0    0 -0.20948546324E+03  0.18021685577E+03  0.62398408134E+01  0.29128031290E+03  0.91885856667E+02 0.  0.
        -11    1    3    3    0    0 -0.60823975473E+01 -0.27295335846E+02  0.48097317723E+02  0.55636165316E+02  0.00000000000E+00 0.  1.
         11    1    3    3    0    0  0.19207836484E+03 -0.14640447325E+03  0.51898606781E+03  0.57242895333E+03  0.00000000000E+00 0. -1.
        -13    1    4    4    0    0 -0.47717033884E+02  0.25581334313E+02  0.36729569431E+02  0.65424622723E+02  0.00000000000E+00 0. -1.
         13    1    4    4    0    0 -0.16176842936E+03  0.15463552145E+03 -0.30489728617E+02  0.22585569017E+03  0.00000000000E+00 0.  1.
         21    1    1    2  502  501  0.23489495949E+02 -0.65170466744E+01  0.95791411236E+02  0.98844437294E+02  0.00000000000E+00 0.  1.
<scales pt_clust_5="13000.00000" pt_clust_6="13000.00000" pt_clust_7="13000.00000" pt_clust_8="13000.00000" pt_clust_9="24.37680"></scales>
<clustering>
<clus scale="   24.377">  1  9  2 -1</clus>
<clus scale="   90.089">  5  6 -1 -1</clus>
<clus scale="   91.886">  7  8 -1 -1</clus>
<clus scale="  286.482">  1  5  2 -1</clus>
<clus scale="  287.052">  2  5  1 -1</clus>
</clustering>
</event>
<event>
 9    1  0.1612788E-005  0.1459318E+03  0.7546771E-02  0.1206232E+00
          1   -1    0    0  502    0  0.00000000000E+00  0.00000000000E+00  0.46727933769E+03  0.46727933769E+03  0.00000000000E+00 0. -1.
         -1   -1    0    0    0  501 -0.00000000000E+00 -0.00000000000E+00 -0.30808348947E+03  0.30808348947E+03  0.00000000000E+00 0.  1.
         23    2    1    2    0    0  0.11347455944E+03 -0.42857583783E+02 -0.33257563028E+02  0.15613750348E+03  0.92518140747E+02 0.  0.
         23    2    1    2    0    0 -0.62526264893E+02  0.95992023735E+02  0.38586628012E+03  0.41227717734E+03  0.89194632123E+02 0.  0.
        -11    1    4    4    0    0 -0.25536633870E+02 -0.13523086625E+02  0.62075197639E+02  0.68471334902E+02  0.00000000000E+00 0.  1.
         11    1    4    4    0    0 -0.36989631023E+02  0.10951511036E+03  0.32379108248E+03  0.34380584244E+03  0.00000000000E+00 0. -1.
        -11    1    3    3    0    0  0.11248659321E+03 -0.64259785494E+02 -0.36202968844E+02  0.13451099820E+03  0.00000000000E+00 0.  1.
         11    1    3    3    0    0  0.98796623315E+00  0.21402201712E+02  0.29454058168E+01  0.21626505284E+02  0.00000000000E+00 0. -1.
         21    1    1    2  502  501 -0.50948294545E+02 -0.53134439952E+02 -0.19341286887E+03  0.20694814633E+03  0.00000000000E+00 0.  1.
<scales pt_clust_5="13000.00000" pt_clust_6="13000.00000" pt_clust_7="13000.00000" pt_clust_8="13000.00000" pt_clust_9="73.61384"></scales>
<clustering>
<clus scale="   73.614">  2  9  1 -1</clus>
<clus scale="   89.195">  5  6 -1 -1</clus>
<clus scale="   92.518">  7  8 -1 -1</clus>
<clus scale="  143.848">  1  5  2 -1</clus>
<clus scale="  143.848">  1  5  2 -1</clus>
</clustering>
</event>
<event>
 9    1  0.1612788E-005  0.9449467E+02  0.7546771E-02  0.1294386E+00
          3   -1    0    0  502    0  0.00000000000E+00  0.00000000000E+00  0.14210974461E+03  0.14210974461E+03  0.00000000000E+00 0. -1.
         -3   -1    0    0    0  501 -0.00000000000E+00 -0.00000000000E+00 -0.18202044156E+03  0.18202044156E+03  0.00000000000E+00 0.  1.
         23    2    1    2    0    0  0.20258198827E+02  0.19099763166E+02 -0.24867174283E+00  0.95334749207E+02  0.91178160741E+02 0.  0.
         23    2    1    2    0    0 -0.26986762804E+02  0.87323555422E+01  0.69929697256E+02  0.11552476097E+03  0.87471529310E+02 0.  0.
        -11    1    4    4    0    0  0.26988479648E+02 -0.16875846199E+02  0.29414659232E+02  0.43340447579E+02  0.00000000000E+00 0. -1.
         11    1    4    4    0    0 -0.53975242452E+02  0.25608201741E+02  0.40515038025E+02  0.72184313395E+02  0.00000000000E+00 0.  1.
        -13    1    3    3    0    0 -0.51721862688E+01 -0.21081020231E+02 -0.31629642677E+02  0.38361376678E+02  0.00000000000E+00 0.  1.
         13    1    3    3    0    0  0.25430385095E+02  0.40180783398E+02  0.31380970934E+02  0.56973372529E+02  0.00000000000E+00 0. -1.
         21    1    1    2  502  501  0.67285639776E+01 -0.27832118708E+02 -0.10959172246E+03  0.11327067598E+03  0.00000000000E+00 0.  1.
<scales pt_clust_5="13000.00000" pt_clust_6="13000.00000" pt_clust_7="13000.00000" pt_clust_8="13000.00000" pt_clust_9="28.63390"></scales>
<clustering>
<clus scale="   28.634">  2  9  1 -1</clus>
<clus scale="   87.472">  5  6 -1 -1</clus>
<clus scale="   90.923">  1  5  2 -1</clus>
<clus scale="   91.178">  7  8 -1 -1</clus>
<clus scale="   90.923">  1  5  2 -1</clus>
</clustering>
</event>
<event>
 9    1  0.1612788E-005  0.1082062E+03  0.7546771E-02  0.1264780E+00
         -2   -1    0    0    0  501 -0.00000000000E+00  0.00000000000E+00  0.28935515144E+02  0.28935515144E+02  0.00000000000E+00 0.  1.
          2   -1    0    0  502    0  0.00000000000E+00 -0.00000000000E+00 -0.60212957377E+03  0.60212957377E+03  0.00000000000E+00 0. -1.
         23    2    1    2    0    0  0.28312336352E+01  0.43561073482E+02 -0.22178977923E+03  0.24493858397E+03  0.94332500969E+02 0.  0.
         23    2    1    2    0    0 -0.16948112278E+02 -0.57966400386E+02 -0.34876298551E+03  0.36578501682E+03  0.92280639270E+02 0.  0.
        -11    1    4    4    0    0  0.15563161166E+02 -0.72337997134E+02 -0.25467784943E+03  0.26520898327E+03  0.00000000000E+00 0.  1.
         11    1    4    4    0    0 -0.32511273444E+02  0.14371596748E+02 -0.94085136080E+02  0.10057603355E+03  0.00000000000E+00 0. -1.
        -13    1    3    3    0    0  0.34477339028E+02  0.58684264327E+02 -0.16025663227E+03  0.17411122299E+03  0.00000000000E+00 0.  1.
         13    1    3    3    0    0 -0.31646105393E+02 -0.15123190845E+02 -0.61533146960E+02  0.70827360975E+02  0.00000000000E+00 0. -1.
         21    1    1    2  502  501  0.14116878643E+02  0.14405326905E+02 -0.26412938885E+01  0.20341488128E+02  0.00000000000E+00 0.  1.
<scales pt_clust_5="13000.00000" pt_clust_6="13000.00000" pt_clust_7="13000.00000" pt_clust_8="13000.00000" pt_clust_9="20.16928"></scales>
<clustering>
<clus scale="   20.169">  1  9  2 -1</clus>
<clus scale="   92.281">  5  6 -1 -1</clus>
<clus scale="   94.333">  7  8 -1 -1</clus>
<clus scale="  106.422">  2  5  1 -1</clus>
<clus scale="  106.422">  2  5  1 -1</clus>
</clustering>
</event>
<event>
 9    1  0.1612788E-005  0.1263107E+03  0.7546771E-02  0.1233571E+00
          2   -1    0    0  502    0  0.00000000000E+00  0.00000000000E+00  0.42164632012E+03  0.42164632012E+03  0.00000000000E+00 0. -1.
         -2   -1    0    0    0  501 -0.00000000000E+00 -0.00000000000E+00 -0.69507410976E+02  0.69507410976E+02  0.00000000000E+00 0.  1.
         23    2    1    2    0    0  0.60853354385E+02  0.30149109286E+02  0.14823514595E+02  0.11604756205E+03  0.92925779754E+02 0.  0.
         23    2    1    2    0    0 -0.86771083942E+02 -0.24433030997E+02  0.31626916354E+03  0.34123367141E+03  0.91038676862E+02 0.  0.
        -13    1    3    3    0    0  0.23349178423E+02  0.31908711811E+02  0.50579651039E+02  0.64200086618E+02  0.00000000000E+00 0. -1.
         13    1    3    3    0    0  0.37504175961E+02 -0.17596025254E+01 -0.35756136444E+02  0.51847475435E+02  0.00000000000E+00 0.  1.
        -13    1    4    4    0    0 -0.83857107525E+02  0.88304973706E+01  0.27769634393E+03  0.29021587068E+03  0.00000000000E+00 0. -1.
         13    1    4    4    0    0 -0.29139764168E+01 -0.33263528368E+02  0.38572819617E+02  0.51017800729E+02  0.00000000000E+00 0.  1.
         21    1    1    2  502  501  0.25917729557E+02 -0.57160782887E+01  0.21046231011E+02  0.33872497637E+02  0.00000000000E+00 0.  1.
<scales pt_clust_5="13000.00000" pt_clust_6="13000.00000" pt_clust_7="13000.00000" pt_clust_8="13000.00000" pt_clust_9="26.54058"></scales>
<clustering>
<clus scale="   26.541">  2  9  1 -1</clus>
<clus scale="   91.039">  7  8 -1 -1</clus>
<clus scale="   92.926">  5  6 -1 -1</clus>
<clus scale="  124.929">  1  7  2 -1</clus>
<clus scale="  124.929">  1  5  2 -1</clus>
</clustering>
</event>
<event>
 9    1  0.1612788E-005  0.9644885E+02  0.7546771E-02  0.1288003E+00
          1   -1    0    0  502    0  0.00000000000E+00  0.00000000000E+00  0.18494216686E+03  0.18494216686E+03  0.00000000000E+00 0. -1.
         -1   -1    0    0    0  501 -0.00000000000E+00 -0.00000000000E+00 -0.23653981494E+03  0.23653981494E+03  0.00000000000E+00 0.  1.
         23    2    1    2    0    0 -0.16708882758E+02  0.13353756533E+02  0.36843494925E+02  0.10044484137E+03  0.90962703697E+02 0.  0.
         23    2    1    2    0    0  0.56759292053E+00 -0.43153490605E+02  0.92592522625E+02  0.13685854916E+03  0.91073274454E+02 0.  0.
        -11    1    4    4    0    0  0.26935743685E+02 -0.22200292075E+02 -0.34561743823E+01  0.35076094387E+02  0.00000000000E+00 0.  1.
         11    1    4    4    0    0 -0.26368150765E+02 -0.20953198530E+02  0.96048697007E+02  0.10178245478E+03  0.00000000000E+00 0. -1.
        -11    1    3    3    0    0 -0.20519656954E+02  0.41337192055E+02  0.51061086448E+02  0.68826261832E+02  0.00000000000E+00 0.  1.
         11    1    3    3    0    0  0.38107741963E+01 -0.27983435522E+02 -0.14217591522E+02  0.31618579543E+02  0.00000000000E+00 0. -1.
         21    1    1    2  502  501  0.16141289837E+02  0.29799734072E+02 -0.18103366563E+03  0.18417859126E+03  0.00000000000E+00 0.  1.
<scales pt_clust_5="13000.00000" pt_clust_6="13000.00000" pt_clust_7="13000.00000" pt_clust_8="13000.00000" pt_clust_9="33.89049"></scales>
<clustering>
<clus scale="   33.890">  2  9  1 -1</clus>
<clus scale="   90.963">  7  8 -1 -1</clus>
<clus scale="   91.073">  5  6 -1 -1</clus>
<clus scale="   96.344">  2  7  1 -1</clus>
<clus scale="   96.449">  1  5  2 -1</clus>
</clustering>
</event>
<event>
 9    1  0.1612788E-005  0.2408733E+03  0.7546771E-02  0.1136020E+00
         -3   -1    0    0    0  501 -0.00000000000E+00  0.00000000000E+00  0.31174351040E+03  0.31174351040E+03  0.00000000000E+00 0.  1.
          3   -1    0    0  502    0  0.00000000000E+00 -0.00000000000E+00 -0.83357189797E+03  0.83357189797E+03  0.00000000000E+00 0. -1.
         23    2    1    2    0    0  0.26797189175E+03  0.12229467068E+03  0.11797934739E+03  0.33020882556E+03  0.91399238613E+02 0.  0.
         23    2    1    2    0    0 -0.12370312734E+03 -0.43460307032E+02 -0.63068633415E+03  0.65045078050E+03  0.90164869957E+02 0.  0.
        -11    1    4    4    0    0 -0.12211048935E+03 -0.67457356358E+01 -0.47610310303E+03  0.49155939750E+03  0.00000000000E+00 0. -1.
         11    1    4    4    0    0 -0.15926379877E+01 -0.36714571396E+02 -0.15458323112E+03  0.15889138301E+03  0.00000000000E+00 0.  1.
        -13    1    3    3    0    0  0.19437880963E+03  0.76014918248E+02  0.38130456427E+02  0.21216814355E+03  0.00000000000E+00 0. -1.
         13    1    3    3    0    0  0.73593082127E+02  0.46279752436E+02  0.79848890961E+02  0.11804068201E+03  0.00000000000E+00 0.  1.
         21    1    1    2  502  501 -0.14426876442E+03 -0.78834363652E+02 -0.91214008098E+01  0.16465580230E+03  0.00000000000E+00 0. -1.
<scales pt_clust_5="13000.00000" pt_clust_6="13000.00000" pt_clust_7="13000.00000" pt_clust_8="13000.00000" pt_clust_9="222.85895"></scales>
<clustering>
<clus scale="   90.165">  5  6 -1 -1</clus>
<clus scale="   91.399">  7  8 -1 -1</clus>
<clus scale="  159.126">  2  5  1 -1</clus>
<clus scale="  222.859">  1  9  2 -1</clus>
<clus scale="  159.126">  2  5  1 -1</clus>
</clustering>
</event>
<event>
 9    1  0.1612788E-005  0.1187317E+03  0.7546771E-02  0.1251513E+00
         -1   -1    0    0    0  501 -0.00000000000E+00  0.00000000000E+00  0.41151721211E+02  0.41151721211E+02  0.00000000000E+00 0.  1.
          1   -1    0    0  502    0  0.00000000000E+00 -0.00000000000E+00 -0.62331371062E+03  0.62331371062E+03  0.00000000000E+00 0. -1.
         23    2    1    2    0    0  0.13160353514E+01  0.32389810732E+02 -0.25332813284E+03  0.27686930745E+03  0.10691416526E+03 0.  0.
         23    2    1    2    0    0  0.59437036915E+01 -0.66737901701E+02 -0.33354931085E+03  0.35217394667E+03  0.91005883349E+02 0.  0.
        -13    1    3    3    0    0 -0.27565885307E+02 -0.12468095872E+02 -0.17226874333E+02  0.34815178396E+02  0.00000000000E+00 0.  1.
         13    1    3    3    0    0  0.28881920658E+02  0.44857906604E+02 -0.23610125851E+03  0.24205412906E+03  0.00000000000E+00 0. -1.
        -13    1    4    4    0    0 -0.81812608745E+01 -0.87502875648E+02 -0.26154622811E+03  0.27591686377E+03  0.00000000000E+00 0.  1.
         13    1    4    4    0    0  0.14124964566E+02  0.20764973947E+02 -0.72003082749E+02  0.76257082900E+02  0.00000000000E+00 0. -1.
         21    1    1    2  502  501 -0.72597390429E+01  0.34348090969E+02  0.47154542894E+01  0.35422177704E+02  0.00000000000E+00 0.  1.
<scales pt_clust_5="13000.00000" pt_clust_6="13000.00000" pt_clust_7="13000.00000" pt_clust_8="13000.00000" pt_clust_9="35.10691"></scales>
<clustering>
<clus scale="   35.107">  1  9  2 -1</clus>
<clus scale="   91.006">  7  8 -1 -1</clus>
<clus scale="  104.636">  2  7  1 -1</clus>
<clus scale="  106.914">  5  6 -1 -1</clus>
<clus scale="  104.636">  2  5  1 -1</clus>
</clustering>
</event>
<event>
 9    1  0.1612788E-005  0.1118098E+03  0.7546771E-02  0.1259477E+00
         -1   -1    0    0    0  501 -0.00000000000E+00  0.00000000000E+00  0.57132847903E+03  0.57132847903E+03  0.00000000000E+00 0.  1.
          1   -1    0    0  502    0  0.00000000000E+00 -0.00000000000E+00 -0.31815592072E+02  0.31815592072E+02  0.00000000000E+00 0. -1.
         23    2    1    2    0    0 -0.43383792910E+02 -0.31455678313E+02  0.23314343697E+03  0.25594001100E+03  0.90982491982E+02 0.  0.
         23    2    1    2    0    0  0.27224200782E+02  0.54497844838E+02  0.15102493813E+03  0.18933072093E+03  0.96573380125E+02 0.  0.
        -11    1    4    4    0    0  0.62545414289E+02  0.33830342627E+02  0.11273341886E+03  0.13328632585E+03  0.00000000000E+00 0.  1.
         11    1    4    4    0    0 -0.35321213507E+02  0.20667502211E+02  0.38291519267E+02  0.56044395072E+02  0.00000000000E+00 0. -1.
        -11    1    3    3    0    0  0.84728527294E+01 -0.37178243340E+02  0.16905027144E+03  0.17329744742E+03  0.00000000000E+00 0.  1.
         11    1    3    3    0    0 -0.51856645639E+02  0.57225650268E+01  0.64093165530E+02  0.82642563580E+02  0.00000000000E+00 0. -1.
         21    1    1    2  502  501  0.16159592128E+02 -0.23042166525E+02  0.15534451186E+03  0.15787333917E+03  0.00000000000E+00 0. -1.
<scales pt_clust_5="13000.00000" pt_clust_6="13000.00000" pt_clust_7="13000.00000" pt_clust_8="13000.00000" pt_clust_9="28.14381"></scales>
<clustering>
<clus scale="   28.144">  1  9  2 -1</clus>
<clus scale="   90.982">  7  8 -1 -1</clus>
<clus scale="   96.573">  5  6 -1 -1</clus>
<clus scale="  107.018">  1  7  2 -1</clus>
<clus scale="  111.810">  2  5  1 -1</clus>
</clustering>
</event>
<event>
 9    1  0.1612788E-005  0.9402651E+02  0.7546771E-02  0.1293892E+00
          2   -1    0    0  502    0  0.00000000000E+00  0.00000000000E+00  0.39759989612E+03  0.39759989612E+03  0.00000000000E+00 0. -1.
         -2   -1    0    0    0  501 -0.00000000000E+00 -0.00000000000E+00 -0.38054797174E+02  0.38054797174E+02  0.00000000000E+00 0.  1.
         23    2    1    2    0    0 -0.18112609432E+02 -0.14191611275E+02  0.15435852141E+03  0.18175101581E+03  0.93152617605E+02 0.  0.
         23    2    1    2    0    0  0.82746608101E+01 -0.43509141767E+01  0.21235810023E+03  0.23172167529E+03  0.92258179061E+02 0.  0.
        -11    1    3    3    0    0  0.37426350779E+01 -0.45027435811E+02  0.12781481080E+03  0.13556586278E+03  0.00000000000E+00 0. -1.
         11    1    3    3    0    0 -0.21855244510E+02  0.30835824536E+02  0.26543710613E+02  0.46185153031E+02  0.00000000000E+00 0.  1.
        -13    1    4    4    0    0 -0.27918088333E+02  0.25855633075E+02  0.51082563763E+02  0.63697423327E+02  0.00000000000E+00 0.  1.
         13    1    4    4    0    0  0.36192749144E+02 -0.30206547252E+02  0.16127553646E+03  0.16802425197E+03  0.00000000000E+00 0. -1.
         21    1    1    2  502  501  0.98379486215E+01  0.18542525451E+02 -0.71715226913E+01  0.22182002184E+02  0.00000000000E+00 0.  1.
<scales pt_clust_5="13000.00000" pt_clust_6="13000.00000" pt_clust_7="13000.00000" pt_clust_8="13000.00000" pt_clust_9="20.99072"></scales>
<clustering>
<clus scale="   20.991">  2  9  1 -1</clus>
<clus scale="   92.258">  7  8 -1 -1</clus>
<clus scale="   93.140">  1  7  2 -1</clus>
<clus scale="   93.153">  5  6 -1 -1</clus>
<clus scale="   93.140">  1  5  2 -1</clus>
</clustering>
</event>
<event>
 9    1  0.1612788E-005  0.1212769E+03  0.7546771E-02  0.1241240E+00
          2   -1    0    0  502    0  0.00000000000E+00  0.00000000000E+00  0.51543174981E+03  0.51543174981E+03  0.00000000000E+00 0. -1.
         -2   -1    0    0    0  501 -0.00000000000E+00 -0.00000000000E+00 -0.10071985720E+03  0.10071985720E+03  0.00000000000E+00 0.  1.
         23    2    1    2    0    0  0.79521571026E+02  0.14364278807E+02 -0.15176578140E+02  0.12250171131E+03  0.90809294595E+02 0.  0.
         23    2    1    2    0    0 -0.79689791958E+02  0.13618726408E+02  0.44547539262E+03  0.46161820807E+03  0.90039502114E+02 0.  0.
        -11    1    4    4    0    0 -0.37808448766E+02  0.51849958899E+02  0.22575770313E+03  0.23470074043E+03  0.00000000000E+00 0. -1.
         11    1    4    4    0    0 -0.41881343191E+02 -0.38231232492E+02  0.21971768950E+03  0.22691746765E+03  0.00000000000E+00 0.  1.
        -13    1    3    3    0    0  0.29405344738E+02  0.46716332043E+02 -0.27375345346E+02  0.61615740777E+02  0.00000000000E+00 0.  1.
         13    1    3    3    0    0  0.50116226288E+02 -0.32352053236E+02  0.12198767206E+02  0.60885970529E+02  0.00000000000E+00 0. -1.
         21    1    1    2  502  501  0.16822093210E+00 -0.27983005215E+02 -0.15586921870E+02  0.32031687631E+02  0.00000000000E+00 0.  1.
<scales pt_clust_5="13000.00000" pt_clust_6="13000.00000" pt_clust_7="13000.00000" pt_clust_8="13000.00000" pt_clust_9="27.98351"></scales>
<clustering>
<clus scale="   27.984">  2  9  1 -1</clus>
<clus scale="   90.040">  5  6 -1 -1</clus>
<clus scale="   90.809">  7  8 -1 -1</clus>
<clus scale="  120.702">  1  5  2 -1</clus>
<clus scale="  120.702">  1  5  2 -1</clus>
</clustering>
</event>
<event>
 9    1  0.1612788E-005  0.9423582E+02  0.7546771E-02  0.1293158E+00
         -1   -1    0    0    0  501 -0.00000000000E+00  0.00000000000E+00  0.18546165918E+03  0.18546165918E+03  0.00000000000E+00 0.  1.
          1   -1    0    0  502    0  0.00000000000E+00 -0.00000000000E+00 -0.83728842593E+02  0.83728842593E+02  0.00000000000E+00 0. -1.
         23    2    1    2    0    0  0.37569004584E+02 -0.23916239655E+02  0.26907996471E+02  0.10486805734E+03  0.91048627400E+02 0.  0.
         23    2    1    2    0    0 -0.75958382663E+01 -0.12221469642E+02  0.25169069690E+02  0.95984912413E+02  0.91501695409E+02 0.  0.
        -11    1    3    3    0    0  0.63962678515E+02 -0.11858400241E+02  0.36139932013E+02  0.74417340620E+02  0.00000000000E+00 0.  1.
         11    1    3    3    0    0 -0.26393673931E+02 -0.12057839414E+02 -0.92319355419E+01  0.30450716720E+02  0.00000000000E+00 0. -1.
        -11    1    4    4    0    0 -0.28985522852E+02  0.30681693995E+02  0.81983469606E+00  0.42216098948E+02  0.00000000000E+00 0. -1.
         11    1    4    4    0    0  0.21389684586E+02 -0.42903163636E+02  0.24349234993E+02  0.53768813465E+02  0.00000000000E+00 0.  1.
         21    1    1    2  502  501 -0.29973166318E+02  0.36137709297E+02  0.49655750429E+02  0.68337532023E+02  0.00000000000E+00 0.  1.
<scales pt_clust_5="13000.00000" pt_clust_6="13000.00000" pt_clust_7="13000.00000" pt_clust_8="13000.00000" pt_clust_9="46.95024"></scales>
<clustering>
<clus scale="   46.950">  1  9  2 -1</clus>
<clus scale="   91.049">  5  6 -1 -1</clus>
<clus scale="   91.502">  7  8 -1 -1</clus>
<clus scale="   93.796">  1  5  2 -1</clus>
<clus scale="   94.236">  2  5  1 -1</clus>
</clustering>
</event>
<event>
 9    1  0.1612788E-005  0.1138531E+03  0.7546771E-02  0.1255266E+00
         -2   -1    0    0    0  501 -0.00000000000E+00  0.00000000000E+00  0.55784417462E+02  0.55784417462E+02  0.00000000000E+00 0.  1.
          2   -1    0    0  502    0  0.00000000000E+00 -0.00000000000E+00 -0.45416916053E+03  0.45416916053E+03  0.00000000000E+00 0. -1.
         23    2    1    2    0    0  0.82389771802E+02  0.17005454785E+02 -0.80464125911E+02  0.15104690350E+03  0.96246722070E+02 0.  0.
         23    2    1    2    0    0 -0.32315459222E+02 -0.67043596910E+01 -0.12092647647E+03  0.15538704201E+03  0.91829639926E+02 0.  0.
        -11    1    4    4    0    0 -0.64531387098E+01 -0.40565722108E+02 -0.19693494940E+02  0.45552766681E+02  0.00000000000E+00 0. -1.
         11    1    4    4    0    0 -0.25862320512E+02  0.33861362417E+02 -0.10123298153E+03  0.10983427533E+03  0.00000000000E+00 0.  1.
        -11    1    3    3    0    0  0.10363091312E+03  0.14124397113E+02 -0.75641217662E+02  0.12907539873E+03  0.00000000000E+00 0.  1.
         11    1    3    3    0    0 -0.21241141321E+02  0.28810576722E+01 -0.48229082490E+01  0.21971504771E+02  0.00000000000E+00 0. -1.
         21    1    1    2  502  501 -0.50074312581E+02 -0.10301095094E+02 -0.19699414069E+03  0.20351963248E+03  0.00000000000E+00 0. -1.
<scales pt_clust_5="13000.00000" pt_clust_6="13000.00000" pt_clust_7="13000.00000" pt_clust_8="13000.00000" pt_clust_9="51.12288"></scales>
<clustering>
<clus scale="   51.123">  2  9  1 -1</clus>
<clus scale="   91.830">  5  6 -1 -1</clus>
<clus scale="   96.247">  7  8 -1 -1</clus>
<clus scale="  110.144">  2  5  1 -1</clus>
<clus scale="   51.123">  2  5  1 -1</clus>
</clustering>
</event>
<event>
 9    1  0.1612788E-005  0.2575464E+03  0.7546771E-02  0.1109026E+00
          2   -1    0    0  502    0  0.00000000000E+00  0.00000000000E+00  0.52590899953E+03  0.52590899953E+03  0.00000000000E+00 0. -1.
         -2   -1    0    0    0  501 -0.00000000000E+00 -0.00000000000E+00 -0.27398457184E+03  0.27398457184E+03  0.00000000000E+00 0.  1.
         23    2    1    2    0    0 -0.65018057748E+01  0.16800170568E+03 -0.10234975281E+03  0.21662078907E+03  0.90455777959E+02 0.  0.
         23    2    1    2    0    0  0.12417398314E+02 -0.25694263372E+03  0.39812000154E+03  0.48393528214E+03  0.97571065743E+02 0.  0.
        -13    1    4    4    0    0  0.46909791560E+02 -0.74965150857E+02  0.15283239480E+03  0.17657305369E+03  0.00000000000E+00 0.  1.
         13    1    4    4    0    0 -0.34492393246E+02 -0.18197748286E+03  0.24528760674E+03  0.30736222845E+03  0.00000000000E+00 0. -1.
        -13    1    3    3    0    0 -0.35485592922E+02  0.12566966957E+03 -0.10136340257E+03  0.16530769049E+03  0.00000000000E+00 0.  1.
         13    1    3    3    0    0  0.28983787148E+02  0.42332036110E+02 -0.98635023863E+00  0.51313098576E+02  0.00000000000E+00 0. -1.
         21    1    1    2  502  501 -0.59155925388E+01  0.88940928037E+02 -0.43845821048E+02  0.99337500162E+02  0.00000000000E+00 0.  1.
<scales pt_clust_5="13000.00000" pt_clust_6="13000.00000" pt_clust_7="13000.00000" pt_clust_8="13000.00000" pt_clust_9="89.13744"></scales>
<clustering>
<clus scale="   89.137">  2  9  1 -1</clus>
<clus scale="   90.456">  7  8 -1 -1</clus>
<clus scale="   97.571">  5  6 -1 -1</clus>
<clus scale="  254.936">  2  7  1 -1</clus>
<clus scale="  257.546">  1  5  2 -1</clus>
</clustering>
</event>
<event>
 9    1  0.1612788E-005  0.9805065E+02  0.7546771E-02  0.1284664E+00
          3   -1    0    0  502    0  0.00000000000E+00  0.00000000000E+00  0.23587074798E+03  0.23587074798E+03  0.00000000000E+00 0. -1.
         -3   -1    0    0    0  501 -0.00000000000E+00 -0.00000000000E+00 -0.22724642218E+03  0.22724642218E+03  0.00000000000E+00 0.  1.
         23    2    1    2    0    0 -0.17754486608E+01 -0.58615044199E+02  0.80828748525E+02  0.13486285019E+03  0.90641194547E+02 0.  0.
         23    2    1    2    0    0 -0.50750959529E+01  0.21828661393E+02  0.10867314607E+03  0.14354681385E+03  0.91069138758E+02 0.  0.
        -11    1    4    4    0    0 -0.17923929639E+02 -0.23879020361E+02  0.85797047331E+02  0.90843867145E+02  0.00000000000E+00 0. -1.
         11    1    4    4    0    0  0.12848833686E+02  0.45707681754E+02  0.22876098738E+02  0.52702946710E+02  0.00000000000E+00 0.  1.
        -13    1    3    3    0    0  0.53206077907E+01 -0.82647024659E+02  0.59813375944E+02  0.10215908914E+03  0.00000000000E+00 0. -1.
         13    1    3    3    0    0 -0.70960564515E+01  0.24031980461E+02  0.21015372580E+02  0.32703761048E+02  0.00000000000E+00 0.  1.
         21    1    1    2  502  501  0.68505446138E+01  0.36786382805E+02 -0.18087756880E+03  0.18470750612E+03  0.00000000000E+00 0.  1.
<scales pt_clust_5="13000.00000" pt_clust_6="13000.00000" pt_clust_7="13000.00000" pt_clust_8="13000.00000" pt_clust_9="37.41882"></scales>
<clustering>
<clus scale="   37.419">  2  9  1 -1</clus>
<clus scale="   90.641">  7  8 -1 -1</clus>
<clus scale="   91.069">  5  6 -1 -1</clus>
<clus scale="   97.653">  2  7  1 -1</clus>
<clus scale="   98.051">  1  5  2 -1</clus>
</clustering>
</event>
<event>
 9    1  0.1612788E-005  0.9667875E+02  0.7546771E-02  0.1289068E+00
         -1   -1    0    0    0  501 -0.00000000000E+00  0.00000000000E+00  0.37060667572E+03  0.37060667572E+03  0.00000000000E+00 0.  1.
          1   -1    0    0  502    0  0.00000000000E+00 -0.00000000000E+00 -0.37107786970E+02  0.37107786970E+02  0.00000000000E+00 0. -1.
         23    2    1    2    0    0 -0.92676734510E+01 -0.15050050202E+02  0.21829783249E+03  0.23840155396E+03  0.94175174429E+02 0.  0.
         23    2    1    2    0    0  0.34341427114E+02  0.10763757842E+02  0.84313206761E+02  0.12929885280E+03  0.91182697933E+02 0.  0.
        -13    1    3    3    0    0  0.42030271515E+02 -0.58412030844E+01  0.11748699229E+03  0.12491539831E+03  0.00000000000E+00 0. -1.
         13    1    3    3    0    0 -0.51297944966E+02 -0.92088471175E+01  0.10081084020E+03  0.11348615565E+03  0.00000000000E+00 0.  1.
        -13    1    4    4    0    0 -0.16821759066E+02  0.27981593884E+02  0.45195189298E+01  0.32960085341E+02  0.00000000000E+00 0.  1.
         13    1    4    4    0    0  0.51163186180E+02 -0.17217836042E+02  0.79793687831E+02  0.96338767460E+02  0.00000000000E+00 0. -1.
         21    1    1    2  502  501 -0.25073753663E+02  0.42862923603E+01  0.30887849492E+02  0.40014055921E+02  0.00000000000E+00 0.  1.
<scales pt_clust_5="13000.00000" pt_clust_6="13000.00000" pt_clust_7="13000.00000" pt_clust_8="13000.00000" pt_clust_9="25.43748"></scales>
<clustering>
<clus scale="   25.437">  2  9  1 -1</clus>
<clus scale="   91.183">  7  8 -1 -1</clus>
<clus scale="   93.766">  2  7  1 -1</clus>
<clus scale="   94.175">  5  6 -1 -1</clus>
<clus scale="   25.437">  2  5  1 -1</clus>
</clustering>
</event>
<event>
 9    1  0.1612788E-005  0.9848379E+02  0.7546771E-02  0.1285171E+00
          1   -1    0    0  502    0  0.00000000000E+00  0.00000000000E+00  0.20408969263E+03  0.20408969263E+03  0.00000000000E+00 0. -1.
         -1   -1    0    0    0  501 -0.00000000000E+00 -0.00000000000E+00 -0.78892172439E+02  0.78892172439E+02  0.00000000000E+00 0.  1.
         23    2    1    2    0    0  0.61925051133E+02  0.22847095374E+02  0.29956921935E+02  0.11100184751E+03  0.84067182976E+02 0.  0.
         23    2    1    2    0    0 -0.22330284300E+02  0.10716107699E+02  0.66451738518E+02  0.11262487788E+03  0.87493159763E+02 0.  0.
        -11    1    3    3    0    0  0.18588269586E+02  0.48972853899E+02  0.30069574376E+02  0.60399035492E+02  0.00000000000E+00 0.  1.
         11    1    3    3    0    0  0.43336781547E+02 -0.26125758525E+02 -0.11265244121E+00  0.50602812016E+02  0.00000000000E+00 0. -1.
        -13    1    4    4    0    0 -0.17780883445E+02 -0.13499298465E+02 -0.15415779350E+02  0.27130004204E+02  0.00000000000E+00 0.  1.
         13    1    4    4    0    0 -0.45494008544E+01  0.24215406164E+02  0.81867517868E+02  0.85494873681E+02  0.00000000000E+00 0. -1.
         21    1    1    2  502  501 -0.39594766833E+02 -0.33563203073E+02  0.28788859738E+02  0.59355139677E+02  0.00000000000E+00 0. -1.
<scales pt_clust_5="13000.00000" pt_clust_6="13000.00000" pt_clust_7="13000.00000" pt_clust_8="13000.00000" pt_clust_9="51.90601"></scales>
<clustering>
<clus scale="   51.906">  1  9  2 -1</clus>
<clus scale="   84.067">  5  6 -1 -1</clus>
<clus scale="   87.493">  7  8 -1 -1</clus>
<clus scale="   95.453">  2  5  1 -1</clus>
<clus scale="   51.906">  1  5  2 -1</clus>
</clustering>
</event>
<event>
 9    1  0.1612788E-005  0.9982260E+02  0.7546771E-02  0.1281922E+00
         -1   -1    0    0    0  501 -0.00000000000E+00  0.00000000000E+00  0.19457315208E+03  0.19457315208E+03  0.00000000000E+00 0.  1.
          1   -1    0    0  502    0  0.00000000000E+00 -0.00000000000E+00 -0.27898886852E+03  0.27898886852E+03  0.00000000000E+00 0. -1.
         23    2    1    2    0    0 -0.56584516119E+02 -0.18974229080E+02  0.12066975495E+03  0.16377012905E+03  0.93261120375E+02 0.  0.
         23    2    1    2    0    0  0.91252367588E+01  0.34440394079E+02 -0.23301983269E+03  0.25259124472E+03  0.90745158489E+02 0.  0.
        -11    1    3    3    0    0 -0.78064224259E+02 -0.12012479792E+02  0.11659039792E+03  0.14082486878E+03  0.00000000000E+00 0.  1.
         11    1    3    3    0    0  0.21479708140E+02 -0.69617492886E+01  0.40793570374E+01  0.22945260268E+02  0.00000000000E+00 0. -1.
        -13    1    4    4    0    0 -0.36534207159E+02  0.32697297676E+01 -0.54396116103E+02  0.65607750096E+02  0.00000000000E+00 0.  1.
         13    1    4    4    0    0  0.45659443918E+02  0.31170664311E+02 -0.17862371659E+03  0.18698349462E+03  0.00000000000E+00 0. -1.
         21    1    1    2  502  501  0.47459279360E+02 -0.15466164999E+02  0.27934361295E+02  0.57200646833E+02  0.00000000000E+00 0. -1.
<scales pt_clust_5="13000.00000" pt_clust_6="13000.00000" pt_clust_7="13000.00000" pt_clust_8="13000.00000" pt_clust_9="49.91578"></scales>
<clustering>
<clus scale="   49.916">  1  9  2 -1</clus>
<clus scale="   90.745">  7  8 -1 -1</clus>
<clus scale="   93.261">  5  6 -1 -1</clus>
<clus scale="   97.476">  2  7  1 -1</clus>
<clus scale="   97.476">  2  5  1 -1</clus>
</clustering>
</event>
<event>
 9    1  0.1612788E-005  0.9673827E+02  0.7546771E-02  0.1288027E+00
          1   -1    0    0  502    0  0.00000000000E+00  0.00000000000E+00  0.18844325976E+03  0.18844325976E+03  0.00000000000E+00 0. -1.
         -1   -1    0    0    0  501 -0.00000000000E+00 -0.00000000000E+00 -0.10378530133E+03  0.10378530133E+03  0.00000000000E+00 0.  1.
         23    2    1    2    0    0 -0.21832740198E+02 -0.12001410069E+02  0.96997170360E+01  0.94850801086E+02  0.91004876616E+02 0.  0.
         23    2    1    2    0    0  0.30086137031E+02 -0.16948901417E+02  0.11227642425E+03  0.14943106183E+03  0.92364527270E+02 0.  0.
        -11    1    4    4    0    0  0.12884381884E+02 -0.51400184476E+02  0.36232399589E+02  0.64193247625E+02  0.00000000000E+00 0.  1.
         11    1    4    4    0    0  0.17201755147E+02  0.34451283059E+02  0.76044024660E+02  0.85237814209E+02  0.00000000000E+00 0. -1.
        -13    1    3    3    0    0 -0.57370446624E+02 -0.52687254880E+01  0.86835146681E+00  0.57618414143E+02  0.00000000000E+00 0.  1.
         13    1    3    3    0    0  0.35537706426E+02 -0.67326845810E+01  0.88313655692E+01  0.37232386943E+02  0.00000000000E+00 0. -1.
         21    1    1    2  502  501 -0.82533968328E+01  0.28950311486E+02 -0.37318182853E+02  0.47946698175E+02  0.00000000000E+00 0.  1.
<scales pt_clust_5="13000.00000" pt_clust_6="13000.00000" pt_clust_7="13000.00000" pt_clust_8="13000.00000" pt_clust_9="30.10381"></scales>
<clustering>
<clus scale="   30.104">  2  9  1 -1</clus>
<clus scale="   91.005">  7  8 -1 -1</clus>
<clus scale="   92.365">  5  6 -1 -1</clus>
<clus scale="   95.441">  2  7  1 -1</clus>
<clus scale="   96.738">  1  5  2 -1</clus>
</clustering>
</event>
<event>
 9    1  0.1612788E-005  0.9964891E+02  0.7546771E-02  0.1282198E+00
         -3   -1    0    0    0  501 -0.00000000000E+00  0.00000000000E+00  0.27113797044E+03  0.27113797044E+03  0.00000000000E+00 0.  1.
          3   -1    0    0  502    0  0.00000000000E+00 -0.00000000000E+00 -0.91384105473E+02  0.91384105473E+02  0.00000000000E+00 0. -1.
         23    2    1    2    0    0  0.16425349471E+02 -0.75867949448E+02  0.98518634402E+02  0.15533799378E+03  0.91641874317E+02 0.  0.
         23    2    1    2    0    0  0.25915025145E+01  0.18846180461E+02 -0.11631938615E+02  0.96561146405E+02  0.93951362927E+02 0.  0.
        -11    1    3    3    0    0 -0.14031353747E+02 -0.51131619448E+02  0.42050821317E+01  0.53188383234E+02  0.00000000000E+00 0.  1.
         11    1    3    3    0    0  0.30456703218E+02 -0.24736330000E+02  0.94313552270E+02  0.10214961055E+03  0.00000000000E+00 0. -1.
        -13    1    4    4    0    0  0.47748219494E+02  0.13057164732E+02  0.28063176132E+00  0.49502128943E+02  0.00000000000E+00 0. -1.
         13    1    4    4    0    0 -0.45156716980E+02  0.57890157290E+01 -0.11912570376E+02  0.47059017462E+02  0.00000000000E+00 0.  1.
         21    1    1    2  502  501 -0.19016851985E+02  0.57021768987E+02  0.92867169181E+02  0.11062293573E+03  0.00000000000E+00 0. -1.
<scales pt_clust_5="13000.00000" pt_clust_6="13000.00000" pt_clust_7="13000.00000" pt_clust_8="13000.00000" pt_clust_9="60.10926"></scales>
<clustering>
<clus scale="   60.109">  1  9  2 -1</clus>
<clus scale="   91.642">  5  6 -1 -1</clus>
<clus scale="   93.951">  7  8 -1 -1</clus>
<clus scale="   97.475">  1  5  2 -1</clus>
<clus scale="   99.649">  2  5  1 -1</clus>
</clustering>
</event>
<event>
 9    1  0.1612788E-005  0.9434996E+02  0.7546771E-02  0.1293179E+00
          4   -1    0    0  502    0  0.00000000000E+00  0.00000000000E+00  0.68094158477E+02  0.68094158477E+02  0.00000000000E+00 0. -1.
         -4   -1    0    0    0  501 -0.00000000000E+00 -0.00000000000E+00 -0.35563741319E+03  0.35563741319E+03  0.00000000000E+00 0.  1.
         23    2    1    2    0    0 -0.16678025682E+01 -0.26318724606E+02 -0.27982948741E+03  0.29492238439E+03  0.89326446029E+02 0.  0.
         23    2    1    2    0    0  0.26161018785E+02  0.31338048140E+02  0.77652331766E+01  0.99403223509E+02  0.90300774264E+02 0.  0.
        -11    1    4    4    0    0  0.29847498033E+02  0.59840380090E+02 -0.67409775572E+01  0.67210006744E+02  0.00000000000E+00 0. -1.
         11    1    4    4    0    0 -0.36864792480E+01 -0.28502331950E+02  0.14506210734E+02  0.32193216765E+02  0.00000000000E+00 0.  1.
        -11    1    3    3    0    0 -0.31833860467E+00 -0.56433654765E+02 -0.22877140990E+03  0.23562940546E+03  0.00000000000E+00 0.  1.
         11    1    3    3    0    0 -0.13494639635E+01  0.30114930159E+02 -0.51058077509E+02  0.59292978930E+02  0.00000000000E+00 0. -1.
         21    1    1    2  502  501 -0.24493216217E+02 -0.50193235344E+01 -0.15479000484E+02  0.29405963772E+02  0.00000000000E+00 0.  1.
<scales pt_clust_5="13000.00000" pt_clust_6="13000.00000" pt_clust_7="13000.00000" pt_clust_8="13000.00000" pt_clust_9="25.00222"></scales>
<clustering>
<clus scale="   25.002">  1  9  2 -1</clus>
<clus scale="   89.326">  7  8 -1 -1</clus>
<clus scale="   90.301">  5  6 -1 -1</clus>
<clus scale="   93.418">  2  7  1 -1</clus>
<clus scale="   25.002">  1  5  2 -1</clus>
</clustering>
</event>
<event>
 9    1  0.1612788E-005  0.1457223E+03  0.7546771E-02  0.1207364E+00
          3   -1    0    0  502    0  0.00000000000E+00  0.00000000000E+00  0.24052696329E+03  0.24052696329E+03  0.00000000000E+00 0. -1.
         -3   -1    0    0    0  501 -0.00000000000E+00 -0.00000000000E+00 -0.15390525810E+03  0.15390525810E+03  0.00000000000E+00 0.  1.
         23    2    1    2    0    0  0.97225038508E+02 -0.10265957008E+03  0.19689800679E+02  0.17295114417E+03  0.97635621445E+02 0.  0.
         23    2    1    2    0    0 -0.59994592279E+02  0.72629392903E+02  0.99019532621E+02  0.16388304301E+03  0.90434529522E+02 0.  0.
        -11    1    4    4    0    0 -0.64925200610E+02  0.21278123284E+02  0.23154178817E+02  0.72139837825E+02  0.00000000000E+00 0. -1.
         11    1    4    4    0    0  0.49306083307E+01  0.51351269619E+02  0.75865353804E+02  0.91743205186E+02  0.00000000000E+00 0.  1.
        -13    1    3    3    0    0  0.10963415179E+03 -0.73479216480E+02  0.36672142497E+02  0.13698061369E+03  0.00000000000E+00 0.  1.
         13    1    3    3    0    0 -0.12409113279E+02 -0.29180353605E+02 -0.16982341818E+02  0.35970530473E+02  0.00000000000E+00 0. -1.
         21    1    1    2  502  501 -0.37230446229E+02  0.30030177182E+02 -0.32087628108E+02  0.57598034217E+02  0.00000000000E+00 0. -1.
<scales pt_clust_5="13000.00000" pt_clust_6="13000.00000" pt_clust_7="13000.00000" pt_clust_8="13000.00000" pt_clust_9="47.83218"></scales>
<clustering>
<clus scale="   47.832">  2  9  1 -1</clus>
<clus scale="   90.435">  5  6 -1 -1</clus>
<clus scale="   97.636">  7  8 -1 -1</clus>
<clus scale="  140.999">  1  5  2 -1</clus>
<clus scale="  140.999">  1  5  2 -1</clus>
</clustering>
</event>
<event>
 9    1  0.1612788E-005  0.9769824E+02  0.7546771E-02  0.1286613E+00
         -2   -1    0    0    0  501 -0.00000000000E+00  0.00000000000E+00  0.24503078991E+03  0.24503078991E+03  0.00000000000E+00 0.  1.
          2   -1    0    0  502    0  0.00000000000E+00 -0.00000000000E+00 -0.20872934769E+03  0.20872934769E+03  0.00000000000E+00 0. -1.
         23    2    1    2    0    0 -0.31728008666E+02 -0.71663742596E+01  0.20345341003E+03  0.22644232275E+03  0.93940470644E+02 0.  0.
         23    2    1    2    0    0  0.88992773567E+01  0.25858502145E+02 -0.17274443872E+03  0.19728745773E+03  0.91289871291E+02 0.  0.
        -11    1    3    3    0    0 -0.60346625521E+02 -0.24811388135E+02  0.14511995977E+03  0.15911355353E+03  0.00000000000E+00 0.  1.
         11    1    3    3    0    0  0.28618616855E+02  0.17645013875E+02  0.58333450255E+02  0.67328769215E+02  0.00000000000E+00 0. -1.
        -11    1    4    4    0    0  0.33275116800E+02  0.32526695034E+02 -0.16411362384E+03  0.17058282685E+03  0.00000000000E+00 0. -1.
         11    1    4    4    0    0 -0.24375839444E+02 -0.66681928887E+01 -0.86308148798E+01  0.26704630881E+02  0.00000000000E+00 0.  1.
         21    1    1    2  502  501  0.22828731309E+02 -0.18692127885E+02  0.55924709060E+01  0.30030357122E+02  0.00000000000E+00 0. -1.
<scales pt_clust_5="13000.00000" pt_clust_6="13000.00000" pt_clust_7="13000.00000" pt_clust_8="13000.00000" pt_clust_9="29.50503"></scales>
<clustering>
<clus scale="   29.505">  1  9  2 -1</clus>
<clus scale="   91.290">  7  8 -1 -1</clus>
<clus scale="   93.940">  5  6 -1 -1</clus>
<clus scale="   95.152">  2  7  1 -1</clus>
<clus scale="   95.152">  2  5  1 -1</clus>
</clustering>
</event>
<event>
 9    1  0.1612788E-005  0.9478971E+02  0.7546771E-02  0.1293231E+00
         -1   -1    0    0    0  501 -0.00000000000E+00  0.00000000000E+00  0.22351765398E+02  0.22351765398E+02  0.00000000000E+00 0.  1.
          1   -1    0    0  502    0  0.00000000000E+00 -0.00000000000E+00 -0.56623657623E+03  0.56623657623E+03  0.00000000000E+00 0. -1.
         23    2    1    2    0    0  0.30534651611E+02  0.34797124682E+02 -0.19413805776E+03  0.21789229129E+03  0.87431460581E+02 0.  0.
         23    2    1    2    0    0 -0.97067969332E+01 -0.15768284760E+02 -0.29550741583E+03  0.30955848427E+03  0.90326970856E+02 0.  0.
        -11    1    4    4    0    0  0.31789415630E+02 -0.28016233247E+02 -0.89063895691E+02  0.98629882830E+02  0.00000000000E+00 0. -1.
         11    1    4    4    0    0 -0.41496212564E+02  0.12247948487E+02 -0.20644352014E+03  0.21092860144E+03  0.00000000000E+00 0.  1.
        -13    1    3    3    0    0 -0.24788718633E+02  0.11890733730E+02 -0.20716260864E+02  0.34424316759E+02  0.00000000000E+00 0.  1.
         13    1    3    3    0    0  0.55323370244E+02  0.22906390952E+02 -0.17342179690E+03  0.18346797454E+03  0.00000000000E+00 0. -1.
         21    1    1    2  502  501 -0.20827854678E+02 -0.19028839922E+02 -0.54239337243E+02  0.61137566061E+02  0.00000000000E+00 0.  1.
<scales pt_clust_5="13000.00000" pt_clust_6="13000.00000" pt_clust_7="13000.00000" pt_clust_8="13000.00000" pt_clust_9="28.21163"></scales>
<clustering>
<clus scale="   28.212">  1  9  2 -1</clus>
<clus scale="   87.431">  7  8 -1 -1</clus>
<clus scale="   90.327">  5  6 -1 -1</clus>
<clus scale="   92.035">  1  7  2 -1</clus>
<clus scale="   94.790">  2  5  1 -1</clus>
</clustering>
</event>
<event>
 9    1  0.1612788E-005  0.2431210E+03  0.7546771E-02  0.1118180E+00
         -2   -1    0    0    0  501 -0.00000000000E+00  0.00000000000E+00  0.85196328486E+03  0.85196328486E+03  0.00000000000E+00 0.  1.
          2   -1    0    0  502    0  0.00000000000E+00 -0.00000000000E+00 -0.14497141991E+03  0.14497141991E+03  0.00000000000E+00 0. -1.
         23    2    1    2    0    0  0.17488261710E+02  0.24210940681E+03  0.60181761306E+03  0.65513608505E+03  0.89978032753E+02 0.  0.
         23    2    1    2    0    0 -0.23429090356E+02 -0.22141386241E+03  0.30234938497E+01  0.23740333070E+03  0.82329697973E+02 0.  0.
        -13    1    3    3    0    0  0.26542014048E+02  0.19981392030E+03  0.55917744242E+03  0.59439842981E+03  0.00000000000E+00 0.  1.
         13    1    3    3    0    0 -0.90537523387E+01  0.42295486519E+02  0.42640170641E+02  0.60737655236E+02  0.00000000000E+00 0. -1.
        -13    1    4    4    0    0 -0.40117503227E+02 -0.14624738707E+03  0.32258941971E+02  0.15504306379E+03  0.00000000000E+00 0.  1.
         13    1    4    4    0    0  0.16688412871E+02 -0.75166475341E+02 -0.29235448122E+02  0.82360266915E+02  0.00000000000E+00 0. -1.
         21    1    1    2  502  501  0.59408286464E+01 -0.20695544400E+02  0.10215075803E+03  0.10439528902E+03  0.00000000000E+00 0.  1.
<scales pt_clust_5="13000.00000" pt_clust_6="13000.00000" pt_clust_7="13000.00000" pt_clust_8="13000.00000" pt_clust_9="21.53135"></scales>
<clustering>
<clus scale="   21.531">  1  9  2 -1</clus>
<clus scale="   82.330">  7  8 -1 -1</clus>
<clus scale="   89.978">  5  6 -1 -1</clus>
<clus scale="  240.395">  2  7  1 -1</clus>
<clus scale="  240.395">  2  5  1 -1</clus>
</clustering>
</event>
<event>
 9    1  0.1612788E-005  0.1158525E+03  0.7546771E-02  0.1253326E+00
          1   -1    0    0  502    0  0.00000000000E+00  0.00000000000E+00  0.48214760881E+03  0.48214760881E+03  0.00000000000E+00 0. -1.
         -1   -1    0    0    0  501 -0.00000000000E+00 -0.00000000000E+00 -0.45656341730E+02  0.45656341730E+02  0.00000000000E+00 0.  1.
         23    2    1    2    0    0  0.64936478992E+02  0.37538534787E+02  0.92236901099E+02  0.14480995508E+03  0.82682460469E+02 0.  0.
         23    2    1    2    0    0 -0.40775814553E+02 -0.57672325064E+02  0.32737336155E+03  0.34729980086E+03  0.91951452928E+02 0.  0.
        -11    1    3    3    0    0 -0.51941728979E+01  0.39432806661E+02  0.21628463528E+02  0.45273790517E+02  0.00000000000E+00 0. -1.
         11    1    3    3    0    0  0.70130651890E+02 -0.18942718739E+01  0.70608437571E+02  0.99536164567E+02  0.00000000000E+00 0.  1.
        -13    1    4    4    0    0 -0.45774364190E+02  0.75217589788E+01  0.18338186479E+03  0.18915807572E+03  0.00000000000E+00 0. -1.
         13    1    4    4    0    0  0.49985496364E+01 -0.65194084043E+02  0.14399149676E+03  0.15814172514E+03  0.00000000000E+00 0.  1.
         21    1    1    2  502  501 -0.24160664439E+02  0.20133790277E+02  0.16881004429E+02  0.35694194592E+02  0.00000000000E+00 0. -1.
<scales pt_clust_5="13000.00000" pt_clust_6="13000.00000" pt_clust_7="13000.00000" pt_clust_8="13000.00000" pt_clust_9="31.45007"></scales>
<clustering>
<clus scale="   31.450">  2  9  1 -1</clus>
<clus scale="   82.682">  5  6 -1 -1</clus>
<clus scale="   91.951">  7  8 -1 -1</clus>
<clus scale="  108.642">  2  5  1 -1</clus>
<clus scale="  115.853">  1  5  2 -1</clus>
</clustering>
</event>
<event>
 9    1  0.1612788E-005  0.3936966E+03  0.7546771E-02  0.1046151E+00
         -2   -1    0    0    0  501 -0.00000000000E+00  0.00000000000E+00  0.99548370574E+02  0.99548370574E+02  0.00000000000E+00 0.  1.
          2   -1    0    0  502    0  0.00000000000E+00 -0.00000000000E+00 -0.23329290491E+04  0.23329290491E+04  0.00000000000E+00 0. -1.
         23    2    1    2    0    0 -0.13818022240E+03 -0.34192943626E+03 -0.10333674491E+04  0.11003427680E+04  0.83044620342E+02 0.  0.
         23    2    1    2    0    0  0.14556816108E+03  0.36912567985E+03 -0.12271886172E+04  0.12929846963E+04  0.91507736542E+02 0.  0.
        -11    1    4    4    0    0  0.77386194196E+02  0.86976353737E+02 -0.32251657637E+03  0.34288547825E+03  0.00000000000E+00 0. -1.
         11    1    4    4    0    0  0.68181966884E+02  0.28214932612E+03 -0.90467204079E+03  0.95009921810E+03  0.00000000000E+00 0.  1.
        -13    1    3    3    0    0 -0.25274257396E+02 -0.10089814439E+02 -0.63898764560E+02  0.69452462552E+02  0.00000000000E+00 0.  1.
         13    1    3    3    0    0 -0.11290596501E+03 -0.33183962182E+03 -0.96946868452E+03  0.10308903054E+04  0.00000000000E+00 0. -1.
         21    1    1    2  502  501 -0.73879386764E+01 -0.27196243598E+02  0.27175387739E+02  0.39149955332E+02  0.00000000000E+00 0.  1.
<scales pt_clust_5="13000.00000" pt_clust_6="13000.00000" pt_clust_7="13000.00000" pt_clust_8="13000.00000" pt_clust_9="28.18186"></scales>
<clustering>
<clus scale="   28.182">  1  9  2 -1</clus>
<clus scale="   83.045">  7  8 -1 -1</clus>
<clus scale="   91.508">  5  6 -1 -1</clus>
<clus scale="  391.816">  1  7  2 -1</clus>
<clus scale="  393.697">  2  5  1 -1</clus>
</clustering>
</event>
<event>
 9    1  0.1612788E-005  0.1988160E+03  0.7546771E-02  0.1150771E+00
         -1   -1    0    0    0  501 -0.00000000000E+00  0.00000000000E+00  0.43358760697E+03  0.43358760697E+03  0.00000000000E+00 0.  1.
          1   -1    0    0  502    0  0.00000000000E+00 -0.00000000000E+00 -0.14452729944E+03  0.14452729944E+03  0.00000000000E+00 0. -1.
         23    2    1    2    0    0 -0.16031181889E+03 -0.20506067511E+02  0.11862413953E+03  0.22064513656E+03  0.92153197049E+02 0.  0.
         23    2    1    2    0    0  0.18249675381E+03  0.38134745574E+02  0.25042320117E+02  0.20934039183E+03  0.91852914398E+02 0.  0.
        -11    1    4    4    0    0  0.36451994778E+01  0.21024627576E+02  0.20537106069E+02  0.29615792571E+02  0.00000000000E+00 0. -1.
         11    1    4    4    0    0  0.17885155433E+03  0.17110117998E+02  0.45052140479E+01  0.17972459926E+03  0.00000000000E+00 0.  1.
        -13    1    3    3    0    0 -0.11179785285E+03 -0.10602719997E+02  0.25473548633E+02  0.11515241748E+03  0.00000000000E+00 0. -1.
         13    1    3    3    0    0 -0.48513966048E+02 -0.99033475139E+01  0.93150590897E+02  0.10549271908E+03  0.00000000000E+00 0.  1.
         21    1    1    2  502  501 -0.22184934917E+02 -0.17628678063E+02  0.14539384788E+03  0.14812937801E+03  0.00000000000E+00 0.  1.
<scales pt_clust_5="13000.00000" pt_clust_6="13000.00000" pt_clust_7="13000.00000" pt_clust_8="13000.00000" pt_clust_9="28.33622"></scales>
<clustering>
<clus scale="   28.336">  1  9  2 -1</clus>
<clus scale="   91.853">  5  6 -1 -1</clus>
<clus scale="   92.153">  7  8 -1 -1</clus>
<clus scale="  198.677">  2  5  1 -1</clus>
<clus scale="  198.677">  2  5  1 -1</clus>
</clustering>
</event>
<event>
 9    1  0.4303197E-005  0.9840490E+02  0.7546771E-02  0.1284253E+00
         -1   -1    0    0    0  501 -0.00000000000E+00  0.00000000000E+00  0.18786096244E+03  0.18786096244E+03  0.00000000000E+00 0.  1.
          1   -1    0    0  502    0  0.00000000000E+00 -0.00000000000E+00 -0.23054980921E+03  0.23054980921E+03  0.00000000000E+00 0. -1.
         23    2    1    2    0    0  0.55109361539E+01  0.51901173573E+02  0.14355593774E+03  0.17738623593E+03  0.90185737231E+02 0.  0.
         23    2    1    2    0    0  0.17522613733E+02 -0.31615680977E+02 -0.18599379637E+03  0.21033074766E+03  0.91316689857E+02 0.  0.
        -13    1    3    3    0    0  0.11026066550E+02  0.76467855597E+02  0.92976048706E+02  0.12088611465E+03  0.00000000000E+00 0.  1.
         13    1    3    3    0    0 -0.55151303959E+01 -0.24566682024E+02  0.50579889038E+02  0.56500121275E+02  0.00000000000E+00 0. -1.
        -13    1    4    4    0    0  0.23556309811E+02 -0.62453685743E+02 -0.12365418231E+03  0.14051946270E+03  0.00000000000E+00 0. -1.
         13    1    4    4    0    0 -0.60336960775E+01  0.30838004766E+02 -0.62339614059E+02  0.69811284957E+02  0.00000000000E+00 0.  1.
         21    1    1    2  502  501 -0.23033549887E+02 -0.20285492596E+02 -0.25098814270E+00  0.30693788058E+02  0.00000000000E+00 0. -1.
<scales pt_clust_5="13000.00000" pt_clust_6="13000.00000" pt_clust_7="13000.00000" pt_clust_8="13000.00000" pt_clust_9="30.69276"></scales>
<clustering>
<clus scale="   30.693">  1  9  2 -1</clus>
<clus scale="   90.186">  5  6 -1 -1</clus>
<clus scale="   91.317">  7  8 -1 -1</clus>
<clus scale="   97.356">  1  5  2 -1</clus>
<clus scale="   98.405">  2  5  1 -1</clus>
</clustering>
</event>
<event>
 9    1  0.1612788E-005  0.1107549E+03  0.7546771E-02  0.1259208E+00
          1   -1    0    0  502    0  0.00000000000E+00  0.00000000000E+00  0.20730819982E+03  0.20730819982E+03  0.00000000000E+00 0. -1.
         -1   -1    0    0    0  501 -0.00000000000E+00 -0.00000000000E+00 -0.11958786953E+03  0.11958786953E+03  0.00000000000E+00 0.  1.
         23    2    1    2    0    0 -0.13213882943E+02  0.81883912597E+02 -0.28259300113E+02  0.12589300945E+03  0.90392919755E+02 0.  0.
         23    2    1    2    0    0  0.26105772038E+02 -0.53633860608E+02  0.12799384554E+03  0.16770730030E+03  0.90472160029E+02 0.  0.
        -11    1    3    3    0    0  0.14858257322E+02  0.77087738553E+02 -0.47281850185E+02  0.91645297767E+02  0.00000000000E+00 0.  1.
         11    1    3    3    0    0 -0.28072140266E+02  0.47961740441E+01  0.19022550072E+02  0.34247711687E+02  0.00000000000E+00 0. -1.
        -13    1    4    4    0    0 -0.13475610311E+02 -0.47983937428E+02  0.22106759170E+02  0.54523014639E+02  0.00000000000E+00 0. -1.
         13    1    4    4    0    0  0.39581382349E+02 -0.56499231797E+01  0.10588708637E+03  0.11318428566E+03  0.00000000000E+00 0.  1.
         21    1    1    2  502  501 -0.12891889094E+02 -0.28250051989E+02 -0.12014215140E+02  0.33295759599E+02  0.00000000000E+00 0. -1.
<scales pt_clust_5="13000.00000" pt_clust_6="13000.00000" pt_clust_7="13000.00000" pt_clust_8="13000.00000" pt_clust_9="31.05264"></scales>
<clustering>
<clus scale="   31.053">  2  9  1 -1</clus>
<clus scale="   90.393">  5  6 -1 -1</clus>
<clus scale="   90.472">  7  8 -1 -1</clus>
<clus scale="  110.690">  2  5  1 -1</clus>
<clus scale="  110.755">  1  5  2 -1</clus>
</clustering>
</event>
<event>
 9    1  0.1612788E-005  0.1072715E+03  0.7546771E-02  0.1267414E+00
          1   -1    0    0  502    0  0.00000000000E+00  0.00000000000E+00  0.16424817876E+03  0.16424817876E+03  0.00000000000E+00 0. -1.
         -1   -1    0    0    0  501 -0.00000000000E+00 -0.00000000000E+00 -0.21892507826E+03  0.21892507826E+03  0.00000000000E+00 0.  1.
         23    2    1    2    0    0  0.50553942425E+02 -0.50294999809E+02  0.96883057117E+01  0.11626577847E+03  0.91315824891E+02 0.  0.
         23    2    1    2    0    0 -0.33246546322E+02  0.36367421741E+02  0.75423157976E+02  0.12536487056E+03  0.87176693016E+02 0.  0.
        -11    1    4    4    0    0 -0.24894425727E+02 -0.18991129432E+02 -0.15252193626E+00  0.31311638289E+02  0.00000000000E+00 0.  1.
         11    1    4    4    0    0 -0.83521205944E+01  0.55358551174E+02  0.75575679912E+02  0.94053232271E+02  0.00000000000E+00 0. -1.
        -11    1    3    3    0    0  0.24021686899E+02 -0.67733815507E+02 -0.18056855106E+02  0.74101020378E+02  0.00000000000E+00 0.  1.
         11    1    3    3    0    0  0.26532255526E+02  0.17438815699E+02  0.27745160818E+02  0.42164758094E+02  0.00000000000E+00 0. -1.
         21    1    1    2  502  501 -0.17307396103E+02  0.13927578068E+02 -0.13978836319E+03  0.14154260798E+03  0.00000000000E+00 0.  1.
<scales pt_clust_5="13000.00000" pt_clust_6="13000.00000" pt_clust_7="13000.00000" pt_clust_8="13000.00000" pt_clust_9="22.21539"></scales>
<clustering>
<clus scale="   22.215">  2  9  1 -1</clus>
<clus scale="   87.177">  5  6 -1 -1</clus>
<clus scale="   91.316">  7  8 -1 -1</clus>
<clus scale="  103.771">  1  5  2 -1</clus>
<clus scale="  103.771">  1  5  2 -1</clus>
</clustering>
</event>
<event>
 9    1  0.1612788E-005  0.9753511E+02  0.7546771E-02  0.1286056E+00
          1   -1    0    0  502    0  0.00000000000E+00  0.00000000000E+00  0.44237953847E+03  0.44237953847E+03  0.00000000000E+00 0. -1.
         -1   -1    0    0    0  501 -0.00000000000E+00 -0.00000000000E+00 -0.26095656765E+03  0.26095656765E+03  0.00000000000E+00 0.  1.
         23    2    1    2    0    0  0.10806283931E+02  0.11997164360E+02 -0.23349420525E+03  0.25089665574E+03  0.90381857981E+02 0.  0.
         23    2    1    2    0    0 -0.35440181656E+02 -0.11254671457E+02  0.41662911674E+03  0.42773497805E+03  0.89413178121E+02 0.  0.
        -11    1    4    4    0    0 -0.38596280376E+02  0.33325026450E+02  0.18887046757E+03  0.19563303342E+03  0.00000000000E+00 0. -1.
         11    1    4    4    0    0  0.31560987199E+01 -0.44579697907E+02  0.22775864917E+03  0.23210194462E+03  0.00000000000E+00 0.  1.
        -11    1    3    3    0    0  0.38429775601E+01  0.38848724729E+02 -0.21263608438E+03  0.21618995414E+03  0.00000000000E+00 0.  1.
         11    1    3    3    0    0  0.69633063711E+01 -0.26851560369E+02 -0.20858120862E+02  0.34706701597E+02  0.00000000000E+00 0. -1.
         21    1    1    2  502  501  0.24633897725E+02 -0.74249290371E+00 -0.17119406745E+01  0.24704472342E+02  0.00000000000E+00 0. -1.
<scales pt_clust_5="13000.00000" pt_clust_6="13000.00000" pt_clust_7="13000.00000" pt_clust_8="13000.00000" pt_clust_9="24.64508"></scales>
<clustering>
<clus scale="   24.645">  2  9  1 -1</clus>
<clus scale="   89.413">  5  6 -1 -1</clus>
<clus scale="   90.382">  7  8 -1 -1</clus>
<clus scale="   96.638">  1  5  2 -1</clus>
<clus scale="   96.638">  1  5  2 -1</clus>
</clustering>
</event>
<event>
 9    1  0.1612788E-005  0.1155615E+03  0.7546771E-02  0.1252791E+00
         -1   -1    0    0    0  501 -0.00000000000E+00  0.00000000000E+00  0.68348573144E+02  0.68348573144E+02  0.00000000000E+00 0.  1.
          1   -1    0    0  502    0  0.00000000000E+00 -0.00000000000E+00 -0.36493494761E+03  0.36493494761E+03  0.00000000000E+00 0. -1.
         23    2    1    2    0    0 -0.62022261173E+02  0.74250699378E+02 -0.13367859929E+03  0.19155779378E+03  0.97285626942E+02 0.  0.
         23    2    1    2    0    0  0.38038551593E+02 -0.24717699175E+02 -0.15580724121E+03  0.18623560158E+03  0.91377824560E+02 0.  0.
        -11    1    4    4    0    0  0.63834244165E+02 -0.74719779115E+00 -0.77730650117E+02  0.10058540153E+03  0.00000000000E+00 0.  1.
         11    1    4    4    0    0 -0.25795692573E+02 -0.23970501384E+02 -0.78076591091E+02  0.85650200048E+02  0.00000000000E+00 0. -1.
        -13    1    3    3    0    0 -0.83061682100E+02  0.30270506031E+02 -0.83856682998E+02  0.12185027637E+03  0.00000000000E+00 0.  1.
         13    1    3    3    0    0  0.21039420927E+02  0.43980193346E+02 -0.49821916290E+02  0.69707517403E+02  0.00000000000E+00 0. -1.
         21    1    1    2  502  501  0.23983709580E+02 -0.49533000203E+02 -0.71005339661E+01  0.55490125400E+02  0.00000000000E+00 0. -1.
<scales pt_clust_5="13000.00000" pt_clust_6="13000.00000" pt_clust_7="13000.00000" pt_clust_8="13000.00000" pt_clust_9="55.03396"></scales>
<clustering>
<clus scale="   55.034">  1  9  2 -1</clus>
<clus scale="   91.378">  5  6 -1 -1</clus>
<clus scale="   97.286">  7  8 -1 -1</clus>
<clus scale="  110.634">  2  5  1 -1</clus>
<clus scale="  110.634">  2  5  1 -1</clus>
</clustering>
</event>
<event>
 9    1  0.1612788E-005  0.1020246E+03  0.7546771E-02  0.1277039E+00
         -1   -1    0    0    0  501 -0.00000000000E+00  0.00000000000E+00  0.69445547077E+02  0.69445547077E+02  0.00000000000E+00 0.  1.
          1   -1    0    0  502    0  0.00000000000E+00 -0.00000000000E+00 -0.26458720885E+03  0.26458720885E+03  0.00000000000E+00 0. -1.
         23    2    1    2    0    0 -0.26975902084E+02  0.46529510284E+02 -0.33894508197E+02  0.10994272212E+03  0.89698772790E+02 0.  0.
         23    2    1    2    0    0  0.40599921034E+02 -0.17089381151E+02 -0.16237820841E+03  0.19163060713E+03  0.91734434557E+02 0.  0.
        -11    1    4    4    0    0  0.66622044047E+01  0.37168528291E+02 -0.59432152166E+02  0.70413529765E+02  0.00000000000E+00 0.  1.
         11    1    4    4    0    0  0.33937716629E+02 -0.54257909442E+02 -0.10294605625E+03  0.12121707736E+03  0.00000000000E+00 0. -1.
        -11    1    3    3    0    0 -0.10083333967E+02  0.66516192431E+02 -0.19602883860E+00  0.67276414193E+02  0.00000000000E+00 0.  1.
         11    1    3    3    0    0 -0.16892568117E+02 -0.19986682146E+02 -0.33698479359E+02  0.42666307924E+02  0.00000000000E+00 0. -1.
         21    1    1    2  502  501 -0.13624018950E+02 -0.29440129133E+02  0.11310548368E+01  0.32459426686E+02  0.00000000000E+00 0.  1.
<scales pt_clust_5="13000.00000" pt_clust_6="13000.00000" pt_clust_7="13000.00000" pt_clust_8="13000.00000" pt_clust_9="32.43971"></scales>
<clustering>
<clus scale="   32.440">  1  9  2 -1</clus>
<clus scale="   89.699">  7  8 -1 -1</clus>
<clus scale="   91.734">  5  6 -1 -1</clus>
<clus scale="  100.198">  1  7  2 -1</clus>
<clus scale="  102.025">  2  5  1 -1</clus>
</clustering>
</event>
<event>
 9    1  0.1612788E-005  0.1083621E+03  0.7546771E-02  0.1269510E+00
         -3   -1    0    0    0  501 -0.00000000000E+00  0.00000000000E+00  0.31802447292E+02  0.31802447292E+02  0.00000000000E+00 0.  1.
          3   -1    0    0  502    0  0.00000000000E+00 -0.00000000000E+00 -0.71394498471E+03  0.71394498471E+03  0.00000000000E+00 0. -1.
         23    2    1    2    0    0 -0.24831037065E+02  0.61778046234E+02 -0.22996465236E+03  0.25696882589E+03  0.93360209650E+02 0.  0.
         23    2    1    2    0    0 -0.18919429717E+02 -0.30363903884E+00 -0.30724237064E+03  0.32537876087E+03  0.10542972396E+03 0.  0.
        -11    1    4    4    0    0  0.36072085740E+02  0.25589003885E+02 -0.16205501499E+03  0.16798160725E+03  0.00000000000E+00 0.  1.
         11    1    4    4    0    0 -0.54991515458E+02 -0.25892642923E+02 -0.14518735565E+03  0.15739715363E+03  0.00000000000E+00 0. -1.
        -11    1    3    3    0    0  0.10974241414E+02 -0.17445990578E+02 -0.16246146595E+02  0.26243739082E+02  0.00000000000E+00 0.  1.
         11    1    3    3    0    0 -0.35805278479E+02  0.79224036812E+02 -0.21371850577E+03  0.23072508681E+03  0.00000000000E+00 0. -1.
         21    1    1    2  502  501  0.43750466782E+02 -0.61474407195E+02 -0.14493551442E+03  0.16339984524E+03  0.00000000000E+00 0.  1.
<scales pt_clust_5="13000.00000" pt_clust_6="13000.00000" pt_clust_7="13000.00000" pt_clust_8="13000.00000" pt_clust_9="75.45334"></scales>
<clustering>
<clus scale="   75.453">  1  9  2 -1</clus>
<clus scale="   93.360">  7  8 -1 -1</clus>
<clus scale="   96.659">  1  7  2 -1</clus>
<clus scale="  105.430">  5  6 -1 -1</clus>
<clus scale="  108.362">  2  5  1 -1</clus>
</clustering>
</event>
<event>
 9    1  0.1612788E-005  0.1421247E+03  0.7546771E-02  0.1210811E+00
          1   -1    0    0  502    0  0.00000000000E+00  0.00000000000E+00  0.15058829108E+03  0.15058829108E+03  0.00000000000E+00 0. -1.
         -1   -1    0    0    0  501 -0.00000000000E+00 -0.00000000000E+00 -0.33103104933E+03  0.33103104933E+03  0.00000000000E+00 0.  1.
         23    2    1    2    0    0 -0.77912961844E+01  0.14722901540E+03 -0.40643209031E+02  0.17897517882E+03  0.92968580282E+02 0.  0.
         23    2    1    2    0    0  0.46534210288E+02 -0.76107935893E+02  0.12163739522E+02  0.13044641925E+03  0.94395238774E+02 0.  0.
        -13    1    4    4    0    0  0.16807279254E+02  0.18360213595E+02 -0.13256100356E+02  0.28201175078E+02  0.00000000000E+00 0.  1.
         13    1    4    4    0    0  0.29726931034E+02 -0.94468149489E+02  0.25419839878E+02  0.10224524417E+03  0.00000000000E+00 0. -1.
        -13    1    3    3    0    0 -0.27037344582E+02  0.80613525873E+02 -0.63327954811E+02  0.10601881161E+03  0.00000000000E+00 0.  1.
         13    1    3    3    0    0  0.19246048397E+02  0.66615489528E+02  0.22684745781E+02  0.72956367200E+02  0.00000000000E+00 0. -1.
         21    1    1    2  502  501 -0.38742914104E+02 -0.71121079507E+02 -0.15196328874E+03  0.17219774234E+03  0.00000000000E+00 0. -1.
<scales pt_clust_5="13000.00000" pt_clust_6="13000.00000" pt_clust_7="13000.00000" pt_clust_8="13000.00000" pt_clust_9="80.98902"></scales>
<clustering>
<clus scale="   80.989">  2  9  1 -1</clus>
<clus scale="   92.969">  7  8 -1 -1</clus>
<clus scale="   94.395">  5  6 -1 -1</clus>
<clus scale="  141.181">  2  7  1 -1</clus>
<clus scale="  142.125">  1  5  2 -1</clus>
</clustering>
</event>
<event>
 9    1  0.1612788E-005  0.1053111E+03  0.7546771E-02  0.1269778E+00
         -1   -1    0    0    0  501 -0.00000000000E+00  0.00000000000E+00  0.50643655830E+03  0.50643655830E+03  0.00000000000E+00 0.  1.
          1   -1    0    0  502    0  0.00000000000E+00 -0.00000000000E+00 -0.39798068207E+02  0.39798068207E+02  0.00000000000E+00 0. -1.
         23    2    1    2    0    0 -0.18105731706E+02 -0.59985345625E+02  0.32651471447E+03  0.34468085843E+03  0.90922913444E+02 0.  0.
         23    2    1    2    0    0 -0.13274199392E+02  0.28051515379E+02  0.74206846809E+02  0.12186994856E+03  0.91556192379E+02 0.  0.
        -11    1    4    4    0    0 -0.43848670971E+02 -0.12369938781E+02  0.40882006365E+02  0.61213232032E+02  0.00000000000E+00 0.  1.
         11    1    4    4    0    0  0.30574471579E+02  0.40421454160E+02  0.33324840444E+02  0.60656716523E+02  0.00000000000E+00 0. -1.
        -11    1    3    3    0    0 -0.27969744434E+02  0.15995386799E+02  0.12518243932E+03  0.12926253176E+03  0.00000000000E+00 0. -1.
         11    1    3    3    0    0  0.98640127280E+01 -0.75980732425E+02  0.20133227515E+03  0.21541832667E+03  0.00000000000E+00 0.  1.
         21    1    1    2  502  501  0.31379931098E+02  0.31933830246E+02  0.65916928812E+02  0.79683819523E+02  0.00000000000E+00 0. -1.
<scales pt_clust_5="13000.00000" pt_clust_6="13000.00000" pt_clust_7="13000.00000" pt_clust_8="13000.00000" pt_clust_9="44.77130"></scales>
<clustering>
<clus scale="   44.771">  2  9  1 -1</clus>
<clus scale="   90.923">  7  8 -1 -1</clus>
<clus scale="   91.556">  5  6 -1 -1</clus>
<clus scale="  104.761">  1  7  2 -1</clus>
<clus scale="   44.771">  2  5  1 -1</clus>
</clustering>
</event>
<event>
 9    1  0.1612788E-005  0.9784115E+02  0.7546771E-02  0.1285076E+00
         -1   -1    0    0    0  501 -0.00000000000E+00  0.00000000000E+00  0.54113290224E+02  0.54113290224E+02  0.00000000000E+00 0.  1.
          1   -1    0    0  502    0  0.00000000000E+00 -0.00000000000E+00 -0.24483219421E+03  0.24483219421E+03  0.00000000000E+00 0. -1.
         23    2    1    2    0    0 -0.25422994919E+02 -0.16555237303E+02 -0.78817606062E+02  0.12438190304E+03  0.91313954168E+02 0.  0.
         23    2    1    2    0    0  0.16292195979E+02  0.38625628585E+02 -0.11255448089E+03  0.15067006118E+03  0.90970222237E+02 0.  0.
        -11    1    4    4    0    0  0.32797591150E+02  0.59086327743E+02 -0.54063993584E+02  0.86543581586E+02  0.00000000000E+00 0.  1.
         11    1    4    4    0    0 -0.16505395171E+02 -0.20460699159E+02 -0.58490487302E+02  0.64126479591E+02  0.00000000000E+00 0. -1.
        -11    1    3    3    0    0 -0.59304872249E+02 -0.25058877811E+01 -0.44935007041E+02  0.74447983208E+02  0.00000000000E+00 0.  1.
         11    1    3    3    0    0  0.33881877330E+02 -0.14049349522E+02 -0.33882599021E+02  0.49933919832E+02  0.00000000000E+00 0. -1.
         21    1    1    2  502  501  0.91307989393E+01 -0.22070391282E+02  0.65318295821E+00  0.23893520221E+02  0.00000000000E+00 0.  1.
<scales pt_clust_5="13000.00000" pt_clust_6="13000.00000" pt_clust_7="13000.00000" pt_clust_8="13000.00000" pt_clust_9="23.88459"></scales>
<clustering>
<clus scale="   23.885">  1  9  2 -1</clus>
<clus scale="   90.970">  5  6 -1 -1</clus>
<clus scale="   91.314">  7  8 -1 -1</clus>
<clus scale="   97.520">  2  5  1 -1</clus>
<clus scale="   97.520">  2  5  1 -1</clus>
</clustering>
</event>
<event>
 9    1  0.1612788E-005  0.9566066E+02  0.7546771E-02  0.1295399E+00
         -2   -1    0    0    0  501 -0.00000000000E+00  0.00000000000E+00  0.77994948777E+02  0.77994948777E+02  0.00000000000E+00 0.  1.
          2   -1    0    0  502    0  0.00000000000E+00 -0.00000000000E+00 -0.53311097539E+03  0.53311097539E+03  0.00000000000E+00 0. -1.
         23    2    1    2    0    0 -0.58629624476E+02 -0.61118450961E+02 -0.96178371800E+02  0.15810965992E+03  0.92603927800E+02 0.  0.
         23    2    1    2    0    0  0.12433776445E+02  0.83652916264E+01 -0.37227250420E+03  0.38161860385E+03  0.82591552355E+02 0.  0.
        -11    1    3    3    0    0 -0.24380935099E+02 -0.23901125537E+02  0.13981203910E+02  0.36894008470E+02  0.00000000000E+00 0.  1.
         11    1    3    3    0    0 -0.34248689377E+02 -0.37217325424E+02 -0.11015957571E+03  0.12121565145E+03  0.00000000000E+00 0. -1.
        -13    1    4    4    0    0 -0.21821994470E+02 -0.26080858249E+02 -0.12072191257E+03  0.12542005734E+03  0.00000000000E+00 0.  1.
         13    1    4    4    0    0  0.34255770915E+02  0.34446149876E+02 -0.25155059163E+03  0.25619854651E+03  0.00000000000E+00 0. -1.
         21    1    1    2  502  501  0.46195848032E+02  0.52753159334E+02  0.13334849390E+02  0.71377660394E+02  0.00000000000E+00 0. -1.
<scales pt_clust_5="13000.00000" pt_clust_6="13000.00000" pt_clust_7="13000.00000" pt_clust_8="13000.00000" pt_clust_9="70.12098"></scales>
<clustering>
<clus scale="   70.121">  1  9  2 -1</clus>
<clus scale="   82.592">  7  8 -1 -1</clus>
<clus scale="   86.005">  2  7  1 -1</clus>
<clus scale="   92.604">  5  6 -1 -1</clus>
<clus scale="   86.005">  2  5  1 -1</clus>
</clustering>
</event>
<event>
 9    1  0.1612788E-005  0.1619516E+03  0.7546771E-02  0.1186772E+00
          1   -1    0    0  502    0  0.00000000000E+00  0.00000000000E+00  0.70061004192E+03  0.70061004192E+03  0.00000000000E+00 0. -1.
         -1   -1    0    0    0  501 -0.00000000000E+00 -0.00000000000E+00 -0.84378481383E+02  0.84378481383E+02  0.00000000000E+00 0.  1.
         23    2    1    2    0    0 -0.61644556198E+02 -0.10090420002E+03  0.13945645417E+03  0.20329857641E+03  0.88884754993E+02 0.  0.
         23    2    1    2    0    0  0.65258844750E+02  0.12504174831E+03  0.51205366038E+03  0.53879168710E+03  0.90572486697E+02 0.  0.
        -13    1    3    3    0    0 -0.21789170998E+02 -0.25731748506E+02  0.10707874146E+03  0.11226196028E+03  0.00000000000E+00 0. -1.
         13    1    3    3    0    0 -0.39855385200E+02 -0.75172451512E+02  0.32377712714E+02  0.91036616130E+02  0.00000000000E+00 0.  1.
        -13    1    4    4    0    0  0.35568964169E+02  0.12747069886E+03  0.46163900770E+03  0.48023380109E+03  0.00000000000E+00 0.  1.
         13    1    4    4    0    0  0.29689880580E+02 -0.24289505504E+01  0.50414652683E+02  0.58557886017E+02  0.00000000000E+00 0. -1.
         21    1    1    2  502  501 -0.36142885511E+01 -0.24137548288E+02 -0.35278554017E+02  0.42898259785E+02  0.00000000000E+00 0. -1.
<scales pt_clust_5="13000.00000" pt_clust_6="13000.00000" pt_clust_7="13000.00000" pt_clust_8="13000.00000" pt_clust_9="24.40664"></scales>
<clustering>
<clus scale="   24.407">  2  9  1 -1</clus>
<clus scale="   88.885">  5  6 -1 -1</clus>
<clus scale="   90.572">  7  8 -1 -1</clus>
<clus scale="  161.014">  2  5  1 -1</clus>
<clus scale="  161.952">  1  5  2 -1</clus>
</clustering>
</event>
<event>
 9    1  0.1612788E-005  0.1094811E+03  0.7546771E-02  0.1261831E+00
          2   -1    0    0  502    0  0.00000000000E+00  0.00000000000E+00  0.12649451693E+03  0.12649451693E+03  0.00000000000E+00 0. -1.
         -2   -1    0    0    0  501 -0.00000000000E+00 -0.00000000000E+00 -0.15508628688E+03  0.15508628688E+03  0.00000000000E+00 0.  1.
         23    2    1    2    0    0 -0.34409211163E+02  0.19840929422E+02 -0.60438683511E+02  0.11693734890E+03  0.91890439162E+02 0.  0.
         23    2    1    2    0    0  0.61381653133E+02 -0.27770715807E+02  0.57056148745E+02  0.12688236811E+03  0.91130737018E+02 0.  0.
        -11    1    4    4    0    0  0.84137147843E+02 -0.11667332190E+02  0.48026534950E+02  0.97579374598E+02  0.00000000000E+00 0.  1.
         11    1    4    4    0    0 -0.22755494710E+02 -0.16103383617E+02  0.90296137951E+01  0.29302993511E+02  0.00000000000E+00 0. -1.
        -11    1    3    3    0    0  0.26171362684E+02 -0.14739761606E+02 -0.22523690639E+02  0.37543540549E+02  0.00000000000E+00 0.  1.
         11    1    3    3    0    0 -0.60580573847E+02  0.34580691028E+02 -0.37914992872E+02  0.79393808348E+02  0.00000000000E+00 0. -1.
         21    1    1    2  502  501 -0.26972441971E+02  0.79297863853E+01 -0.25209235188E+02  0.37761086806E+02  0.00000000000E+00 0. -1.
<scales pt_clust_5="13000.00000" pt_clust_6="13000.00000" pt_clust_7="13000.00000" pt_clust_8="13000.00000" pt_clust_9="28.11395"></scales>
<clustering>
<clus scale="   28.114">  2  9  1 -1</clus>
<clus scale="   91.131">  5  6 -1 -1</clus>
<clus scale="   91.890">  7  8 -1 -1</clus>
<clus scale="  108.844">  1  5  2 -1</clus>
<clus scale="  108.844">  1  5  2 -1</clus>
</clustering>
</event>
<event>
 9    1  0.1612788E-005  0.1346845E+03  0.7546771E-02  0.1220785E+00
         -2   -1    0    0    0  501 -0.00000000000E+00  0.00000000000E+00  0.10623629910E+03  0.10623629910E+03  0.00000000000E+00 0.  1.
          2   -1    0    0  502    0  0.00000000000E+00 -0.00000000000E+00 -0.41052008757E+03  0.41052008757E+03  0.00000000000E+00 0. -1.
         23    2    1    2    0    0 -0.89665186108E+02  0.60471113740E+02 -0.92810450434E+02  0.16901236376E+03  0.90855919992E+02 0.  0.
         23    2    1    2    0    0  0.30588850712E+01 -0.11163880138E+03 -0.19983792137E+03  0.24648116418E+03  0.91352015442E+02 0.  0.
        -11    1    4    4    0    0  0.29177671440E+02 -0.99629685385E+02 -0.18923480686E+03  0.21584073491E+03  0.00000000000E+00 0.  1.
         11    1    4    4    0    0 -0.26118786369E+02 -0.12009115996E+02 -0.10603114516E+02  0.30640429270E+02  0.00000000000E+00 0. -1.
        -13    1    3    3    0    0 -0.30000609741E+02  0.66847455671E+02 -0.22649217041E+02  0.76691628925E+02  0.00000000000E+00 0. -1.
         13    1    3    3    0    0 -0.59664576366E+02 -0.63763419314E+01 -0.70161233392E+02  0.92320734835E+02  0.00000000000E+00 0.  1.
         21    1    1    2  502  501  0.86606301036E+02  0.51167687642E+02 -0.11635416671E+02  0.10126285873E+03  0.00000000000E+00 0.  1.
<scales pt_clust_5="13000.00000" pt_clust_6="13000.00000" pt_clust_7="13000.00000" pt_clust_8="13000.00000" pt_clust_9="100.59216"></scales>
<clustering>
<clus scale="   90.856">  7  8 -1 -1</clus>
<clus scale="   91.352">  5  6 -1 -1</clus>
<clus scale="  100.592">  1  9  2 -1</clus>
<clus scale="  134.348">  1  7  2 -1</clus>
<clus scale="  134.684">  2  5  1 -1</clus>
</clustering>
</event>
<event>
 9    1  0.1612788E-005  0.1060102E+03  0.7546771E-02  0.1268343E+00
         -1   -1    0    0    0  501 -0.00000000000E+00  0.00000000000E+00  0.62884195949E+02  0.62884195949E+02  0.00000000000E+00 0.  1.
          1   -1    0    0  502    0  0.00000000000E+00 -0.00000000000E+00 -0.33382394391E+03  0.33382394391E+03  0.00000000000E+00 0. -1.
         23    2    1    2    0    0 -0.39275338246E+01 -0.65080968393E+02 -0.23956217035E+02  0.11381211361E+03  0.90157300873E+02 0.  0.
         23    2    1    2    0    0 -0.17541091368E+01  0.26312165519E+02 -0.20590665140E+03  0.22612797912E+03  0.89671104030E+02 0.  0.
        -11    1    4    4    0    0 -0.45527484664E+02  0.90778752550E+01 -0.10269064027E+03  0.11269661609E+03  0.00000000000E+00 0. -1.
         11    1    4    4    0    0  0.43773375527E+02  0.17234290264E+02 -0.10321601113E+03  0.11343136303E+03  0.00000000000E+00 0.  1.
        -11    1    3    3    0    0  0.21730787882E+02 -0.77137970287E+02 -0.62426903936E+01  0.80383236967E+02  0.00000000000E+00 0.  1.
         11    1    3    3    0    0 -0.25658321707E+02  0.12057001894E+02 -0.17713526641E+02  0.33428876642E+02  0.00000000000E+00 0. -1.
         21    1    1    2  502  501  0.56816429614E+01  0.38768802874E+02 -0.41076879527E+02  0.56768047127E+02  0.00000000000E+00 0. -1.
<scales pt_clust_5="13000.00000" pt_clust_6="13000.00000" pt_clust_7="13000.00000" pt_clust_8="13000.00000" pt_clust_9="39.18292"></scales>
<clustering>
<clus scale="   39.183">  2  9  1 -1</clus>
<clus scale="   89.671">  5  6 -1 -1</clus>
<clus scale="   90.157">  7  8 -1 -1</clus>
<clus scale="  105.597">  2  5  1 -1</clus>
<clus scale="   39.183">  2  5  1 -1</clus>
</clustering>
</event>
<event>
 9    1  0.1612788E-005  0.9464685E+02  0.7546771E-02  0.1295082E+00
          2   -1    0    0  502    0  0.00000000000E+00  0.00000000000E+00  0.73018488036E+02  0.73018488036E+02  0.00000000000E+00 0. -1.
         -2   -1    0    0    0  501 -0.00000000000E+00 -0.00000000000E+00 -0.34470266020E+03  0.34470266020E+03  0.00000000000E+00 0.  1.
         23    2    1    2    0    0 -0.92779454249E+00 -0.20411628167E+01 -0.86209553529E+02  0.12664497079E+03  0.92746074623E+02 0.  0.
         23    2    1    2    0    0 -0.25621149940E+02 -0.68730071213E+01  0.11636504190E+02  0.91985485499E+02  0.87305439473E+02 0.  0.
        -11    1    4    4    0    0 -0.57247152296E+02  0.11348563027E+01 -0.26301786725E+00  0.57259003862E+02  0.00000000000E+00 0.  1.
         11    1    4    4    0    0  0.31626002357E+02 -0.80078634240E+01  0.11899522058E+02  0.34726481637E+02  0.00000000000E+00 0. -1.
        -11    1    3    3    0    0 -0.28194521390E+02  0.30501686081E+02 -0.15828901898E+02  0.44450399610E+02  0.00000000000E+00 0.  1.
         11    1    3    3    0    0  0.27266726847E+02 -0.32542848897E+02 -0.70380651631E+02  0.82194571179E+02  0.00000000000E+00 0. -1.
         21    1    1    2  502  501  0.26548944482E+02  0.89141699380E+01 -0.19711112283E+03  0.19909069195E+03  0.00000000000E+00 0.  1.
<scales pt_clust_5="13000.00000" pt_clust_6="13000.00000" pt_clust_7="13000.00000" pt_clust_8="13000.00000" pt_clust_9="28.00552"></scales>
<clustering>
<clus scale="   28.006">  2  9  1 -1</clus>
<clus scale="   87.305">  5  6 -1 -1</clus>
<clus scale="   89.322">  1  5  2 -1</clus>
<clus scale="   92.746">  7  8 -1 -1</clus>
<clus scale="   89.322">  1  5  2 -1</clus>
</clustering>
</event>
<event>
 9    1  0.1612788E-005  0.9529175E+02  0.7546771E-02  0.1291405E+00
         -2   -1    0    0    0  501 -0.00000000000E+00  0.00000000000E+00  0.40341234096E+02  0.40341234096E+02  0.00000000000E+00 0.  1.
          2   -1    0    0  502    0  0.00000000000E+00 -0.00000000000E+00 -0.32501121795E+03  0.32501121795E+03  0.00000000000E+00 0. -1.
         23    2    1    2    0    0 -0.28312726306E+02  0.14394957825E+00 -0.73370032533E+02  0.12070953974E+03  0.91575106432E+02 0.  0.
         23    2    1    2    0    0  0.19712311616E+02 -0.20111889288E+02 -0.19764748454E+03  0.21897044459E+03  0.89947007403E+02 0.  0.
        -11    1    4    4    0    0 -0.39616082584E+00  0.35222696765E+02 -0.80093787529E+02  0.87497486316E+02  0.00000000000E+00 0.  1.
         11    1    4    4    0    0  0.20108472442E+02 -0.55334586053E+02 -0.11755369701E+03  0.13147295828E+03  0.00000000000E+00 0. -1.
        -13    1    3    3    0    0  0.15627478390E+02 -0.25128943573E+02  0.22440111861E+01  0.29676884475E+02  0.00000000000E+00 0. -1.
         13    1    3    3    0    0 -0.43940204696E+02  0.25272893152E+02 -0.75614043719E+02  0.91032655265E+02  0.00000000000E+00 0.  1.
         21    1    1    2  502  501  0.86004146900E+01  0.19967939710E+02 -0.13652466777E+02  0.25672467707E+02  0.00000000000E+00 0. -1.
<scales pt_clust_5="13000.00000" pt_clust_6="13000.00000" pt_clust_7="13000.00000" pt_clust_8="13000.00000" pt_clust_9="21.74134"></scales>
<clustering>
<clus scale="   21.741">  1  9  2 -1</clus>
<clus scale="   89.947">  5  6 -1 -1</clus>
<clus scale="   91.575">  7  8 -1 -1</clus>
<clus scale="   93.728">  2  5  1 -1</clus>
<clus scale="   93.728">  2  5  1 -1</clus>
</clustering>
</event>
<event>
 9    1  0.1612788E-005  0.9460464E+02  0.7546771E-02  0.1293436E+00
          1   -1    0    0  502    0  0.00000000000E+00  0.00000000000E+00  0.85336193187E+02  0.85336193187E+02  0.00000000000E+00 0. -1.
         -1   -1    0    0    0  501 -0.00000000000E+00 -0.00000000000E+00 -0.27631589411E+03  0.27631589411E+03  0.00000000000E+00 0.  1.
         23    2    1    2    0    0 -0.41084518615E+02  0.19169771769E+02 -0.10599195381E+03  0.14470125463E+03  0.87457080890E+02 0.  0.
         23    2    1    2    0    0  0.25817605217E+02  0.89814019488E+01  0.29122601489E+02  0.98431893747E+02  0.89963867575E+02 0.  0.
        -11    1    4    4    0    0 -0.55765739006E+01 -0.24345352543E+02 -0.19469342050E+02  0.31667801420E+02  0.00000000000E+00 0.  1.
         11    1    4    4    0    0  0.31394179118E+02  0.33326754492E+02  0.48591943539E+02  0.66764092328E+02  0.00000000000E+00 0. -1.
        -13    1    3    3    0    0  0.19334824498E+02 -0.58052015759E+01 -0.22988911936E-01  0.20187529126E+02  0.00000000000E+00 0.  1.
         13    1    3    3    0    0 -0.60419343113E+02  0.24974973345E+02 -0.10596896490E+03  0.12451372550E+03  0.00000000000E+00 0. -1.
         21    1    1    2  502  501  0.15266913397E+02 -0.28151173718E+02 -0.11411034860E+03  0.11851893893E+03  0.00000000000E+00 0.  1.
<scales pt_clust_5="13000.00000" pt_clust_6="13000.00000" pt_clust_7="13000.00000" pt_clust_8="13000.00000" pt_clust_9="32.02448"></scales>
<clustering>
<clus scale="   32.024">  2  9  1 -1</clus>
<clus scale="   87.457">  7  8 -1 -1</clus>
<clus scale="   89.964">  5  6 -1 -1</clus>
<clus scale="   92.224">  2  7  1 -1</clus>
<clus scale="   94.605">  1  5  2 -1</clus>
</clustering>
</event>
<event>
 9    1  0.1612788E-005  0.9360612E+02  0.7546771E-02  0.1295413E+00
         -1   -1    0    0    0  501 -0.00000000000E+00  0.00000000000E+00  0.13774886185E+03  0.13774886185E+03  0.00000000000E+00 0.  1.
          1   -1    0    0  502    0  0.00000000000E+00 -0.00000000000E+00 -0.13997805521E+03  0.13997805521E+03  0.00000000000E+00 0. -1.
         23    2    1    2    0    0  0.20746666243E+01  0.87688234564E+00 -0.22553051430E+02  0.95628841605E+02  0.92904047563E+02 0.  0.
         23    2    1    2    0    0  0.20742989101E+02 -0.54069022012E+01 -0.51373690183E+02  0.10672099061E+03  0.91052773741E+02 0.  0.
        -13    1    4    4    0    0  0.29208776740E+02 -0.32826866824E+02  0.42352572621E+01  0.44144005575E+02  0.00000000000E+00 0. -1.
         13    1    4    4    0    0 -0.84657876388E+01  0.27419964623E+02 -0.55608947445E+02  0.62576985036E+02  0.00000000000E+00 0.  1.
        -13    1    3    3    0    0  0.20806173216E+02 -0.10961361806E+02  0.30278520950E+02  0.38338454943E+02  0.00000000000E+00 0.  1.
         13    1    3    3    0    0 -0.18731506592E+02  0.11838244151E+02 -0.52831572379E+02  0.57290386662E+02  0.00000000000E+00 0. -1.
         21    1    1    2  502  501 -0.22817655726E+02  0.45300198556E+01  0.71697548262E+02  0.75377084843E+02  0.00000000000E+00 0.  1.
<scales pt_clust_5="13000.00000" pt_clust_6="13000.00000" pt_clust_7="13000.00000" pt_clust_8="13000.00000" pt_clust_9="23.26299"></scales>
<clustering>
<clus scale="   23.263">  1  9  2 -1</clus>
<clus scale="   91.053">  5  6 -1 -1</clus>
<clus scale="   91.769">  2  5  1 -1</clus>
<clus scale="   92.904">  7  8 -1 -1</clus>
<clus scale="   91.769">  2  5  1 -1</clus>
</clustering>
</event>
<event>
 9    1  0.1612788E-005  0.9230582E+02  0.7546771E-02  0.1297691E+00
         -1   -1    0    0    0  501 -0.00000000000E+00  0.00000000000E+00  0.60440873309E+02  0.60440873309E+02  0.00000000000E+00 0.  1.
          1   -1    0    0  502    0  0.00000000000E+00 -0.00000000000E+00 -0.30628348565E+03  0.30628348565E+03  0.00000000000E+00 0. -1.
         23    2    1    2    0    0  0.99450419448E+01  0.17810580619E+02 -0.74078542674E+02  0.11917651193E+03  0.91100438359E+02 0.  0.
         23    2    1    2    0    0 -0.11132466565E+02  0.10648494853E+02 -0.19151930342E+03  0.21288377031E+03  0.91665336010E+02 0.  0.
        -11    1    3    3    0    0  0.44324110225E+02  0.24262117900E+02 -0.19111327758E+02  0.54023327933E+02  0.00000000000E+00 0. -1.
         11    1    3    3    0    0 -0.34379068280E+02 -0.64515372805E+01 -0.54967214916E+02  0.65153183995E+02  0.00000000000E+00 0.  1.
        -13    1    4    4    0    0  0.15003534640E+01  0.46802945195E+02 -0.14637556301E+03  0.15368335038E+03  0.00000000000E+00 0. -1.
         13    1    4    4    0    0 -0.12632820029E+02 -0.36154450342E+02 -0.45143740413E+02  0.59200419930E+02  0.00000000000E+00 0.  1.
         21    1    1    2  502  501  0.11874246198E+01 -0.28459075472E+02  0.19755233754E+02  0.34664076717E+02  0.00000000000E+00 0.  1.
<scales pt_clust_5="13000.00000" pt_clust_6="13000.00000" pt_clust_7="13000.00000" pt_clust_8="13000.00000" pt_clust_9="28.48384"></scales>
<clustering>
<clus scale="   28.484">  1  9  2 -1</clus>
<clus scale="   91.100">  5  6 -1 -1</clus>
<clus scale="   91.665">  7  8 -1 -1</clus>
<clus scale="   91.745">  1  5  2 -1</clus>
<clus scale="   92.306">  2  5  1 -1</clus>
</clustering>
</event>
<event>
 9    1  0.1612788E-005  0.9217918E+02  0.7546771E-02  0.1298488E+00
          1   -1    0    0  502    0  0.00000000000E+00  0.00000000000E+00  0.34095566348E+03  0.34095566348E+03  0.00000000000E+00 0. -1.
         -1   -1    0    0    0  501 -0.00000000000E+00 -0.00000000000E+00 -0.39418765153E+02  0.39418765153E+02  0.00000000000E+00 0.  1.
         23    2    1    2    0    0 -0.49655571896E+01 -0.11685284584E+02  0.12750543200E+03  0.15772113170E+03  0.91962587831E+02 0.  0.
         23    2    1    2    0    0 -0.13635651042E+02 -0.15794528933E+02  0.16309815051E+03  0.18771503005E+03  0.90556764968E+02 0.  0.
        -11    1    4    4    0    0 -0.38743662525E+02 -0.59907299637E+01  0.15453952564E+03  0.15943470518E+03  0.00000000000E+00 0. -1.
         11    1    4    4    0    0  0.25108011484E+02 -0.98037989688E+01  0.85586248749E+01  0.28280324868E+02  0.00000000000E+00 0.  1.
        -13    1    3    3    0    0 -0.36599772535E+02  0.16612737363E+02  0.98299447593E+02  0.10619937754E+03  0.00000000000E+00 0. -1.
         13    1    3    3    0    0  0.31634215345E+02 -0.28298021947E+02  0.29205984408E+02  0.51521754161E+02  0.00000000000E+00 0.  1.
         21    1    1    2  502  501  0.18601208232E+02  0.27479813516E+02  0.10933315816E+02  0.34938266890E+02  0.00000000000E+00 0.  1.
<scales pt_clust_5="13000.00000" pt_clust_6="13000.00000" pt_clust_7="13000.00000" pt_clust_8="13000.00000" pt_clust_9="33.18351"></scales>
<clustering>
<clus scale="   33.184">  2  9  1 -1</clus>
<clus scale="   90.557">  5  6 -1 -1</clus>
<clus scale="   90.777">  1  5  2 -1</clus>
<clus scale="   91.963">  7  8 -1 -1</clus>
<clus scale="   90.777">  1  5  2 -1</clus>
</clustering>
</event>
<event>
 9    1  0.1612788E-005  0.1375756E+03  0.7546771E-02  0.1216677E+00
         -1   -1    0    0    0  501 -0.00000000000E+00  0.00000000000E+00  0.42459449311E+03  0.42459449311E+03  0.00000000000E+00 0.  1.
          1   -1    0    0  502    0  0.00000000000E+00 -0.00000000000E+00 -0.78388663322E+02  0.78388663322E+02  0.00000000000E+00 0. -1.
         23    2    1    2    0    0 -0.43739285561E+02  0.10123789376E+03  0.21641839116E+03  0.26320720362E+03  0.10138479062E+03 0.  0.
         23    2    1    2    0    0  0.43504811680E+02 -0.75512026669E+02  0.30202063172E+02  0.13692109284E+03  0.10119528761E+03 0.  0.
        -11    1    4    4    0    0  0.29574084071E+02  0.99561869501E+01  0.38922539064E+02  0.49887033931E+02  0.00000000000E+00 0.  1.
         11    1    4    4    0    0  0.13930727609E+02 -0.85468213619E+02 -0.87204758925E+01  0.87034058912E+02  0.00000000000E+00 0. -1.
        -11    1    3    3    0    0 -0.66120753095E+02  0.91174459066E+02  0.20926169817E+03  0.23764510156E+03  0.00000000000E+00 0.  1.
         11    1    3    3    0    0  0.22381467534E+02  0.10063434694E+02  0.71566929904E+01  0.25562102053E+02  0.00000000000E+00 0. -1.
         21    1    1    2  502  501  0.23447388070E+00 -0.25725867091E+02  0.99585375458E+02  0.10285485998E+03  0.00000000000E+00 0.  1.
<scales pt_clust_5="13000.00000" pt_clust_6="13000.00000" pt_clust_7="13000.00000" pt_clust_8="13000.00000" pt_clust_9="25.72694"></scales>
<clustering>
<clus scale="   25.727">  1  9  2 -1</clus>
<clus scale="  101.195">  5  6 -1 -1</clus>
<clus scale="  101.385">  7  8 -1 -1</clus>
<clus scale="  137.436">  2  5  1 -1</clus>
<clus scale="  137.436">  2  5  1 -1</clus>
</clustering>
</event>
<event>
 9    1  0.1612788E-005  0.1861460E+03  0.7546771E-02  0.1163369E+00
         -1   -1    0    0    0  501 -0.00000000000E+00  0.00000000000E+00  0.51244703657E+02  0.51244703657E+02  0.00000000000E+00 0.  1.
          1   -1    0    0  502    0  0.00000000000E+00 -0.00000000000E+00 -0.94184134517E+03  0.94184134517E+03  0.00000000000E+00 0. -1.
         23    2    1    2    0    0 -0.99991627537E+02  0.13853138105E+03 -0.32381879169E+03  0.37703793281E+03  0.90054004996E+02 0.  0.
         23    2    1    2    0    0  0.79608498610E+02 -0.12540248709E+03 -0.56361304304E+03  0.59159702599E+03  0.10131180611E+03 0.  0.
        -11    1    4    4    0    0  0.54077107082E+02 -0.94157541494E+02 -0.52371403134E+03  0.53485172035E+03  0.00000000000E+00 0. -1.
         11    1    4    4    0    0  0.25531391527E+02 -0.31244945592E+02 -0.39899011697E+02  0.56745305645E+02  0.00000000000E+00 0.  1.
        -11    1    3    3    0    0 -0.51677109977E+02  0.78282091843E+01 -0.68438716069E+02  0.86114240470E+02  0.00000000000E+00 0. -1.
         11    1    3    3    0    0 -0.48314517560E+02  0.13070317186E+03 -0.25538007562E+03  0.29092369234E+03  0.00000000000E+00 0.  1.
         21    1    1    2  502  501  0.20383128927E+02 -0.13128893963E+02 -0.31648067864E+01  0.24451090028E+02  0.00000000000E+00 0. -1.
<scales pt_clust_5="13000.00000" pt_clust_6="13000.00000" pt_clust_7="13000.00000" pt_clust_8="13000.00000" pt_clust_9="24.24541"></scales>
<clustering>
<clus scale="   24.245">  1  9  2 -1</clus>
<clus scale="   90.054">  7  8 -1 -1</clus>
<clus scale="  101.312">  5  6 -1 -1</clus>
<clus scale="  180.266">  1  7  2 -1</clus>
<clus scale="  186.146">  2  5  1 -1</clus>
</clustering>
</event>
<event>
 9    1  0.1612788E-005  0.9829845E+02  0.7546771E-02  0.1285560E+00
          1   -1    0    0  502    0  0.00000000000E+00  0.00000000000E+00  0.27883652525E+03  0.27883652525E+03  0.00000000000E+00 0. -1.
         -1   -1    0    0    0  501 -0.00000000000E+00 -0.00000000000E+00 -0.48422524770E+02  0.48422524770E+02  0.00000000000E+00 0.  1.
         23    2    1    2    0    0  0.17742833437E+02  0.24696561595E+02  0.65004383811E+02  0.11615448674E+03  0.91332177142E+02 0.  0.
         23    2    1    2    0    0 -0.30080527429E+02 -0.34769895877E+00  0.14987488416E+03  0.17969733929E+03  0.94465304861E+02 0.  0.
        -11    1    3    3    0    0 -0.35812953624E+02  0.38755718598E+01  0.38978300901E+02  0.53074434954E+02  0.00000000000E+00 0. -1.
         11    1    3    3    0    0  0.53555787061E+02  0.20820989735E+02  0.26026082910E+02  0.63080051783E+02  0.00000000000E+00 0.  1.
        -11    1    4    4    0    0 -0.53682589299E+02  0.19790914013E+01  0.14612480451E+03  0.15568620906E+03  0.00000000000E+00 0. -1.
         11    1    4    4    0    0  0.23602061869E+02 -0.23267903601E+01  0.37500796454E+01  0.24011130236E+02  0.00000000000E+00 0.  1.
         21    1    1    2  502  501  0.12337693992E+02 -0.24348862636E+02  0.15534732513E+02  0.31407223993E+02  0.00000000000E+00 0. -1.
<scales pt_clust_5="13000.00000" pt_clust_6="13000.00000" pt_clust_7="13000.00000" pt_clust_8="13000.00000" pt_clust_9="27.29626"></scales>
<clustering>
<clus scale="   27.296">  2  9  1 -1</clus>
<clus scale="   91.332">  5  6 -1 -1</clus>
<clus scale="   94.465">  7  8 -1 -1</clus>
<clus scale="   95.291">  2  5  1 -1</clus>
<clus scale="   98.298">  1  5  2 -1</clus>
</clustering>
</event>
<event>
 9    1  0.1612788E-005  0.1202576E+03  0.7546771E-02  0.1243423E+00
         -3   -1    0    0    0  501 -0.00000000000E+00  0.00000000000E+00  0.29274545125E+03  0.29274545125E+03  0.00000000000E+00 0.  1.
          3   -1    0    0  502    0  0.00000000000E+00 -0.00000000000E+00 -0.61879574423E+02  0.61879574423E+02  0.00000000000E+00 0. -1.
         23    2    1    2    0    0 -0.42702028577E+02 -0.74018469934E+02  0.13901206345E+03  0.18672722954E+03  0.90777240161E+02 0.  0.
         23    2    1    2    0    0  0.18467466830E+02  0.62296535160E+02  0.72146319140E+02  0.13453459684E+03  0.93126584587E+02 0.  0.
        -11    1    4    4    0    0  0.52792423208E+02  0.16246962266E+02  0.27009010375E+02  0.61485692421E+02  0.00000000000E+00 0.  1.
         11    1    4    4    0    0 -0.34324956378E+02  0.46049572894E+02  0.45137308765E+02  0.73048904417E+02  0.00000000000E+00 0. -1.
        -13    1    3    3    0    0 -0.13219587782E+02 -0.73237831927E+02  0.13850179979E+03  0.15723004188E+03  0.00000000000E+00 0.  1.
         13    1    3    3    0    0 -0.29482440794E+02 -0.78063800765E+00  0.51026366795E+00  0.29497187661E+02  0.00000000000E+00 0. -1.
         21    1    1    2  502  501  0.24234561747E+02  0.11721934775E+02  0.19707494229E+02  0.33363199287E+02  0.00000000000E+00 0.  1.
<scales pt_clust_5="13000.00000" pt_clust_6="13000.00000" pt_clust_7="13000.00000" pt_clust_8="13000.00000" pt_clust_9="26.92058"></scales>
<clustering>
<clus scale="   26.921">  2  9  1 -1</clus>
<clus scale="   90.777">  7  8 -1 -1</clus>
<clus scale="   93.127">  5  6 -1 -1</clus>
<clus scale="  118.448">  1  7  2 -1</clus>
<clus scale="   26.921">  2  5  1 -1</clus>
</clustering>
</event>
<event>
 9    1  0.1612788E-005  0.1013368E+03  0.7546771E-02  0.1277924E+00
         -1   -1    0    0    0  501 -0.00000000000E+00  0.00000000000E+00  0.94358507137E+02  0.94358507137E+02  0.00000000000E+00 0.  1.
          1   -1    0    0  502    0  0.00000000000E+00 -0.00000000000E+00 -0.25156445233E+03  0.25156445233E+03  0.00000000000E+00 0. -1.
         23    2    1    2    0    0  0.45446716791E+02  0.13659765006E+02 -0.10601347995E+03  0.14882611588E+03  0.93050317518E+02 0.  0.
         23    2    1    2    0    0 -0.25620017124E+02 -0.24522904507E+02 -0.10169615616E+03  0.14176395450E+03  0.92180000506E+02 0.  0.
        -11    1    3    3    0    0  0.22347632797E+02  0.45210634069E+02 -0.96032529359E+02  0.10846964930E+03  0.00000000000E+00 0. -1.
         11    1    3    3    0    0  0.23099083994E+02 -0.31550869063E+02 -0.99809505876E+01  0.40356466578E+02  0.00000000000E+00 0.  1.
        -13    1    4    4    0    0 -0.45859087015E+02 -0.28928370470E+02 -0.20498935882E+02  0.57966480419E+02  0.00000000000E+00 0. -1.
         13    1    4    4    0    0  0.20239069891E+02  0.44054659626E+01 -0.81197220280E+02  0.83797474077E+02  0.00000000000E+00 0.  1.
         21    1    1    2  502  501 -0.19826699667E+02  0.10863139502E+02  0.50503690914E+02  0.55332889094E+02  0.00000000000E+00 0.  1.
<scales pt_clust_5="13000.00000" pt_clust_6="13000.00000" pt_clust_7="13000.00000" pt_clust_8="13000.00000" pt_clust_9="22.60765"></scales>
<clustering>
<clus scale="   22.608">  1  9  2 -1</clus>
<clus scale="   92.180">  7  8 -1 -1</clus>
<clus scale="   93.050">  5  6 -1 -1</clus>
<clus scale="  100.538">  2  7  1 -1</clus>
<clus scale="  100.538">  2  5  1 -1</clus>
</clustering>
</event>
<event>
 9    1  0.1612788E-005  0.1486442E+03  0.7546771E-02  0.1219781E+00
          4   -1    0    0  502    0  0.00000000000E+00  0.00000000000E+00  0.22986541151E+03  0.22986541151E+03  0.00000000000E+00 0. -1.
         -4   -1    0    0    0  501 -0.00000000000E+00 -0.00000000000E+00 -0.21808171588E+03  0.21808171588E+03  0.00000000000E+00 0.  1.
         23    2    1    2    0    0  0.15785297516E+02  0.40879034184E+02 -0.38178000050E+02  0.10897592191E+03  0.92184167918E+02 0.  0.
         23    2    1    2    0    0  0.72844631060E+02 -0.97454798137E+02  0.13490037612E+03  0.20380219741E+03  0.92376654178E+02 0.  0.
        -11    1    3    3    0    0  0.25037515210E+02  0.67639107310E+02 -0.35913486841E+02  0.80571114816E+02  0.00000000000E+00 0.  1.
         11    1    3    3    0    0 -0.92522176937E+01 -0.26760073126E+02 -0.22645132095E+01  0.28404807094E+02  0.00000000000E+00 0. -1.
        -11    1    4    4    0    0  0.81646932574E+02 -0.64300388624E+02  0.56651249139E+02  0.11836437642E+03  0.00000000000E+00 0. -1.
         11    1    4    4    0    0 -0.88023015144E+01 -0.33154409512E+02  0.78249126982E+02  0.85437820990E+02  0.00000000000E+00 0.  1.
         21    1    1    2  502  501 -0.88629928576E+02  0.56575763952E+02 -0.84938680441E+02  0.13516900806E+03  0.00000000000E+00 0.  1.
<scales pt_clust_5="13000.00000" pt_clust_6="13000.00000" pt_clust_7="13000.00000" pt_clust_8="13000.00000" pt_clust_9="116.45445"></scales>
<clustering>
<clus scale="   92.184">  5  6 -1 -1</clus>
<clus scale="   92.377">  7  8 -1 -1</clus>
<clus scale="  102.070">  2  5  1 -1</clus>
<clus scale="  116.454">  2  9  1 -1</clus>
<clus scale="  148.644">  1  5  2 -1</clus>
</clustering>
</event>
<event>
 9    1  0.1612788E-005  0.1140154E+03  0.7546771E-02  0.1253329E+00
          1   -1    0    0  502    0  0.00000000000E+00  0.00000000000E+00  0.17022541145E+03  0.17022541145E+03  0.00000000000E+00 0. -1.
         -1   -1    0    0    0  501 -0.00000000000E+00 -0.00000000000E+00 -0.12302222253E+03  0.12302222253E+03  0.00000000000E+00 0.  1.
         23    2    1    2    0    0  0.62831109842E+02  0.85828116152E+01 -0.16354500739E+02  0.11312790437E+03  0.92244458013E+02 0.  0.
         23    2    1    2    0    0 -0.64057112655E+02  0.36615929399E+02  0.65033161668E+02  0.13488029670E+03  0.92300283614E+02 0.  0.
        -11    1    4    4    0    0 -0.32613794991E+02  0.51510515841E+02  0.76885455901E+02  0.98124238570E+02  0.00000000000E+00 0. -1.
         11    1    4    4    0    0 -0.31443317664E+02 -0.14894586443E+02 -0.11852294232E+02  0.36756058134E+02  0.00000000000E+00 0.  1.
        -11    1    3    3    0    0  0.20736010457E+02 -0.39311256480E+02  0.74508208629E+01  0.45065194410E+02  0.00000000000E+00 0.  1.
         11    1    3    3    0    0  0.42095099385E+02  0.47894068095E+02 -0.23805321602E+02  0.68062709963E+02  0.00000000000E+00 0. -1.
         21    1    1    2  502  501  0.12260028129E+01 -0.45198741014E+02 -0.14754720077E+01  0.45239432908E+02  0.00000000000E+00 0.  1.
<scales pt_clust_5="13000.00000" pt_clust_6="13000.00000" pt_clust_7="13000.00000" pt_clust_8="13000.00000" pt_clust_9="45.21537"></scales>
<clustering>
<clus scale="   45.215">  2  9  1 -1</clus>
<clus scale="   92.244">  7  8 -1 -1</clus>
<clus scale="   92.300">  5  6 -1 -1</clus>
<clus scale="  113.970">  2  7  1 -1</clus>
<clus scale="  114.015">  1  5  2 -1</clus>
</clustering>
</event>
<event>
 9    1  0.1612788E-005  0.1439465E+03  0.7546771E-02  0.1208687E+00
          1   -1    0    0  502    0  0.00000000000E+00  0.00000000000E+00  0.18474264566E+03  0.18474264566E+03  0.00000000000E+00 0. -1.
         -1   -1    0    0    0  501 -0.00000000000E+00 -0.00000000000E+00 -0.38344066687E+03  0.38344066687E+03  0.00000000000E+00 0.  1.
         23    2    1    2    0    0 -0.48138302419E+01 -0.12131416297E+03  0.52600333706E+01  0.15290005888E+03  0.92792569499E+02 0.  0.
         23    2    1    2    0    0  0.43004469922E+02  0.92931047741E+02  0.56170177052E+02  0.15083888695E+03  0.95455313937E+02 0.  0.
        -11    1    4    4    0    0 -0.26648183603E+02  0.53802772448E+02  0.21934699930E+02  0.63921788722E+02  0.00000000000E+00 0.  1.
         11    1    4    4    0    0  0.69652653526E+02  0.39128275293E+02  0.34235477122E+02  0.86917098228E+02  0.00000000000E+00 0. -1.
        -11    1    3    3    0    0 -0.24074214212E+02 -0.99846002645E+02 -0.30328780671E+02  0.10709167555E+03  0.00000000000E+00 0.  1.
         11    1    3    3    0    0  0.19260383970E+02 -0.21468160326E+02  0.35588814042E+02  0.45808383330E+02  0.00000000000E+00 0. -1.
         21    1    1    2  502  501 -0.38190639681E+02  0.28383115230E+02 -0.26012823163E+03  0.26444436670E+03  0.00000000000E+00 0.  1.
<scales pt_clust_5="13000.00000" pt_clust_6="13000.00000" pt_clust_7="13000.00000" pt_clust_8="13000.00000" pt_clust_9="47.58284"></scales>
<clustering>
<clus scale="   47.583">  2  9  1 -1</clus>
<clus scale="   92.793">  7  8 -1 -1</clus>
<clus scale="   95.455">  5  6 -1 -1</clus>
<clus scale="  142.195">  2  7  1 -1</clus>
<clus scale="  143.947">  1  5  2 -1</clus>
</clustering>
</event>
<event>
 9    1  0.1612788E-005  0.9850638E+02  0.7546771E-02  0.1284952E+00
         -1   -1    0    0    0  501 -0.00000000000E+00  0.00000000000E+00  0.19107453056E+03  0.19107453056E+03  0.00000000000E+00 0.  1.
          1   -1    0    0  502    0  0.00000000000E+00 -0.00000000000E+00 -0.45009349810E+03  0.45009349810E+03  0.00000000000E+00 0. -1.
         23    2    1    2    0    0 -0.12079486493E+03  0.85505813786E+01  0.10724930565E+03  0.18484569533E+03  0.89448340863E+02 0.  0.
         23    2    1    2    0    0  0.29540468850E+02  0.77673572437E+01 -0.34864266085E+03  0.36195972350E+03  0.92358894162E+02 0.  0.
        -13    1    4    4    0    0  0.28189591749E+02  0.47968678672E+02 -0.17116260564E+03  0.17997856757E+03  0.00000000000E+00 0.  1.
         13    1    4    4    0    0  0.13508771009E+01 -0.40201321429E+02 -0.17748005522E+03  0.18198115593E+03  0.00000000000E+00 0. -1.
        -13    1    3    3    0    0 -0.11175787000E+03  0.29455921706E+02  0.55299875405E+02  0.12812317921E+03  0.00000000000E+00 0.  1.
         13    1    3    3    0    0 -0.90369949257E+01 -0.20905340328E+02  0.51949430250E+02  0.56722516119E+02  0.00000000000E+00 0. -1.
         21    1    1    2  502  501  0.91254396079E+02 -0.16317938622E+02 -0.17625612342E+02  0.94362609836E+02  0.00000000000E+00 0. -1.
<scales pt_clust_5="13000.00000" pt_clust_6="13000.00000" pt_clust_7="13000.00000" pt_clust_8="13000.00000" pt_clust_9="92.70189"></scales>
<clustering>
<clus scale="   89.448">  7  8 -1 -1</clus>
<clus scale="   92.359">  5  6 -1 -1</clus>
<clus scale="   92.702">  1  9  2 -1</clus>
<clus scale="   95.783">  1  7  2 -1</clus>
<clus scale="   98.506">  2  5  1 -1</clus>
</clustering>
</event>
<event>
 9    1  0.1612788E-005  0.9634266E+02  0.7546771E-02  0.1288550E+00
         -2   -1    0    0    0  501 -0.00000000000E+00  0.00000000000E+00  0.57404494492E+02  0.57404494492E+02  0.00000000000E+00 0.  1.
          2   -1    0    0  502    0  0.00000000000E+00 -0.00000000000E+00 -0.21247643606E+03  0.21247643606E+03  0.00000000000E+00 0. -1.
         23    2    1    2    0    0  0.38952460051E+02  0.15882443091E+02 -0.70044472497E+02  0.12271553241E+03  0.91560513458E+02 0.  0.
         23    2    1    2    0    0 -0.12695119634E+02 -0.17269050636E+02 -0.71553533929E+02  0.11762022029E+03  0.90858251304E+02 0.  0.
        -11    1    3    3    0    0  0.10932764003E+02 -0.18512049561E+02  0.15396521094E+02  0.26443792645E+02  0.00000000000E+00 0.  1.
         11    1    3    3    0    0  0.28019696048E+02  0.34394492652E+02 -0.85440993591E+02  0.96271739764E+02  0.00000000000E+00 0. -1.
        -13    1    4    4    0    0 -0.44092660083E+02  0.13582081993E+02 -0.51815572815E+02  0.69379313996E+02  0.00000000000E+00 0.  1.
         13    1    4    4    0    0  0.31397540449E+02 -0.30851132629E+02 -0.19737961114E+02  0.48240906290E+02  0.00000000000E+00 0. -1.
         21    1    1    2  502  501 -0.26257340417E+02  0.13866075452E+01 -0.13473935139E+02  0.29545177853E+02  0.00000000000E+00 0.  1.
<scales pt_clust_5="13000.00000" pt_clust_6="13000.00000" pt_clust_7="13000.00000" pt_clust_8="13000.00000" pt_clust_9="26.29393"></scales>
<clustering>
<clus scale="   26.294">  1  9  2 -1</clus>
<clus scale="   90.858">  7  8 -1 -1</clus>
<clus scale="   91.561">  5  6 -1 -1</clus>
<clus scale="   95.676">  2  7  1 -1</clus>
<clus scale="   95.676">  2  5  1 -1</clus>
</clustering>
</event>
<event>
 9    1  0.1612788E-005  0.9571067E+02  0.7546771E-02  0.1290368E+00
          1   -1    0    0  502    0  0.00000000000E+00  0.00000000000E+00  0.19652515462E+03  0.19652515462E+03  0.00000000000E+00 0. -1.
         -1   -1    0    0    0  501 -0.00000000000E+00 -0.00000000000E+00 -0.93198667630E+02  0.93198667630E+02  0.00000000000E+00 0.  1.
         23    2    1    2    0    0 -0.66609419347E+01  0.94370114124E+01 -0.93302097719E+01  0.93258429808E+02  0.92068760087E+02 0.  0.
         23    2    1    2    0    0 -0.10748278646E+02 -0.22338682451E+02  0.13451754896E+03  0.16568502636E+03  0.93498741994E+02 0.  0.
        -11    1    3    3    0    0  0.16058060401E+02 -0.33803904758E+02  0.12909071021E+02  0.39587995596E+02  0.00000000000E+00 0.  1.
         11    1    3    3    0    0 -0.22719002335E+02  0.43240916170E+02 -0.22239280793E+02  0.53670434212E+02  0.00000000000E+00 0. -1.
        -13    1    4    4    0    0  0.62192214330E+01  0.19730871891E+02  0.11406363497E+03  0.11592453944E+03  0.00000000000E+00 0.  1.
         13    1    4    4    0    0 -0.16967500079E+02 -0.42069554342E+02  0.20453913989E+02  0.49760486924E+02  0.00000000000E+00 0. -1.
         21    1    1    2  502  501  0.17409220581E+02  0.12901671039E+02 -0.21860852203E+02  0.30780366077E+02  0.00000000000E+00 0.  1.
<scales pt_clust_5="13000.00000" pt_clust_6="13000.00000" pt_clust_7="13000.00000" pt_clust_8="13000.00000" pt_clust_9="21.66874"></scales>
<clustering>
<clus scale="   21.669">  2  9  1 -1</clus>
<clus scale="   92.069">  5  6 -1 -1</clus>
<clus scale="   93.499">  7  8 -1 -1</clus>
<clus scale="   94.314">  2  5  1 -1</clus>
<clus scale="   95.711">  1  5  2 -1</clus>
</clustering>
</event>
<event>
 9    1  0.1612788E-005  0.1741449E+03  0.7546771E-02  0.1200603E+00
          2   -1    0    0  502    0  0.00000000000E+00  0.00000000000E+00  0.10899170985E+04  0.10899170985E+04  0.00000000000E+00 0. -1.
         -2   -1    0    0    0  501 -0.00000000000E+00 -0.00000000000E+00 -0.66108527013E+02  0.66108527013E+02  0.00000000000E+00 0.  1.
         23    2    1    2    0    0 -0.10297833492E+02 -0.50673246567E+01  0.87012720102E+02  0.12926085749E+03  0.94896958147E+02 0.  0.
         23    2    1    2    0    0  0.10948784820E+03 -0.10135211510E+03  0.82491350348E+03  0.84323979440E+03  0.91165906380E+02 0.  0.
        -11    1    3    3    0    0 -0.46194071149E+02  0.42807059707E+01  0.78530448262E+02  0.91209911507E+02  0.00000000000E+00 0.  1.
         11    1    3    3    0    0  0.35896237657E+02 -0.93480306273E+01  0.84822718394E+01  0.38050945982E+02  0.00000000000E+00 0. -1.
        -13    1    4    4    0    0  0.99770627080E+02 -0.31974386139E+02  0.50087776831E+03  0.51171777201E+03  0.00000000000E+00 0. -1.
         13    1    4    4    0    0  0.97172211151E+01 -0.69377728959E+02  0.32403573517E+03  0.33152202239E+03  0.00000000000E+00 0.  1.
         21    1    1    2  502  501 -0.99190014704E+02  0.10641943976E+03  0.11188234792E+03  0.18352497364E+03  0.00000000000E+00 0.  1.
<scales pt_clust_5="13000.00000" pt_clust_6="13000.00000" pt_clust_7="13000.00000" pt_clust_8="13000.00000" pt_clust_9="148.37522"></scales>
<clustering>
<clus scale="   91.166">  7  8 -1 -1</clus>
<clus scale="   94.897">  5  6 -1 -1</clus>
<clus scale="   95.588">  2  5  1 -1</clus>
<clus scale="  148.375">  2  9  1 -1</clus>
<clus scale="  174.145">  1  5  2 -1</clus>
</clustering>
</event>
<event>
 9    1  0.1612788E-005  0.1480694E+03  0.7546771E-02  0.1202867E+00
          2   -1    0    0  502    0  0.00000000000E+00  0.00000000000E+00  0.59708579716E+03  0.59708579716E+03  0.00000000000E+00 0. -1.
         -2   -1    0    0    0  501 -0.00000000000E+00 -0.00000000000E+00 -0.57484723197E+02  0.57484723197E+02  0.00000000000E+00 0.  1.
         23    2    1    2    0    0 -0.34218342929E+02 -0.10909584374E+03  0.12919430984E+03  0.19520800903E+03  0.91335639164E+02 0.  0.
         23    2    1    2    0    0  0.12522032903E+02  0.11739256704E+03  0.40978571293E+03  0.43612566148E+03  0.91342465342E+02 0.  0.
        -11    1    3    3    0    0 -0.26327554303E+02 -0.33801695376E+01  0.67550251022E+02  0.72578247945E+02  0.00000000000E+00 0.  1.
         11    1    3    3    0    0 -0.78907886264E+01 -0.10571567420E+03  0.61644058817E+02  0.12262976108E+03  0.00000000000E+00 0. -1.
        -13    1    4    4    0    0  0.37762850191E+02  0.53425975279E+02  0.10528673595E+03  0.12395831742E+03  0.00000000000E+00 0.  1.
         13    1    4    4    0    0 -0.25240817288E+02  0.63966591759E+02  0.30449897698E+03  0.31216734407E+03  0.00000000000E+00 0. -1.
         21    1    1    2  502  501  0.21696310026E+02 -0.82967233018E+01  0.62105119358E+00  0.23236849849E+02  0.00000000000E+00 0. -1.
<scales pt_clust_5="13000.00000" pt_clust_6="13000.00000" pt_clust_7="13000.00000" pt_clust_8="13000.00000" pt_clust_9="23.22855"></scales>
<clustering>
<clus scale="   23.229">  2  9  1 -1</clus>
<clus scale="   91.336">  5  6 -1 -1</clus>
<clus scale="   91.342">  7  8 -1 -1</clus>
<clus scale="  148.065">  2  5  1 -1</clus>
<clus scale="  148.069">  1  5  2 -1</clus>
</clustering>
</event>
<event>
 9    1  0.1612788E-005  0.9755713E+02  0.7546771E-02  0.1286168E+00
         -2   -1    0    0    0  501 -0.00000000000E+00  0.00000000000E+00  0.79671908937E+02  0.79671908937E+02  0.00000000000E+00 0.  1.
          2   -1    0    0  502    0  0.00000000000E+00 -0.00000000000E+00 -0.18168389907E+03  0.18168389907E+03  0.00000000000E+00 0. -1.
         23    2    1    2    0    0 -0.22386992817E+02  0.43138813581E+01  0.55804882512E+01  0.94522517770E+02  0.91561877966E+02 0.  0.
         23    2    1    2    0    0  0.20371495516E+02 -0.28538411819E+02 -0.10115309643E+03  0.14168660566E+03  0.92810056170E+02 0.  0.
        -11    1    4    4    0    0  0.29897779236E+02 -0.59143430274E+02 -0.58984529323E+02  0.88718640923E+02  0.00000000000E+00 0.  1.
         11    1    4    4    0    0 -0.95262837194E+01  0.30605018455E+02 -0.42168567108E+02  0.52967964734E+02  0.00000000000E+00 0. -1.
        -13    1    3    3    0    0  0.33691267714E+02  0.11527197349E+02 -0.77267677573E+01  0.36437353621E+02  0.00000000000E+00 0. -1.
         13    1    3    3    0    0 -0.56078260531E+02 -0.72133159908E+01  0.13307256008E+02  0.58085164149E+02  0.00000000000E+00 0.  1.
         21    1    1    2  502  501  0.20154973003E+01  0.24224530461E+02 -0.64393819526E+01  0.25146684580E+02  0.00000000000E+00 0.  1.
<scales pt_clust_5="13000.00000" pt_clust_6="13000.00000" pt_clust_7="13000.00000" pt_clust_8="13000.00000" pt_clust_9="24.30823"></scales>
<clustering>
<clus scale="   24.308">  1  9  2 -1</clus>
<clus scale="   91.562">  7  8 -1 -1</clus>
<clus scale="   92.810">  5  6 -1 -1</clus>
<clus scale="   96.370">  1  7  2 -1</clus>
<clus scale="   97.557">  2  5  1 -1</clus>
</clustering>
</event>
<event>
 9    1  0.1612788E-005  0.1627216E+03  0.7546771E-02  0.1185698E+00
         -1   -1    0    0    0  501 -0.00000000000E+00  0.00000000000E+00  0.19485712160E+03  0.19485712160E+03  0.00000000000E+00 0.  1.
          1   -1    0    0  502    0  0.00000000000E+00 -0.00000000000E+00 -0.21982692023E+03  0.21982692023E+03  0.00000000000E+00 0. -1.
         23    2    1    2    0    0 -0.91175641888E+02  0.35920838392E+02  0.13940652975E+02  0.13460708480E+03  0.91221823964E+02 0.  0.
         23    2    1    2    0    0  0.14811338863E+03 -0.81928928876E+02 -0.63886481509E+02  0.20273063544E+03  0.91478427776E+02 0.  0.
        -11    1    3    3    0    0 -0.57740473766E+02  0.57012589121E+02  0.36627432266E+02  0.89027896883E+02  0.00000000000E+00 0.  1.
         11    1    3    3    0    0 -0.33435168122E+02 -0.21091750729E+02 -0.22686779291E+02  0.45579187912E+02  0.00000000000E+00 0. -1.
        -13    1    4    4    0    0  0.37106302450E+02 -0.69041929587E+02 -0.11188382640E+02  0.79176042012E+02  0.00000000000E+00 0. -1.
         13    1    4    4    0    0  0.11100708618E+03 -0.12886999289E+02 -0.52698098869E+02  0.12355459343E+03  0.00000000000E+00 0.  1.
         21    1    1    2  502  501 -0.56937746746E+02  0.46008090484E+02  0.24976029900E+02  0.77346321593E+02  0.00000000000E+00 0. -1.
<scales pt_clust_5="13000.00000" pt_clust_6="13000.00000" pt_clust_7="13000.00000" pt_clust_8="13000.00000" pt_clust_9="73.20281"></scales>
<clustering>
<clus scale="   73.203">  1  9  2 -1</clus>
<clus scale="   91.222">  5  6 -1 -1</clus>
<clus scale="   91.478">  7  8 -1 -1</clus>
<clus scale="  162.578">  1  5  2 -1</clus>
<clus scale="  162.722">  2  5  1 -1</clus>
</clustering>
</event>
<event>
 9    1  0.1612788E-005  0.1970272E+03  0.7546771E-02  0.1152581E+00
         -1   -1    0    0    0  501 -0.00000000000E+00  0.00000000000E+00  0.19828120150E+03  0.19828120150E+03  0.00000000000E+00 0.  1.
          1   -1    0    0  502    0  0.00000000000E+00 -0.00000000000E+00 -0.24478763428E+03  0.24478763428E+03  0.00000000000E+00 0. -1.
         23    2    1    2    0    0 -0.66590002050E+02  0.16332132681E+03  0.24398284180E+02  0.20004221555E+03  0.91178547746E+02 0.  0.
         23    2    1    2    0    0  0.35891711143E+02 -0.16829649108E+03 -0.78010427923E+02  0.21112633100E+03  0.94216648943E+02 0.  0.
        -11    1    4    4    0    0 -0.21669540428E+02 -0.64939153168E+02  0.16885776739E+01  0.68480025489E+02  0.00000000000E+00 0. -1.
         11    1    4    4    0    0  0.57561251571E+02 -0.10335733792E+03 -0.79699005597E+02  0.14264630551E+03  0.00000000000E+00 0.  1.
        -11    1    3    3    0    0 -0.84501243987E+01  0.11969498806E+03  0.38462091982E+02  0.12600645733E+03  0.00000000000E+00 0. -1.
         11    1    3    3    0    0 -0.58139877651E+02  0.43626338747E+02 -0.14063807802E+02  0.74035758223E+02  0.00000000000E+00 0.  1.
         21    1    1    2  502  501  0.30698290907E+02  0.49751642757E+01  0.71057109715E+01  0.31900289224E+02  0.00000000000E+00 0. -1.
<scales pt_clust_5="13000.00000" pt_clust_6="13000.00000" pt_clust_7="13000.00000" pt_clust_8="13000.00000" pt_clust_9="31.09883"></scales>
<clustering>
<clus scale="   31.099">  1  9  2 -1</clus>
<clus scale="   91.179">  7  8 -1 -1</clus>
<clus scale="   94.217">  5  6 -1 -1</clus>
<clus scale="  195.593">  1  7  2 -1</clus>
<clus scale="  197.027">  2  5  1 -1</clus>
</clustering>
</event>
<event>
 9    1  0.1612788E-005  0.1028719E+03  0.7546771E-02  0.1274640E+00
         -2   -1    0    0    0  501 -0.00000000000E+00  0.00000000000E+00  0.13019957763E+03  0.13019957763E+03  0.00000000000E+00 0.  1.
          2   -1    0    0  502    0  0.00000000000E+00 -0.00000000000E+00 -0.39641151179E+03  0.39641151179E+03  0.00000000000E+00 0. -1.
         23    2    1    2    0    0  0.27997165172E+02 -0.13041679647E+02 -0.11201125005E+03  0.14689565460E+03  0.89877063464E+02 0.  0.
         23    2    1    2    0    0 -0.58012475468E+02 -0.42503051763E+02 -0.24397221273E+03  0.26996543078E+03  0.90481691597E+02 0.  0.
        -11    1    4    4    0    0 -0.80608650807E+02 -0.28118870408E+02 -0.21009360440E+03  0.22677686846E+03  0.00000000000E+00 0. -1.
         11    1    4    4    0    0  0.22596175339E+02 -0.14384181355E+02 -0.33878608322E+02  0.43188562317E+02  0.00000000000E+00 0.  1.
        -13    1    3    3    0    0  0.35004160991E+02  0.31796216905E+02 -0.40823805234E+02  0.62472984321E+02  0.00000000000E+00 0.  1.
         13    1    3    3    0    0 -0.70069958195E+01 -0.44837896553E+02 -0.71187444811E+02  0.84422670276E+02  0.00000000000E+00 0. -1.
         21    1    1    2  502  501  0.30015310297E+02  0.55544731410E+02  0.89771528613E+02  0.10975000405E+03  0.00000000000E+00 0.  1.
<scales pt_clust_5="13000.00000" pt_clust_6="13000.00000" pt_clust_7="13000.00000" pt_clust_8="13000.00000" pt_clust_9="63.13585"></scales>
<clustering>
<clus scale="   63.136">  1  9  2 -1</clus>
<clus scale="   89.877">  7  8 -1 -1</clus>
<clus scale="   90.482">  5  6 -1 -1</clus>
<clus scale="  102.340">  1  7  2 -1</clus>
<clus scale="  102.872">  2  5  1 -1</clus>
</clustering>
</event>
<event>
 9    1  0.1612788E-005  0.8915126E+02  0.7546771E-02  0.1305292E+00
          3   -1    0    0  502    0  0.00000000000E+00  0.00000000000E+00  0.34769954261E+02  0.34769954261E+02  0.00000000000E+00 0. -1.
         -3   -1    0    0    0  501 -0.00000000000E+00 -0.00000000000E+00 -0.37032128094E+03  0.37032128094E+03  0.00000000000E+00 0.  1.
         23    2    1    2    0    0  0.47811561765E+00  0.21995520332E+02 -0.23884360796E+03  0.25509304818E+03  0.86845625424E+02 0.  0.
         23    2    1    2    0    0  0.20210071829E+02 -0.12544173932E+02 -0.63281369026E+02  0.10956738315E+03  0.86224570052E+02 0.  0.
        -11    1    4    4    0    0  0.34464695167E+02  0.13664026498E+02 -0.69794898460E+02  0.79030681916E+02  0.00000000000E+00 0.  1.
         11    1    4    4    0    0 -0.14254623338E+02 -0.26208200430E+02  0.65135294344E+01  0.30536701230E+02  0.00000000000E+00 0. -1.
        -13    1    3    3    0    0  0.34523062036E+02  0.33751289641E+02 -0.17758059101E+03  0.18402678520E+03  0.00000000000E+00 0.  1.
         13    1    3    3    0    0 -0.34044946418E+02 -0.11755769309E+02 -0.61263016949E+02  0.71066262983E+02  0.00000000000E+00 0. -1.
         21    1    1    2  502  501 -0.20688187446E+02 -0.94513463995E+01 -0.33426349695E+02  0.40430803881E+02  0.00000000000E+00 0.  1.
<scales pt_clust_5="13000.00000" pt_clust_6="13000.00000" pt_clust_7="13000.00000" pt_clust_8="13000.00000" pt_clust_9="22.74487"></scales>
<clustering>
<clus scale="   22.745">  1  9  2 -1</clus>
<clus scale="   86.225">  5  6 -1 -1</clus>
<clus scale="   86.846">  7  8 -1 -1</clus>
<clus scale="   88.546">  1  5  2 -1</clus>
<clus scale="   22.745">  1  5  2 -1</clus>
</clustering>
</event>
<event>
 9    1  0.1612788E-005  0.1153888E+03  0.7546771E-02  0.1251237E+00
         -1   -1    0    0    0  501 -0.00000000000E+00  0.00000000000E+00  0.11426393964E+03  0.11426393964E+03  0.00000000000E+00 0.  1.
          1   -1    0    0  502    0  0.00000000000E+00 -0.00000000000E+00 -0.27273277387E+03  0.27273277387E+03  0.00000000000E+00 0. -1.
         23    2    1    2    0    0 -0.18222184341E+02 -0.31488198602E+02  0.41681175558E+02  0.10901135725E+03  0.93928701467E+02 0.  0.
         23    2    1    2    0    0  0.30506334042E+02  0.66786340843E+02 -0.20838665136E+03  0.23971393816E+03  0.92987762331E+02 0.  0.
        -11    1    3    3    0    0 -0.48079625364E+02 -0.46865988023E+02  0.28022590722E+02  0.72755321450E+02  0.00000000000E+00 0.  1.
         11    1    3    3    0    0  0.29857441023E+02  0.15377789421E+02  0.13658584836E+02  0.36256035796E+02  0.00000000000E+00 0. -1.
        -13    1    4    4    0    0  0.50439597097E+02  0.71486953340E+02 -0.19859677975E+03  0.21701432759E+03  0.00000000000E+00 0. -1.
         13    1    4    4    0    0 -0.19933263055E+02 -0.47006124970E+01 -0.97898716140E+01  0.22699610572E+02  0.00000000000E+00 0.  1.
         21    1    1    2  502  501 -0.12284149701E+02 -0.35298142241E+02  0.82366415691E+01  0.38271418107E+02  0.00000000000E+00 0.  1.
<scales pt_clust_5="13000.00000" pt_clust_6="13000.00000" pt_clust_7="13000.00000" pt_clust_8="13000.00000" pt_clust_9="37.37458"></scales>
<clustering>
<clus scale="   37.375">  1  9  2 -1</clus>
<clus scale="   92.988">  7  8 -1 -1</clus>
<clus scale="   93.929">  5  6 -1 -1</clus>
<clus scale="  114.624">  2  7  1 -1</clus>
<clus scale="  114.624">  2  5  1 -1</clus>
</clustering>
</event>
<event>
 9    1  0.1612788E-005  0.1130544E+03  0.7546771E-02  0.1261459E+00
         -1   -1    0    0    0  501 -0.00000000000E+00  0.00000000000E+00  0.28780038366E+03  0.28780038366E+03  0.00000000000E+00 0.  1.
          1   -1    0    0  502    0  0.00000000000E+00 -0.00000000000E+00 -0.17298007109E+03  0.17298007109E+03  0.00000000000E+00 0. -1.
         23    2    1    2    0    0 -0.19714850953E+02 -0.32711819560E+02  0.23742713401E+03  0.25798672684E+03  0.93417176033E+02 0.  0.
         23    2    1    2    0    0 -0.74766669339E+01  0.34153399347E+02 -0.13208509695E+03  0.17396154963E+03  0.10767447551E+03 0.  0.
        -11    1    4    4    0    0 -0.31793270023E+02  0.27670839149E+01  0.40365111943E+01  0.32167719763E+02  0.00000000000E+00 0.  1.
         11    1    4    4    0    0  0.24316603089E+02  0.31386315432E+02 -0.13612160815E+03  0.14179382986E+03  0.00000000000E+00 0. -1.
        -13    1    3    3    0    0 -0.48736920840E+02 -0.40572681525E+02  0.10916571617E+03  0.12624810306E+03  0.00000000000E+00 0.  1.
         13    1    3    3    0    0  0.29022069887E+02  0.78608619645E+01  0.12826141784E+03  0.13173862378E+03  0.00000000000E+00 0. -1.
         21    1    1    2  502  501  0.27191517887E+02 -0.14415797863E+01  0.94782755238E+01  0.28832178276E+02  0.00000000000E+00 0.  1.
<scales pt_clust_5="13000.00000" pt_clust_6="13000.00000" pt_clust_7="13000.00000" pt_clust_8="13000.00000" pt_clust_9="27.22970"></scales>
<clustering>
<clus scale="   27.230">  1  9  2 -1</clus>
<clus scale="   93.417">  7  8 -1 -1</clus>
<clus scale="   99.570">  1  7  2 -1</clus>
<clus scale="  107.674">  5  6 -1 -1</clus>
<clus scale="  113.054">  2  5  1 -1</clus>
</clustering>
</event>
<event>
 9    1  0.1612788E-005  0.1248222E+03  0.7546771E-02  0.1236476E+00
          2   -1    0    0  502    0  0.00000000000E+00  0.00000000000E+00  0.14621769050E+03  0.14621769050E+03  0.00000000000E+00 0. -1.
         -2   -1    0    0    0  501 -0.00000000000E+00 -0.00000000000E+00 -0.14630686923E+03  0.14630686923E+03  0.00000000000E+00 0.  1.
         23    2    1    2    0    0  0.54575227139E+02  0.80075151937E+02 -0.14904202983E+02  0.13145613877E+03  0.87567664001E+02 0.  0.
         23    2    1    2    0    0 -0.21848874625E+02 -0.75861001276E+02  0.30353172072E+02  0.12459641454E+03  0.91491456560E+02 0.  0.
        -11    1    4    4    0    0  0.30774630365E+02 -0.57214860164E+02  0.14589835264E+02  0.66584392997E+02  0.00000000000E+00 0. -1.
         11    1    4    4    0    0 -0.52623504990E+02 -0.18646141112E+02  0.15763336808E+02  0.58012021539E+02  0.00000000000E+00 0.  1.
        -11    1    3    3    0    0  0.55486639159E+02  0.37535407495E+02  0.26542461896E+02  0.72056756966E+02  0.00000000000E+00 0. -1.
         11    1    3    3    0    0 -0.91141201967E+00  0.42539744442E+02 -0.41446664879E+02  0.59399381804E+02  0.00000000000E+00 0.  1.
         21    1    1    2  502  501 -0.32726352514E+02 -0.42141506610E+01 -0.15538147826E+02  0.36472006423E+02  0.00000000000E+00 0.  1.
<scales pt_clust_5="13000.00000" pt_clust_6="13000.00000" pt_clust_7="13000.00000" pt_clust_8="13000.00000" pt_clust_9="32.99656"></scales>
<clustering>
<clus scale="   32.997">  2  9  1 -1</clus>
<clus scale="   87.568">  7  8 -1 -1</clus>
<clus scale="   91.491">  5  6 -1 -1</clus>
<clus scale="  121.975">  2  7  1 -1</clus>
<clus scale="  124.822">  1  5  2 -1</clus>
</clustering>
</event>
<event>
 9    1  0.1612788E-005  0.1454321E+03  0.7546771E-02  0.1208376E+00
         -1   -1    0    0    0  501 -0.00000000000E+00  0.00000000000E+00  0.10936307798E+03  0.10936307798E+03  0.00000000000E+00 0.  1.
          1   -1    0    0  502    0  0.00000000000E+00 -0.00000000000E+00 -0.30331421890E+03  0.30331421890E+03  0.00000000000E+00 0. -1.
         23    2    1    2    0    0 -0.42298765321E+02  0.60113373506E+02 -0.11112168607E+02  0.11634324331E+03  0.89495624195E+02 0.  0.
         23    2    1    2    0    0  0.45173238977E+02 -0.11823022667E+03 -0.17474024963E+03  0.23758526185E+03  0.99466546088E+02 0.  0.
        -11    1    4    4    0    0 -0.81326722644E+01 -0.83994376542E+02 -0.14461212821E+03  0.16743316062E+03  0.00000000000E+00 0. -1.
         11    1    4    4    0    0  0.53305911241E+02 -0.34235850126E+02 -0.30128121418E+02  0.70152101232E+02  0.00000000000E+00 0.  1.
        -13    1    3    3    0    0  0.13201972050E+02  0.51781874462E+02  0.13413024432E+02  0.55095950970E+02  0.00000000000E+00 0.  1.
         13    1    3    3    0    0 -0.55500737371E+02  0.83314990435E+01 -0.24525193039E+02  0.61247292337E+02  0.00000000000E+00 0. -1.
         21    1    1    2  502  501 -0.28744736553E+01  0.58116853162E+02 -0.80987226812E+01  0.58748791727E+02  0.00000000000E+00 0. -1.
<scales pt_clust_5="13000.00000" pt_clust_6="13000.00000" pt_clust_7="13000.00000" pt_clust_8="13000.00000" pt_clust_9="58.18790"></scales>
<clustering>
<clus scale="   58.188">  1  9  2 -1</clus>
<clus scale="   89.496">  7  8 -1 -1</clus>
<clus scale="   99.467">  5  6 -1 -1</clus>
<clus scale="  138.803">  1  7  2 -1</clus>
<clus scale="  145.432">  2  5  1 -1</clus>
</clustering>
</event>
<event>
 9    1  0.1612788E-005  0.1058986E+03  0.7546771E-02  0.1269728E+00
         -1   -1    0    0    0  501 -0.00000000000E+00  0.00000000000E+00  0.58084051054E+02  0.58084051054E+02  0.00000000000E+00 0.  1.
          1   -1    0    0  502    0  0.00000000000E+00 -0.00000000000E+00 -0.28050368377E+03  0.28050368377E+03  0.00000000000E+00 0. -1.
         23    2    1    2    0    0 -0.32709380673E+02  0.20646822178E+02 -0.61429053532E+02  0.12112934903E+03  0.96966982675E+02 0.  0.
         23    2    1    2    0    0  0.46169955394E+02 -0.29539821642E+01 -0.16445381092E+03  0.19495910506E+03  0.93934050954E+02 0.  0.
        -11    1    4    4    0    0  0.27827284252E+02 -0.39793272518E+02 -0.37063656268E+02  0.61086634401E+02  0.00000000000E+00 0.  1.
         11    1    4    4    0    0  0.18342671142E+02  0.36839290354E+02 -0.12739015465E+03  0.13387247066E+03  0.00000000000E+00 0. -1.
        -13    1    3    3    0    0  0.26980065292E+02  0.17483719520E+02 -0.51244572173E+02  0.60494715047E+02  0.00000000000E+00 0. -1.
         13    1    3    3    0    0 -0.59689445965E+02  0.31631026582E+01 -0.10184481359E+02  0.60634633986E+02  0.00000000000E+00 0.  1.
         21    1    1    2  502  501 -0.13460574721E+02 -0.17692840014E+02  0.34632317308E+01  0.22499280735E+02  0.00000000000E+00 0.  1.
<scales pt_clust_5="13000.00000" pt_clust_6="13000.00000" pt_clust_7="13000.00000" pt_clust_8="13000.00000" pt_clust_9="22.23114"></scales>
<clustering>
<clus scale="   22.231">  1  9  2 -1</clus>
<clus scale="   93.934">  5  6 -1 -1</clus>
<clus scale="   96.967">  7  8 -1 -1</clus>
<clus scale="  103.129">  2  5  1 -1</clus>
<clus scale="  103.129">  2  5  1 -1</clus>
</clustering>
</event>
<event>
 9    1  0.1612788E-005  0.1111739E+03  0.7546771E-02  0.1259130E+00
          2   -1    0    0  502    0  0.00000000000E+00  0.00000000000E+00  0.73512331896E+03  0.73512331896E+03  0.00000000000E+00 0. -1.
         -2   -1    0    0    0  501 -0.00000000000E+00 -0.00000000000E+00 -0.25944742222E+02  0.25944742222E+02  0.00000000000E+00 0.  1.
         23    2    1    2    0    0 -0.23243872598E+02  0.44238651636E+02  0.22246501117E+03  0.24533203542E+03  0.90552694578E+02 0.  0.
         23    2    1    2    0    0  0.47655245730E+02 -0.50905401711E+02  0.47297451540E+03  0.48694154375E+03  0.92438046547E+02 0.  0.
        -13    1    3    3    0    0 -0.54891436160E+02  0.29478952700E+02  0.98579400052E+02  0.11661893727E+03  0.00000000000E+00 0.  1.
         13    1    3    3    0    0  0.31647563562E+02  0.14759698936E+02  0.12388561112E+03  0.12871309814E+03  0.00000000000E+00 0. -1.
        -13    1    4    4    0    0 -0.27135783027E+02 -0.23511879829E+02  0.13298071907E+03  0.13774262542E+03  0.00000000000E+00 0.  1.
         13    1    4    4    0    0  0.74791028757E+02 -0.27393521882E+02  0.33999379633E+03  0.34919891834E+03  0.00000000000E+00 0. -1.
         21    1    1    2  502  501 -0.24411373132E+02  0.66667500744E+01  0.13739050173E+02  0.28794482013E+02  0.00000000000E+00 0. -1.
<scales pt_clust_5="13000.00000" pt_clust_6="13000.00000" pt_clust_7="13000.00000" pt_clust_8="13000.00000" pt_clust_9="25.30535"></scales>
<clustering>
<clus scale="   25.305">  2  9  1 -1</clus>
<clus scale="   90.553">  5  6 -1 -1</clus>
<clus scale="   92.438">  7  8 -1 -1</clus>
<clus scale="  109.611">  2  5  1 -1</clus>
<clus scale="  111.174">  1  5  2 -1</clus>
</clustering>
</event>
<event>
 9    1  0.1612788E-005  0.1058824E+03  0.7546771E-02  0.1269182E+00
          1   -1    0    0  502    0  0.00000000000E+00  0.00000000000E+00  0.18570055846E+03  0.18570055846E+03  0.00000000000E+00 0. -1.
         -1   -1    0    0    0  501 -0.00000000000E+00 -0.00000000000E+00 -0.11146124255E+03  0.11146124255E+03  0.00000000000E+00 0.  1.
         23    2    1    2    0    0  0.15968274899E+02  0.36163338654E+02 -0.24714616235E+02  0.10063198624E+03  0.89180780064E+02 0.  0.
         23    2    1    2    0    0 -0.12224325181E+02 -0.57721767297E+02  0.12299996022E+03  0.16401836339E+03  0.91059303588E+02 0.  0.
        -13    1    3    3    0    0  0.40080664573E+02 -0.84075561968E+00  0.13424041653E+02  0.42277315867E+02  0.00000000000E+00 0. -1.
         13    1    3    3    0    0 -0.24112389673E+02  0.37004094274E+02 -0.38138657887E+02  0.58354670372E+02  0.00000000000E+00 0.  1.
        -13    1    4    4    0    0 -0.34371145989E+02 -0.71215262815E+02  0.10864964604E+03  0.13437907173E+03  0.00000000000E+00 0. -1.
         13    1    4    4    0    0  0.22146820808E+02  0.13493495519E+02  0.14350314180E+02  0.29639291663E+02  0.00000000000E+00 0.  1.
         21    1    1    2  502  501 -0.37439497188E+01  0.21558428642E+02 -0.24046028070E+02  0.32511451382E+02  0.00000000000E+00 0. -1.
<scales pt_clust_5="13000.00000" pt_clust_6="13000.00000" pt_clust_7="13000.00000" pt_clust_8="13000.00000" pt_clust_9="21.88111"></scales>
<clustering>
<clus scale="   21.881">  2  9  1 -1</clus>
<clus scale="   89.181">  5  6 -1 -1</clus>
<clus scale="   91.059">  7  8 -1 -1</clus>
<clus scale="  104.271">  2  5  1 -1</clus>
<clus scale="  105.882">  1  5  2 -1</clus>
</clustering>
</event>
<event>
 9    1  0.1612788E-005  0.1834007E+03  0.7546771E-02  0.1165862E+00
          1   -1    0    0  502    0  0.00000000000E+00  0.00000000000E+00  0.63453975589E+03  0.63453975589E+03  0.00000000000E+00 0. -1.
         -1   -1    0    0    0  501 -0.00000000000E+00 -0.00000000000E+00 -0.26043260233E+03  0.26043260233E+03  0.00000000000E+00 0.  1.
         23    2    1    2    0    0  0.83349059454E+02 -0.57539423700E+02  0.59805332773E+02  0.14787525753E+03  0.89624566769E+02 0.  0.
         23    2    1    2    0    0 -0.11163852788E+03  0.14049944201E+03  0.50065005966E+03  0.54116428448E+03  0.10002522906E+03 0.  0.
        -11    1    4    4    0    0 -0.75792478146E+02  0.12779009626E+03  0.46807073811E+03  0.49108555702E+03  0.00000000000E+00 0. -1.
         11    1    4    4    0    0 -0.35846049735E+02  0.12709345750E+02  0.32579321557E+02  0.50078727461E+02  0.00000000000E+00 0.  1.
        -13    1    3    3    0    0  0.58719996693E+02 -0.80968154229E+02  0.35685583769E+02  0.10619482520E+03  0.00000000000E+00 0.  1.
         13    1    3    3    0    0  0.24629062761E+02  0.23428730528E+02  0.24119749004E+02  0.41680432323E+02  0.00000000000E+00 0. -1.
         21    1    1    2  502  501  0.28289468427E+02 -0.82960018306E+02 -0.18634823888E+03  0.20593281621E+03  0.00000000000E+00 0.  1.
<scales pt_clust_5="13000.00000" pt_clust_6="13000.00000" pt_clust_7="13000.00000" pt_clust_8="13000.00000" pt_clust_9="87.65078"></scales>
<clustering>
<clus scale="   87.651">  2  9  1 -1</clus>
<clus scale="   89.625">  7  8 -1 -1</clus>
<clus scale="  100.025">  5  6 -1 -1</clus>
<clus scale="  177.942">  2  7  1 -1</clus>
<clus scale="  183.401">  1  5  2 -1</clus>
</clustering>
</event>
<event>
 9    1  0.1612788E-005  0.1437786E+03  0.7546771E-02  0.1227001E+00
          1   -1    0    0  502    0  0.00000000000E+00  0.00000000000E+00  0.29655944854E+03  0.29655944854E+03  0.00000000000E+00 0. -1.
         -1   -1    0    0    0  501 -0.00000000000E+00 -0.00000000000E+00 -0.31958427203E+03  0.31958427203E+03  0.00000000000E+00 0.  1.
         23    2    1    2    0    0 -0.11652047029E+03  0.15303593252E+02 -0.98761040050E+02  0.17786312223E+03  0.89835000168E+02 0.  0.
         23    2    1    2    0    0  0.64761894304E+01 -0.31662523603E+02  0.22911365161E+03  0.24880237811E+03  0.91460929203E+02 0.  0.
        -13    1    4    4    0    0 -0.20273947030E+02  0.48951982769E+01  0.68248161495E+01  0.21944794595E+02  0.00000000000E+00 0.  1.
         13    1    4    4    0    0  0.26750136460E+02 -0.36557721880E+02  0.22228883546E+03  0.22685758352E+03  0.00000000000E+00 0. -1.
        -13    1    3    3    0    0 -0.11763098270E+03  0.37145736426E+02 -0.94940291510E+02  0.15566153275E+03  0.00000000000E+00 0.  1.
         13    1    3    3    0    0  0.11105124066E+01 -0.21842143174E+02 -0.38207485401E+01  0.22201589485E+02  0.00000000000E+00 0. -1.
         21    1    1    2  502  501  0.11004428086E+03  0.16358930351E+02 -0.15337743506E+03  0.18947822022E+03  0.00000000000E+00 0. -1.
<scales pt_clust_5="13000.00000" pt_clust_6="13000.00000" pt_clust_7="13000.00000" pt_clust_8="13000.00000" pt_clust_9="112.25841"></scales>
<clustering>
<clus scale="   89.835">  7  8 -1 -1</clus>
<clus scale="   91.461">  5  6 -1 -1</clus>
<clus scale="   97.003">  1  5  2 -1</clus>
<clus scale="  112.258">  2  9  1 -1</clus>
<clus scale="   97.003">  1  5  2 -1</clus>
</clustering>
</event>
<event>
 9    1  0.1612788E-005  0.9324521E+02  0.7546771E-02  0.1303474E+00
          1   -1    0    0  502    0  0.00000000000E+00  0.00000000000E+00  0.19499240317E+03  0.19499240317E+03  0.00000000000E+00 0. -1.
         -1   -1    0    0    0  501 -0.00000000000E+00 -0.00000000000E+00 -0.66188376792E+02  0.66188376792E+02  0.00000000000E+00 0.  1.
         23    2    1    2    0    0 -0.10014775259E+02  0.15762823090E+02  0.16464022245E+01  0.81086821615E+02  0.78889794550E+02 0.  0.
         23    2    1    2    0    0 -0.21084230727E+02 -0.59671566810E+01  0.97284440821E+02  0.13587280576E+03  0.92287622002E+02 0.  0.
        -11    1    4    4    0    0 -0.89830983635E+00 -0.44471817115E+02  0.23689289766E+02  0.50395753072E+02  0.00000000000E+00 0.  1.
         11    1    4    4    0    0 -0.20185920890E+02  0.38504660434E+02  0.73595151055E+02  0.85477052688E+02  0.00000000000E+00 0. -1.
        -11    1    3    3    0    0  0.18597048146E+01  0.47079846755E+02 -0.32947841405E+01  0.47231621558E+02  0.00000000000E+00 0.  1.
         11    1    3    3    0    0 -0.11874480074E+02 -0.31317023665E+02  0.49411863651E+01  0.33855200058E+02  0.00000000000E+00 0. -1.
         21    1    1    2  502  501  0.31099005986E+02 -0.97956664087E+01  0.29873183330E+02  0.44221152585E+02  0.00000000000E+00 0.  1.
<scales pt_clust_5="13000.00000" pt_clust_6="13000.00000" pt_clust_7="13000.00000" pt_clust_8="13000.00000" pt_clust_9="32.60526"></scales>
<clustering>
<clus scale="   32.605">  1  9  2 -1</clus>
<clus scale="   78.890">  7  8 -1 -1</clus>
<clus scale="   80.008">  2  7  1 -1</clus>
<clus scale="   92.288">  5  6 -1 -1</clus>
<clus scale="   32.605">  1  5  2 -1</clus>
</clustering>
</event>
<event>
 9    1  0.1612788E-005  0.1934104E+03  0.7546771E-02  0.1155629E+00
          2   -1    0    0  502    0  0.00000000000E+00  0.00000000000E+00  0.35998152537E+03  0.35998152537E+03  0.00000000000E+00 0. -1.
         -2   -1    0    0    0  501 -0.00000000000E+00 -0.00000000000E+00 -0.65489192436E+03  0.65489192436E+03  0.00000000000E+00 0.  1.
         23    2    1    2    0    0 -0.11750333003E+03  0.12104769064E+03 -0.57367904758E+03  0.60457974992E+03  0.89159679300E+02 0.  0.
         23    2    1    2    0    0  0.17456695028E+03 -0.12004981748E+03  0.26551020696E+03  0.35170156057E+03  0.91174222799E+02 0.  0.
        -11    1    4    4    0    0  0.12496562204E+03 -0.64725621189E+02  0.22930217329E+03  0.26904516239E+03  0.00000000000E+00 0.  1.
         11    1    4    4    0    0  0.49601328236E+02 -0.55324196294E+02  0.36208033672E+02  0.82656398184E+02  0.00000000000E+00 0. -1.
        -13    1    3    3    0    0 -0.13115013215E+03  0.97058631361E+02 -0.48551325302E+03  0.51219513268E+03  0.00000000000E+00 0.  1.
         13    1    3    3    0    0  0.13646802121E+02  0.23989059279E+02 -0.88165794554E+02  0.92384617240E+02  0.00000000000E+00 0. -1.
         21    1    1    2  502  501 -0.57063620245E+02 -0.99787315704E+00  0.13258441622E+02  0.58592139239E+02  0.00000000000E+00 0.  1.
<scales pt_clust_5="13000.00000" pt_clust_6="13000.00000" pt_clust_7="13000.00000" pt_clust_8="13000.00000" pt_clust_9="57.07234"></scales>
<clustering>
<clus scale="   57.072">  1  9  2 -1</clus>
<clus scale="   89.160">  7  8 -1 -1</clus>
<clus scale="   91.174">  5  6 -1 -1</clus>
<clus scale="  192.469">  2  7  1 -1</clus>
<clus scale="   57.072">  1  5  2 -1</clus>
</clustering>
</event>
<event>
 9    1  0.1612788E-005  0.1438476E+03  0.7546771E-02  0.1208575E+00
          1   -1    0    0  502    0  0.00000000000E+00  0.00000000000E+00  0.49581045995E+03  0.49581045995E+03  0.00000000000E+00 0. -1.
         -1   -1    0    0    0  501 -0.00000000000E+00 -0.00000000000E+00 -0.19103089918E+03  0.19103089918E+03  0.00000000000E+00 0.  1.
         23    2    1    2    0    0 -0.12047366870E+03  0.19962729477E+01 -0.83881409726E+02  0.17159577795E+03  0.88832033385E+02 0.  0.
         23    2    1    2    0    0  0.11003247896E+03  0.16073544315E+02  0.43843478773E+03  0.46127364755E+03  0.90458883366E+02 0.  0.
        -11    1    4    4    0    0  0.11128296550E+03 -0.13005168893E+02  0.37693850993E+03  0.39323742586E+03  0.00000000000E+00 0. -1.
         11    1    4    4    0    0 -0.12504865482E+01  0.29078713207E+02  0.61496277793E+02  0.68036221682E+02  0.00000000000E+00 0.  1.
        -13    1    3    3    0    0 -0.11740700800E+03 -0.25794519307E+02 -0.77157282230E+02  0.14283910163E+03  0.00000000000E+00 0.  1.
         13    1    3    3    0    0 -0.30666606985E+01  0.27790792254E+02 -0.67241274964E+01  0.28756676313E+02  0.00000000000E+00 0. -1.
         21    1    1    2  502  501  0.10441189747E+02 -0.18069817262E+02 -0.49773817227E+02  0.53971933638E+02  0.00000000000E+00 0.  1.
<scales pt_clust_5="13000.00000" pt_clust_6="13000.00000" pt_clust_7="13000.00000" pt_clust_8="13000.00000" pt_clust_9="20.86952"></scales>
<clustering>
<clus scale="   20.870">  2  9  1 -1</clus>
<clus scale="   88.832">  7  8 -1 -1</clus>
<clus scale="   90.459">  5  6 -1 -1</clus>
<clus scale="  142.830">  2  7  1 -1</clus>
<clus scale="  143.848">  1  5  2 -1</clus>
</clustering>
</event>
<event>
 9    1  0.1612788E-005  0.1097423E+03  0.7546771E-02  0.1267462E+00
          2   -1    0    0  502    0  0.00000000000E+00  0.00000000000E+00  0.25672493426E+03  0.25672493426E+03  0.00000000000E+00 0. -1.
         -2   -1    0    0    0  501 -0.00000000000E+00 -0.00000000000E+00 -0.90417813012E+02  0.90417813012E+02  0.00000000000E+00 0.  1.
         23    2    1    2    0    0  0.49429280693E+02  0.83127779051E+01  0.56221255360E+02  0.11838926653E+03  0.91339108870E+02 0.  0.
         23    2    1    2    0    0  0.81380920353E+01 -0.41994643662E+02  0.11554159512E+03  0.16183386131E+03  0.10493121473E+03 0.  0.
        -11    1    3    3    0    0  0.25014578261E+02  0.36036930160E+02 -0.77215081568E+01  0.44542240056E+02  0.00000000000E+00 0. -1.
         11    1    3    3    0    0  0.24414702432E+02 -0.27724152255E+02  0.63942763517E+02  0.73847026476E+02  0.00000000000E+00 0.  1.
        -11    1    4    4    0    0  0.81962511758E+01 -0.74921769948E+02  0.56367740496E+02  0.94115738929E+02  0.00000000000E+00 0. -1.
         11    1    4    4    0    0 -0.58159140562E-01  0.32927126286E+02  0.59173854619E+02  0.67718122378E+02  0.00000000000E+00 0.  1.
         21    1    1    2  502  501 -0.57567372729E+02  0.33681865757E+02 -0.54557292267E+01  0.66919619434E+02  0.00000000000E+00 0.  1.
<scales pt_clust_5="13000.00000" pt_clust_6="13000.00000" pt_clust_7="13000.00000" pt_clust_8="13000.00000" pt_clust_9="66.69686"></scales>
<clustering>
<clus scale="   66.697">  2  9  1 -1</clus>
<clus scale="   91.339">  5  6 -1 -1</clus>
<clus scale="   96.828">  2  5  1 -1</clus>
<clus scale="  104.931">  7  8 -1 -1</clus>
<clus scale="  109.742">  1  5  2 -1</clus>
</clustering>
</event>
<event>
 9    1  0.1612788E-005  0.1205802E+03  0.7546771E-02  0.1243109E+00
         -1   -1    0    0    0  501 -0.00000000000E+00  0.00000000000E+00  0.21836721098E+03  0.21836721098E+03  0.00000000000E+00 0.  1.
          1   -1    0    0  502    0  0.00000000000E+00 -0.00000000000E+00 -0.12472944392E+03  0.12472944392E+03  0.00000000000E+00 0. -1.
         23    2    1    2    0    0  0.45944874176E+02 -0.51084489268E+02  0.57698113972E+02  0.12959878769E+03  0.93521211013E+02 0.  0.
         23    2    1    2    0    0 -0.89872849679E+02  0.13470346011E+01 -0.16914447458E+02  0.12866251271E+03  0.90493093832E+02 0.  0.
        -11    1    4    4    0    0  0.47037273167E+01  0.23878451000E+02  0.12131018796E+02  0.27193144170E+02  0.00000000000E+00 0.  1.
         11    1    4    4    0    0 -0.94576576996E+02 -0.22531416399E+02 -0.29045466254E+02  0.10146936854E+03  0.00000000000E+00 0. -1.
        -13    1    3    3    0    0 -0.17585688307E+02 -0.14567768260E+02  0.51165969516E+02  0.56030641097E+02  0.00000000000E+00 0. -1.
         13    1    3    3    0    0  0.63530562483E+02 -0.36516721008E+02  0.65321444559E+01  0.73568146597E+02  0.00000000000E+00 0.  1.
         21    1    1    2  502  501  0.43927975503E+02  0.49737454667E+02  0.52854100542E+02  0.84835354497E+02  0.00000000000E+00 0.  1.
<scales pt_clust_5="13000.00000" pt_clust_6="13000.00000" pt_clust_7="13000.00000" pt_clust_8="13000.00000" pt_clust_9="66.35873"></scales>
<clustering>
<clus scale="   66.359">  1  9  2 -1</clus>
<clus scale="   90.493">  5  6 -1 -1</clus>
<clus scale="   93.521">  7  8 -1 -1</clus>
<clus scale="  118.247">  2  5  1 -1</clus>
<clus scale="  118.247">  2  5  1 -1</clus>
</clustering>
</event>
<event>
 9    1  0.1612788E-005  0.1276331E+03  0.7546771E-02  0.1232307E+00
          1   -1    0    0  502    0  0.00000000000E+00  0.00000000000E+00  0.40488236826E+03  0.40488236826E+03  0.00000000000E+00 0. -1.
         -1   -1    0    0    0  501 -0.00000000000E+00 -0.00000000000E+00 -0.82944124920E+02  0.82944124920E+02  0.00000000000E+00 0.  1.
         23    2    1    2    0    0  0.21736646457E+02 -0.69352526732E+02  0.30320743179E+01  0.12065349019E+03  0.96259111028E+02 0.  0.
         23    2    1    2    0    0 -0.14424684952E+01  0.86619461288E+02  0.31612754801E+03  0.34038267968E+03  0.91753638790E+02 0.  0.
        -11    1    3    3    0    0  0.27707077507E+02  0.15957262299E+02 -0.11361339843E+02  0.33932232568E+02  0.00000000000E+00 0. -1.
         11    1    3    3    0    0 -0.59704310496E+01 -0.85309789031E+02  0.14393414161E+02  0.86721257617E+02  0.00000000000E+00 0.  1.
        -11    1    4    4    0    0 -0.93461093525E+01 -0.18519545767E+02  0.50446733396E+02  0.54545359526E+02  0.00000000000E+00 0.  1.
         11    1    4    4    0    0  0.79036408572E+01  0.10513900706E+03  0.26568081461E+03  0.28583732016E+03  0.00000000000E+00 0. -1.
         21    1    1    2  502  501 -0.20294177962E+02 -0.17266934556E+02  0.27786210123E+01  0.26790323306E+02  0.00000000000E+00 0.  1.
<scales pt_clust_5="13000.00000" pt_clust_6="13000.00000" pt_clust_7="13000.00000" pt_clust_8="13000.00000" pt_clust_9="26.64584"></scales>
<clustering>
<clus scale="   26.646">  2  9  1 -1</clus>
<clus scale="   91.754">  7  8 -1 -1</clus>
<clus scale="   96.259">  5  6 -1 -1</clus>
<clus scale="  124.270">  1  7  2 -1</clus>
<clus scale="  124.270">  1  5  2 -1</clus>
</clustering>
</event>
<event>
 9    1  0.1612788E-005  0.3631047E+03  0.7546771E-02  0.1078689E+00
          1   -1    0    0  502    0  0.00000000000E+00  0.00000000000E+00  0.46901460360E+03  0.46901460360E+03  0.00000000000E+00 0. -1.
         -1   -1    0    0    0  501 -0.00000000000E+00 -0.00000000000E+00 -0.11076919783E+04  0.11076919783E+04  0.00000000000E+00 0.  1.
         23    2    1    2    0    0 -0.17967400328E+03 -0.27471172541E+03  0.38058390802E+02  0.34246792870E+03  0.89925310903E+02 0.  0.
         23    2    1    2    0    0  0.15585116541E+03 -0.87678629284E+02  0.20073531218E+03  0.28458093120E+03  0.93351556264E+02 0.  0.
        -13    1    4    4    0    0  0.12419344202E+03 -0.10758684667E+03  0.16235845019E+03  0.23099611893E+03  0.00000000000E+00 0.  1.
         13    1    4    4    0    0  0.31657723391E+02  0.19908217381E+02  0.38376861991E+02  0.53584812269E+02  0.00000000000E+00 0. -1.
        -13    1    3    3    0    0 -0.83608064207E+02 -0.55029570670E+02  0.28940697978E+01  0.10013459786E+03  0.00000000000E+00 0.  1.
         13    1    3    3    0    0 -0.96065939073E+02 -0.21968215474E+03  0.35164321005E+02  0.24233333084E+03  0.00000000000E+00 0. -1.
         21    1    1    2  502  501  0.23822837871E+02  0.36239035470E+03 -0.87747107766E+03  0.94965772198E+03  0.00000000000E+00 0.  1.
<scales pt_clust_5="13000.00000" pt_clust_6="13000.00000" pt_clust_7="13000.00000" pt_clust_8="13000.00000" pt_clust_9="351.79320"></scales>
<clustering>
<clus scale="   89.925">  7  8 -1 -1</clus>
<clus scale="   93.352">  5  6 -1 -1</clus>
<clus scale="  201.722">  1  5  2 -1</clus>
<clus scale="  351.793">  2  9  1 -1</clus>
<clus scale="  201.722">  1  5  2 -1</clus>
</clustering>
</event>
<event>
 9    1  0.1612788E-005  0.1625006E+03  0.7546771E-02  0.1186459E+00
         -2   -1    0    0    0  501 -0.00000000000E+00  0.00000000000E+00  0.78159264928E+02  0.78159264928E+02  0.00000000000E+00 0.  1.
          2   -1    0    0  502    0  0.00000000000E+00 -0.00000000000E+00 -0.80669075431E+03  0.80669075431E+03  0.00000000000E+00 0. -1.
         23    2    1    2    0    0  0.33778084321E+02 -0.12796203109E+03 -0.36913562923E+02  0.16673946473E+03  0.94467971239E+02 0.  0.
         23    2    1    2    0    0 -0.57193929721E+01  0.13399210455E+03 -0.62296153956E+03  0.64369717259E+03  0.90985574100E+02 0.  0.
        -11    1    3    3    0    0 -0.19214298733E+02 -0.10074031687E+03 -0.17209383382E+02  0.10399020913E+03  0.00000000000E+00 0.  1.
         11    1    3    3    0    0  0.52992383054E+02 -0.27221714220E+02 -0.19704179541E+02  0.62749255598E+02  0.00000000000E+00 0. -1.
        -13    1    4    4    0    0  0.35459526604E+02  0.30474161287E+02 -0.25458379143E+03  0.25884157199E+03  0.00000000000E+00 0.  1.
         13    1    4    4    0    0 -0.41178919576E+02  0.10351794326E+03 -0.36837774813E+03  0.38485560060E+03  0.00000000000E+00 0. -1.
         21    1    1    2  502  501 -0.28058691349E+02 -0.60300734583E+01 -0.68656386902E+02  0.74413381918E+02  0.00000000000E+00 0. -1.
<scales pt_clust_5="13000.00000" pt_clust_6="13000.00000" pt_clust_7="13000.00000" pt_clust_8="13000.00000" pt_clust_9="28.69934"></scales>
<clustering>
<clus scale="   28.699">  2  9  1 -1</clus>
<clus scale="   90.986">  7  8 -1 -1</clus>
<clus scale="   94.468">  5  6 -1 -1</clus>
<clus scale="  160.501">  2  7  1 -1</clus>
<clus scale="   28.699">  2  5  1 -1</clus>
</clustering>
</event>
<event>
 9    1  0.1612788E-005  0.3758115E+03  0.7546771E-02  0.1053016E+00
         -1   -1    0    0    0  501 -0.00000000000E+00  0.00000000000E+00  0.54909324797E+03  0.54909324797E+03  0.00000000000E+00 0.  1.
          1   -1    0    0  502    0  0.00000000000E+00 -0.00000000000E+00 -0.68013380426E+03  0.68013380426E+03  0.00000000000E+00 0. -1.
         23    2    1    2    0    0 -0.36556627227E+03 -0.12049597335E+03  0.36660104109E+03  0.53910993203E+03  0.89917831740E+02 0.  0.
         23    2    1    2    0    0  0.27571095115E+03  0.59729534900E+02 -0.17536347867E+03  0.35007341041E+03  0.11052102561E+03 0.  0.
        -13    1    4    4    0    0  0.22421471806E+02  0.33830547831E+02  0.57287075552E+00  0.40590104032E+02  0.00000000000E+00 0.  1.
         13    1    4    4    0    0  0.25328947934E+03  0.25898987069E+02 -0.17593634942E+03  0.30948330637E+03  0.00000000000E+00 0. -1.
        -13    1    3    3    0    0 -0.27049974617E+03 -0.10856639180E+03  0.22534442632E+03  0.36842486966E+03  0.00000000000E+00 0.  1.
         13    1    3    3    0    0 -0.95066526104E+02 -0.11929581552E+02  0.14125661477E+03  0.17068506237E+03  0.00000000000E+00 0. -1.
         21    1    1    2  502  501  0.89855321128E+02  0.60766438451E+02 -0.32227811871E+03  0.34004370980E+03  0.00000000000E+00 0.  1.
<scales pt_clust_5="13000.00000" pt_clust_6="13000.00000" pt_clust_7="13000.00000" pt_clust_8="13000.00000" pt_clust_9="108.47368"></scales>
<clustering>
<clus scale="   89.918">  7  8 -1 -1</clus>
<clus scale="  108.474">  2  9  1 -1</clus>
<clus scale="  110.521">  5  6 -1 -1</clus>
<clus scale="  370.276">  1  7  2 -1</clus>
<clus scale="  108.474">  2  5  1 -1</clus>
</clustering>
</event>
<event>
 9    1  0.1612788E-005  0.1110916E+03  0.7546771E-02  0.1260270E+00
         -2   -1    0    0    0  501 -0.00000000000E+00  0.00000000000E+00  0.32065668317E+02  0.32065668317E+02  0.00000000000E+00 0.  1.
          2   -1    0    0  502    0  0.00000000000E+00 -0.00000000000E+00 -0.47592991787E+03  0.47592991787E+03  0.00000000000E+00 0. -1.
         23    2    1    2    0    0  0.39751161963E+02  0.34768489259E+02 -0.18704525940E+03  0.21352762945E+03  0.88425769723E+02 0.  0.
         23    2    1    2    0    0 -0.62248633341E+02 -0.32382328446E+02 -0.23841367450E+03  0.26530315559E+03  0.92850291480E+02 0.  0.
        -11    1    3    3    0    0 -0.20407612082E+02  0.30376192450E+01 -0.10475730461E+03  0.10676980206E+03  0.00000000000E+00 0.  1.
         11    1    3    3    0    0  0.60158774045E+02  0.31730870014E+02 -0.82287954792E+02  0.10675782740E+03  0.00000000000E+00 0. -1.
        -13    1    4    4    0    0 -0.67404662019E+02 -0.56031274177E+02 -0.15096025253E+03  0.17456199469E+03  0.00000000000E+00 0.  1.
         13    1    4    4    0    0  0.51560286779E+01  0.23648945732E+02 -0.87453421973E+02  0.90741160896E+02  0.00000000000E+00 0. -1.
         21    1    1    2  502  501  0.22497471378E+02 -0.23861608128E+01 -0.18405315650E+02  0.29164801148E+02  0.00000000000E+00 0.  1.
<scales pt_clust_5="13000.00000" pt_clust_6="13000.00000" pt_clust_7="13000.00000" pt_clust_8="13000.00000" pt_clust_9="22.62366"></scales>
<clustering>
<clus scale="   22.624">  1  9  2 -1</clus>
<clus scale="   88.426">  5  6 -1 -1</clus>
<clus scale="   92.850">  7  8 -1 -1</clus>
<clus scale="  107.421">  1  5  2 -1</clus>
<clus scale="  111.092">  2  5  1 -1</clus>
</clustering>
</event>
<event>
 9    1  0.1612788E-005  0.1528566E+03  0.7546771E-02  0.1213935E+00
         -1   -1    0    0    0  501 -0.00000000000E+00  0.00000000000E+00  0.78603309444E+02  0.78603309444E+02  0.00000000000E+00 0.  1.
          1   -1    0    0  502    0  0.00000000000E+00 -0.00000000000E+00 -0.52020693246E+03  0.52020693246E+03  0.00000000000E+00 0. -1.
         23    2    1    2    0    0 -0.42354092259E+02 -0.93112026526E+02 -0.22141739494E+03  0.26042404534E+03  0.91275966141E+02 0.  0.
         23    2    1    2    0    0 -0.54180965987E+02  0.52679124679E+00 -0.15924094414E+03  0.19139854097E+03  0.91322881104E+02 0.  0.
        -11    1    4    4    0    0  0.24102008284E+02  0.68346741127E+01 -0.22322114140E+02  0.33554379047E+02  0.00000000000E+00 0.  1.
         11    1    4    4    0    0 -0.78282974271E+02 -0.63078828659E+01 -0.13691883000E+03  0.15784416193E+03  0.00000000000E+00 0. -1.
        -13    1    3    3    0    0 -0.16822293354E+02 -0.10068495790E+03 -0.20534520960E+03  0.22931878555E+03  0.00000000000E+00 0.  1.
         13    1    3    3    0    0 -0.25531798904E+02  0.75729313742E+01 -0.16072185335E+02  0.31105259786E+02  0.00000000000E+00 0. -1.
         21    1    1    2  502  501  0.96535058246E+02  0.92585235279E+02 -0.60945283947E+02  0.14698765560E+03  0.00000000000E+00 0.  1.
<scales pt_clust_5="13000.00000" pt_clust_6="13000.00000" pt_clust_7="13000.00000" pt_clust_8="13000.00000" pt_clust_9="122.61258"></scales>
<clustering>
<clus scale="   91.276">  7  8 -1 -1</clus>
<clus scale="   91.323">  5  6 -1 -1</clus>
<clus scale="  106.187">  2  5  1 -1</clus>
<clus scale="  122.613">  1  9  2 -1</clus>
<clus scale="  106.187">  2  5  1 -1</clus>
</clustering>
</event>
<event>
 9    1  0.1612788E-005  0.1100301E+03  0.7546771E-02  0.1262089E+00
         -1   -1    0    0    0  501 -0.00000000000E+00  0.00000000000E+00  0.63196938999E+03  0.63196938999E+03  0.00000000000E+00 0.  1.
          1   -1    0    0  502    0  0.00000000000E+00 -0.00000000000E+00 -0.30157212589E+02  0.30157212589E+02  0.00000000000E+00 0. -1.
         23    2    1    2    0    0  0.17057792283E+02 -0.40950040596E+02  0.25060478771E+03  0.26953980474E+03  0.88775405451E+02 0.  0.
         23    2    1    2    0    0 -0.99810169625E+01  0.79675478790E+02  0.16375290523E+03  0.20104326739E+03  0.84590654166E+02 0.  0.
        -11    1    3    3    0    0 -0.69471504872E+01 -0.64931796576E+02  0.16330953056E+03  0.17588178950E+03  0.00000000000E+00 0.  1.
         11    1    3    3    0    0  0.24004942770E+02  0.23981755980E+02  0.87295257153E+02  0.93658015240E+02  0.00000000000E+00 0. -1.
        -11    1    4    4    0    0 -0.46115564086E+02  0.29719265025E+02  0.81592085667E+02  0.98321657879E+02  0.00000000000E+00 0.  1.
         11    1    4    4    0    0  0.36134547124E+02  0.49956213765E+02  0.82160819560E+02  0.10272160951E+03  0.00000000000E+00 0. -1.
         21    1    1    2  502  501 -0.70767753203E+01 -0.38725438194E+02  0.18745448446E+03  0.19154353045E+03  0.00000000000E+00 0.  1.
<scales pt_clust_5="13000.00000" pt_clust_6="13000.00000" pt_clust_7="13000.00000" pt_clust_8="13000.00000" pt_clust_9="39.36674"></scales>
<clustering>
<clus scale="   39.367">  1  9  2 -1</clus>
<clus scale="   84.591">  7  8 -1 -1</clus>
<clus scale="   88.775">  5  6 -1 -1</clus>
<clus scale="  106.682">  2  7  1 -1</clus>
<clus scale="  106.682">  2  5  1 -1</clus>
</clustering>
</event>
<event>
 9    1  0.1612788E-005  0.9364450E+02  0.7546771E-02  0.1294794E+00
         -4   -1    0    0    0  501 -0.00000000000E+00  0.00000000000E+00  0.55059836162E+02  0.55059836162E+02  0.00000000000E+00 0.  1.
          4   -1    0    0  502    0  0.00000000000E+00 -0.00000000000E+00 -0.31160359885E+03  0.31160359885E+03  0.00000000000E+00 0. -1.
         23    2    1    2    0    0 -0.10361238826E+02 -0.37067337738E+02 -0.39688817312E+02  0.10633743966E+03  0.90835599064E+02 0.  0.
         23    2    1    2    0    0  0.87461685497E+00  0.18593804767E+02 -0.22086257710E+03  0.23917585283E+03  0.89879453047E+02 0.  0.
        -11    1    3    3    0    0 -0.13280789572E+02 -0.59394174940E+02 -0.17828976561E+00  0.60861146684E+02  0.00000000000E+00 0.  1.
         11    1    3    3    0    0  0.29195507453E+01  0.22326837202E+02 -0.39510527546E+02  0.45476292978E+02  0.00000000000E+00 0. -1.
        -13    1    4    4    0    0  0.33963232787E+02  0.21911157127E+02 -0.18846011017E+03  0.19274546198E+03  0.00000000000E+00 0. -1.
         13    1    4    4    0    0 -0.33088615932E+02 -0.33173523598E+01 -0.32402466937E+02  0.46430390851E+02  0.00000000000E+00 0.  1.
         21    1    1    2  502  501  0.94866219714E+01  0.18473532971E+02  0.40076317248E+01  0.21150142527E+02  0.00000000000E+00 0. -1.
<scales pt_clust_5="13000.00000" pt_clust_6="13000.00000" pt_clust_7="13000.00000" pt_clust_8="13000.00000" pt_clust_9="20.76698"></scales>
<clustering>
<clus scale="   20.767">  1  9  2 -1</clus>
<clus scale="   89.879">  7  8 -1 -1</clus>
<clus scale="   90.836">  5  6 -1 -1</clus>
<clus scale="   92.717">  2  7  1 -1</clus>
<clus scale="   92.717">  2  5  1 -1</clus>
</clustering>
</event>
<event>
 9    1  0.1612788E-005  0.1030798E+03  0.7546771E-02  0.1274690E+00
         -1   -1    0    0    0  501 -0.00000000000E+00  0.00000000000E+00  0.10093909764E+03  0.10093909764E+03  0.00000000000E+00 0.  1.
          1   -1    0    0  502    0  0.00000000000E+00 -0.00000000000E+00 -0.20044052660E+03  0.20044052660E+03  0.00000000000E+00 0. -1.
         23    2    1    2    0    0 -0.51023790147E+02  0.38847601919E+02 -0.33160499836E+02  0.11642283409E+03  0.91335065627E+02 0.  0.
         23    2    1    2    0    0  0.28312866008E+02 -0.28481805490E+02 -0.10186359306E+03  0.14153910407E+03  0.89689992550E+02 0.  0.
        -11    1    3    3    0    0 -0.76354314808E+02  0.36333321757E+02 -0.33534391613E+02  0.90965087152E+02  0.00000000000E+00 0.  1.
         11    1    3    3    0    0  0.25330524660E+02  0.25142801618E+01  0.37389177650E+00  0.25457746942E+02  0.00000000000E+00 0. -1.
        -13    1    4    4    0    0 -0.26714211778E+02 -0.94957023089E+01 -0.53827619142E+01  0.28858128822E+02  0.00000000000E+00 0.  1.
         13    1    4    4    0    0  0.55027077786E+02 -0.18986103181E+02 -0.96480831149E+02  0.11268097525E+03  0.00000000000E+00 0. -1.
         21    1    1    2  502  501  0.22710924139E+02 -0.10365796429E+02  0.35522663941E+02  0.43417686078E+02  0.00000000000E+00 0.  1.
<scales pt_clust_5="13000.00000" pt_clust_6="13000.00000" pt_clust_7="13000.00000" pt_clust_8="13000.00000" pt_clust_9="24.96469"></scales>
<clustering>
<clus scale="   24.965">  1  9  2 -1</clus>
<clus scale="   89.690">  7  8 -1 -1</clus>
<clus scale="   91.335">  5  6 -1 -1</clus>
<clus scale="  101.625">  2  7  1 -1</clus>
<clus scale="  101.625">  2  5  1 -1</clus>
</clustering>
</event>
<event>
 9    1  0.1612788E-005  0.2995274E+03  0.7546771E-02  0.1085659E+00
         -1   -1    0    0    0  501 -0.00000000000E+00  0.00000000000E+00  0.71647713157E+03  0.71647713157E+03  0.00000000000E+00 0.  1.
          1   -1    0    0  502    0  0.00000000000E+00 -0.00000000000E+00 -0.57235486523E+03  0.57235486523E+03  0.00000000000E+00 0. -1.
         23    2    1    2    0    0  0.31283710841E+03  0.85554811599E+01  0.57280835612E+03  0.65991941695E+03  0.97180097573E+02 0.  0.
         23    2    1    2    0    0 -0.27952716095E+03 -0.86399333682E+01 -0.48177563509E+03  0.56623834629E+03  0.10152842007E+03 0.  0.
        -11    1    4    4    0    0 -0.42387431547E+02  0.22751012670E+02 -0.14781227123E+03  0.15544378552E+03  0.00000000000E+00 0.  1.
         11    1    4    4    0    0 -0.23713972941E+03 -0.31390946038E+02 -0.33396336385E+03  0.41079456076E+03  0.00000000000E+00 0. -1.
        -13    1    3    3    0    0  0.61594540904E+02 -0.37715785412E+02  0.12508605706E+03  0.14443991696E+03  0.00000000000E+00 0. -1.
         13    1    3    3    0    0  0.25124256750E+03  0.46271266572E+02  0.44772229906E+03  0.51547949999E+03  0.00000000000E+00 0.  1.
         21    1    1    2  502  501 -0.33309947453E+02  0.84452208277E-01  0.53089545312E+02  0.62674233564E+02  0.00000000000E+00 0. -1.
<scales pt_clust_5="13000.00000" pt_clust_6="13000.00000" pt_clust_7="13000.00000" pt_clust_8="13000.00000" pt_clust_9="33.31005"></scales>
<clustering>
<clus scale="   33.310">  1  9  2 -1</clus>
<clus scale="   97.180">  7  8 -1 -1</clus>
<clus scale="  101.528">  5  6 -1 -1</clus>
<clus scale="  298.082">  1  7  2 -1</clus>
<clus scale="  299.527">  2  5  1 -1</clus>
</clustering>
</event>
<event>
 9    1  0.1612788E-005  0.9628716E+02  0.7546771E-02  0.1288571E+00
          2   -1    0    0  502    0  0.00000000000E+00  0.00000000000E+00  0.39825808974E+02  0.39825808974E+02  0.00000000000E+00 0. -1.
         -2   -1    0    0    0  501 -0.00000000000E+00 -0.00000000000E+00 -0.34226467359E+03  0.34226467359E+03  0.00000000000E+00 0.  1.
         23    2    1    2    0    0 -0.26661740476E+02  0.17390614563E+02 -0.10226150543E+03  0.14064554120E+03  0.91161784134E+02 0.  0.
         23    2    1    2    0    0  0.30557428378E+02  0.32990521950E+01 -0.10006832817E+03  0.13914608123E+03  0.91669632068E+02 0.  0.
        -13    1    3    3    0    0 -0.14447404285E+02  0.50680662220E+02 -0.31238932303E+02  0.61262777484E+02  0.00000000000E+00 0.  1.
         13    1    3    3    0    0 -0.12214336191E+02 -0.33290047657E+02 -0.71022573126E+02  0.79382763715E+02  0.00000000000E+00 0. -1.
        -13    1    4    4    0    0  0.57986272738E+02  0.14035994859E+02 -0.90075543903E+02  0.10804175391E+03  0.00000000000E+00 0.  1.
         13    1    4    4    0    0 -0.27428844360E+02 -0.10736942664E+02 -0.99927842694E+01  0.31104327322E+02  0.00000000000E+00 0. -1.
         21    1    1    2  502  501 -0.38956879015E+01 -0.20689666758E+02 -0.10010903101E+03  0.10229886013E+03  0.00000000000E+00 0.  1.
<scales pt_clust_5="13000.00000" pt_clust_6="13000.00000" pt_clust_7="13000.00000" pt_clust_8="13000.00000" pt_clust_9="21.05323"></scales>
<clustering>
<clus scale="   21.053">  2  9  1 -1</clus>
<clus scale="   91.162">  5  6 -1 -1</clus>
<clus scale="   91.670">  7  8 -1 -1</clus>
<clus scale="   95.804">  2  5  1 -1</clus>
<clus scale="   96.287">  1  5  2 -1</clus>
</clustering>
</event>
<event>
 9    1  0.1612788E-005  0.9445331E+02  0.7546771E-02  0.1292809E+00
         -2   -1    0    0    0  501 -0.00000000000E+00  0.00000000000E+00  0.11202697034E+03  0.11202697034E+03  0.00000000000E+00 0.  1.
          2   -1    0    0  502    0  0.00000000000E+00 -0.00000000000E+00 -0.21802617453E+03  0.21802617453E+03  0.00000000000E+00 0. -1.
         23    2    1    2    0    0 -0.34024971637E+02  0.34886001784E+01 -0.37834823224E+02  0.10489751846E+03  0.91663223297E+02 0.  0.
         23    2    1    2    0    0 -0.23006136102E+01  0.27407848887E+02 -0.12053130412E+03  0.15432884228E+03  0.92374852008E+02 0.  0.
        -11    1    3    3    0    0 -0.55090621734E+02 -0.26392932351E+02 -0.26810709584E+02  0.66711150714E+02  0.00000000000E+00 0. -1.
         11    1    3    3    0    0  0.21065650097E+02  0.29881532529E+02 -0.11024113640E+02  0.38186367749E+02  0.00000000000E+00 0.  1.
        -13    1    4    4    0    0 -0.34161844814E+02  0.14741074496E+02 -0.98927252257E+01  0.38499310784E+02  0.00000000000E+00 0. -1.
         13    1    4    4    0    0  0.31861231204E+02  0.12666774391E+02 -0.11063857889E+03  0.11582953150E+03  0.00000000000E+00 0.  1.
         21    1    1    2  502  501  0.36325585247E+02 -0.30896449066E+02  0.52366923156E+02  0.70826784123E+02  0.00000000000E+00 0. -1.
<scales pt_clust_5="13000.00000" pt_clust_6="13000.00000" pt_clust_7="13000.00000" pt_clust_8="13000.00000" pt_clust_9="47.68793"></scales>
<clustering>
<clus scale="   47.688">  1  9  2 -1</clus>
<clus scale="   91.663">  5  6 -1 -1</clus>
<clus scale="   92.375">  7  8 -1 -1</clus>
<clus scale="   93.757">  1  5  2 -1</clus>
<clus scale="   94.453">  2  5  1 -1</clus>
</clustering>
</event>
<event>
 9    1  0.1612788E-005  0.9517746E+02  0.7546771E-02  0.1291078E+00
          2   -1    0    0  502    0  0.00000000000E+00  0.00000000000E+00  0.67156698068E+03  0.67156698068E+03  0.00000000000E+00 0. -1.
         -2   -1    0    0    0  501 -0.00000000000E+00 -0.00000000000E+00 -0.22707418972E+02  0.22707418972E+02  0.00000000000E+00 0.  1.
         23    2    1    2    0    0  0.83771900620E+01  0.58514260760E+01  0.25747565425E+03  0.27344031563E+03  0.91495776845E+02 0.  0.
         23    2    1    2    0    0 -0.31947127754E+02  0.32709765711E+02  0.32221090576E+03  0.33820593120E+03  0.92048011191E+02 0.  0.
        -11    1    4    4    0    0  0.28599221876E+02  0.44028716833E+00  0.51223573750E+02  0.58668252508E+02  0.00000000000E+00 0.  1.
         11    1    4    4    0    0 -0.60546349629E+02  0.32269478542E+02  0.27098733201E+03  0.27953767869E+03  0.00000000000E+00 0. -1.
        -11    1    3    3    0    0  0.43736030207E+02 -0.16632161205E+02  0.17193190994E+03  0.17818543930E+03  0.00000000000E+00 0.  1.
         11    1    3    3    0    0 -0.35358840145E+02  0.22483587281E+02  0.85543744311E+02  0.95254876327E+02  0.00000000000E+00 0. -1.
         21    1    1    2  502  501  0.23569937692E+02 -0.38561191787E+02  0.69173001707E+02  0.82628152829E+02  0.00000000000E+00 0.  1.
<scales pt_clust_5="13000.00000" pt_clust_6="13000.00000" pt_clust_7="13000.00000" pt_clust_8="13000.00000" pt_clust_9="45.19411"></scales>
<clustering>
<clus scale="   45.194">  2  9  1 -1</clus>
<clus scale="   91.496">  7  8 -1 -1</clus>
<clus scale="   92.048">  5  6 -1 -1</clus>
<clus scale="   94.643">  2  7  1 -1</clus>
<clus scale="   95.177">  1  5  2 -1</clus>
</clustering>
</event>
<event>
 9    1  0.1612788E-005  0.1932927E+03  0.7546771E-02  0.1174559E+00
         -1   -1    0    0    0  501 -0.00000000000E+00  0.00000000000E+00  0.19954004337E+03  0.19954004337E+03  0.00000000000E+00 0.  1.
          1   -1    0    0  502    0  0.00000000000E+00 -0.00000000000E+00 -0.49405675543E+03  0.49405675543E+03  0.00000000000E+00 0. -1.
         23    2    1    2    0    0 -0.23820770686E+02  0.73845797798E+02  0.62348051327E+02  0.13931510935E+03  0.97471991980E+02 0.  0.
         23    2    1    2    0    0  0.14387516930E+03 -0.12006634054E+03 -0.36993897732E+03  0.42497456564E+03  0.92911484916E+02 0.  0.
        -13    1    4    4    0    0  0.17752276341E+02  0.15439725050E+02 -0.51889239993E+02  0.56973868150E+02  0.00000000000E+00 0.  1.
         13    1    4    4    0    0  0.12612289296E+03 -0.13550606559E+03 -0.31804973733E+03  0.36800069749E+03  0.00000000000E+00 0. -1.
        -13    1    3    3    0    0  0.14291117833E+02 -0.15087091580E+02 -0.50668646553E+01  0.21389939194E+02  0.00000000000E+00 0. -1.
         13    1    3    3    0    0 -0.38111888519E+02  0.88932889378E+02  0.67414915982E+02  0.11792517016E+03  0.00000000000E+00 0.  1.
         21    1    1    2  502  501 -0.12005439861E+03  0.46220542747E+02  0.13074213939E+02  0.12930712381E+03  0.00000000000E+00 0.  1.
<scales pt_clust_5="13000.00000" pt_clust_6="13000.00000" pt_clust_7="13000.00000" pt_clust_8="13000.00000" pt_clust_9="169.49782"></scales>
<clustering>
<clus scale="   92.911">  5  6 -1 -1</clus>
<clus scale="   97.472">  7  8 -1 -1</clus>
<clus scale="  124.585">  1  7  2 -1</clus>
<clus scale="  169.498">  1  9  2 -1</clus>
<clus scale="  193.293">  2  5  1 -1</clus>
</clustering>
</event>
<event>
 9    1  0.1612788E-005  0.1763345E+03  0.7546771E-02  0.1171779E+00
          1   -1    0    0  502    0  0.00000000000E+00  0.00000000000E+00  0.11280586091E+04  0.11280586091E+04  0.00000000000E+00 0. -1.
         -1   -1    0    0    0  501 -0.00000000000E+00 -0.00000000000E+00 -0.35520422463E+02  0.35520422463E+02  0.00000000000E+00 0.  1.
         23    2    1    2    0    0 -0.13255065911E+03  0.10202047486E+03  0.48677263838E+03  0.52234477704E+03  0.88986572624E+02 0.  0.
         23    2    1    2    0    0  0.10278079101E+03 -0.94161542485E+02  0.57041937470E+03  0.59435824947E+03  0.91941169162E+02 0.  0.
        -11    1    3    3    0    0 -0.94981929801E+02  0.90914203745E+02  0.25111674608E+03  0.28345472230E+03  0.00000000000E+00 0.  1.
         11    1    3    3    0    0 -0.37568729309E+02  0.11106271111E+02  0.23565589230E+03  0.23889005474E+03  0.00000000000E+00 0. -1.
        -11    1    4    4    0    0 -0.15316168851E+02 -0.26170037225E+02  0.88980071744E+02  0.94004835217E+02  0.00000000000E+00 0.  1.
         11    1    4    4    0    0  0.11809695986E+03 -0.67991505260E+02  0.48143930296E+03  0.50035341425E+03  0.00000000000E+00 0. -1.
         21    1    1    2  502  501  0.29769868101E+02 -0.78589323715E+01  0.35346173542E+02  0.46876005043E+02  0.00000000000E+00 0. -1.
<scales pt_clust_5="13000.00000" pt_clust_6="13000.00000" pt_clust_7="13000.00000" pt_clust_8="13000.00000" pt_clust_9="30.78974"></scales>
<clustering>
<clus scale="   30.790">  2  9  1 -1</clus>
<clus scale="   88.987">  5  6 -1 -1</clus>
<clus scale="   91.941">  7  8 -1 -1</clus>
<clus scale="  174.812">  2  5  1 -1</clus>
<clus scale="  176.335">  1  5  2 -1</clus>
</clustering>
</event>
<event>
 9    1  0.1612788E-005  0.2904507E+03  0.7546771E-02  0.1090542E+00
         -1   -1    0    0    0  501 -0.00000000000E+00  0.00000000000E+00  0.57272433053E+03  0.57272433053E+03  0.00000000000E+00 0.  1.
          1   -1    0    0  502    0  0.00000000000E+00 -0.00000000000E+00 -0.13113220039E+04  0.13113220039E+04  0.00000000000E+00 0. -1.
         23    2    1    2    0    0  0.25378654980E+03 -0.27318045758E+01  0.50871752441E+03  0.57426779370E+03  0.81085779429E+02 0.  0.
         23    2    1    2    0    0 -0.27614192079E+03 -0.37653587191E+01 -0.12525398810E+04  0.12859190969E+04  0.91995825736E+02 0.  0.
        -11    1    3    3    0    0  0.16556979695E+03  0.35883441716E+02  0.30357600054E+03  0.34764833835E+03  0.00000000000E+00 0.  1.
         11    1    3    3    0    0  0.88216752848E+02 -0.38615246292E+02  0.20514152387E+03  0.22661945535E+03  0.00000000000E+00 0. -1.
        -13    1    4    4    0    0 -0.12733047869E+03 -0.36564374616E+02 -0.45238093844E+03  0.47137937774E+03  0.00000000000E+00 0. -1.
         13    1    4    4    0    0 -0.14881144210E+03  0.32799015897E+02 -0.80015894254E+03  0.81453971915E+03  0.00000000000E+00 0.  1.
         21    1    1    2  502  501  0.22355370993E+02  0.64971632949E+01  0.52246832507E+01  0.23859443795E+02  0.00000000000E+00 0. -1.
<scales pt_clust_5="13000.00000" pt_clust_6="13000.00000" pt_clust_7="13000.00000" pt_clust_8="13000.00000" pt_clust_9="23.28037"></scales>
<clustering>
<clus scale="   23.280">  1  9  2 -1</clus>
<clus scale="   81.086">  5  6 -1 -1</clus>
<clus scale="   91.996">  7  8 -1 -1</clus>
<clus scale="  287.182">  1  5  2 -1</clus>
<clus scale="  290.451">  2  5  1 -1</clus>
</clustering>
</event>
<event>
 9    1  0.1612788E-005  0.9826849E+02  0.7546771E-02  0.1286569E+00
          1   -1    0    0  502    0  0.00000000000E+00  0.00000000000E+00  0.34170947184E+03  0.34170947184E+03  0.00000000000E+00 0. -1.
         -1   -1    0    0    0  501 -0.00000000000E+00 -0.00000000000E+00 -0.48601116631E+02  0.48601116631E+02  0.00000000000E+00 0.  1.
         23    2    1    2    0    0 -0.58657783978E+01 -0.52466430586E+01  0.40053919340E+02  0.99999234890E+02  0.91288531068E+02 0.  0.
         23    2    1    2    0    0  0.25043057217E+02 -0.53209040519E+01  0.24889436762E+03  0.26802352635E+03  0.96087136025E+02 0.  0.
        -13    1    3    3    0    0 -0.12138272578E+02 -0.37776075801E+02  0.51443206830E+02  0.64967477194E+02  0.00000000000E+00 0. -1.
         13    1    3    3    0    0  0.62724941800E+01  0.32529432742E+02 -0.11389287490E+02  0.35031757696E+02  0.00000000000E+00 0.  1.
        -13    1    4    4    0    0  0.16640811042E+02  0.39963547206E+02  0.18013787248E+03  0.18526644272E+03  0.00000000000E+00 0.  1.
         13    1    4    4    0    0  0.84022461755E+01 -0.45284451258E+02  0.68756495136E+02  0.82757083624E+02  0.00000000000E+00 0. -1.
         21    1    1    2  502  501 -0.19177278819E+02  0.10567547111E+02  0.41600682488E+01  0.22287827231E+02  0.00000000000E+00 0.  1.
<scales pt_clust_5="13000.00000" pt_clust_6="13000.00000" pt_clust_7="13000.00000" pt_clust_8="13000.00000" pt_clust_9="21.89614"></scales>
<clustering>
<clus scale="   21.896">  2  9  1 -1</clus>
<clus scale="   91.289">  5  6 -1 -1</clus>
<clus scale="   93.582">  2  5  1 -1</clus>
<clus scale="   96.087">  7  8 -1 -1</clus>
<clus scale="   98.268">  1  5  2 -1</clus>
</clustering>
</event>
<event>
 9    1  0.1612788E-005  0.1694627E+03  0.7546771E-02  0.1178565E+00
          3   -1    0    0  502    0  0.00000000000E+00  0.00000000000E+00  0.19983771554E+03  0.19983771554E+03  0.00000000000E+00 0. -1.
         -3   -1    0    0    0  501 -0.00000000000E+00 -0.00000000000E+00 -0.20997619795E+03  0.20997619795E+03  0.00000000000E+00 0.  1.
         23    2    1    2    0    0 -0.28308757603E+02 -0.15829905306E+03 -0.29216203043E+02  0.18697002853E+03  0.90797737264E+02 0.  0.
         23    2    1    2    0    0  0.15700385122E+01  0.13323459159E+03  0.55561277860E+02  0.17113086653E+03  0.91895573692E+02 0.  0.
        -11    1    4    4    0    0 -0.41411616448E+02  0.43300262604E+02  0.72170417112E+01  0.60348325656E+02  0.00000000000E+00 0. -1.
         11    1    4    4    0    0  0.42981654960E+02  0.89934328984E+02  0.48344236149E+02  0.11078254087E+03  0.00000000000E+00 0.  1.
        -13    1    3    3    0    0  0.18008137001E+02 -0.23528432190E+02  0.20510859051E+02  0.36035752505E+02  0.00000000000E+00 0. -1.
         13    1    3    3    0    0 -0.46316894604E+02 -0.13477062087E+03 -0.49727062094E+02  0.15093427602E+03  0.00000000000E+00 0.  1.
         21    1    1    2  502  501  0.26738719091E+02  0.25064461467E+02 -0.36483557232E+02  0.51713018434E+02  0.00000000000E+00 0.  1.
<scales pt_clust_5="13000.00000" pt_clust_6="13000.00000" pt_clust_7="13000.00000" pt_clust_8="13000.00000" pt_clust_9="36.64951"></scales>
<clustering>
<clus scale="   36.650">  2  9  1 -1</clus>
<clus scale="   90.798">  7  8 -1 -1</clus>
<clus scale="   91.896">  5  6 -1 -1</clus>
<clus scale="  168.870">  2  7  1 -1</clus>
<clus scale="  169.463">  1  5  2 -1</clus>
</clustering>
</event>
<event>
 9    1  0.1612788E-005  0.1494767E+03  0.7546771E-02  0.1202343E+00
         -3   -1    0    0    0  501 -0.00000000000E+00  0.00000000000E+00  0.37259063634E+03  0.37259063634E+03  0.00000000000E+00 0.  1.
          3   -1    0    0  502    0  0.00000000000E+00 -0.00000000000E+00 -0.97528928911E+02  0.97528928911E+02  0.00000000000E+00 0. -1.
         23    2    1    2    0    0 -0.49068831020E+02  0.72591943864E+02  0.20202122285E+03  0.23906336347E+03  0.93066518031E+02 0.  0.
         23    2    1    2    0    0  0.80182621410E+02 -0.99708418091E+02  0.88934105571E+01  0.15477895595E+03  0.86639546618E+02 0.  0.
        -11    1    4    4    0    0  0.46548849563E+02 -0.10676573234E+03 -0.74793607743E+01  0.11671185816E+03  0.00000000000E+00 0. -1.
         11    1    4    4    0    0  0.33633771846E+02  0.70573142454E+01  0.16372771331E+02  0.38067097788E+02  0.00000000000E+00 0.  1.
        -13    1    3    3    0    0  0.24453287060E+02  0.31227815340E+02  0.93845774794E+02  0.10188311512E+03  0.00000000000E+00 0.  1.
         13    1    3    3    0    0 -0.73522118081E+02  0.41364128524E+02  0.10817544806E+03  0.13718024835E+03  0.00000000000E+00 0. -1.
         21    1    1    2  502  501 -0.31113790389E+02  0.27116474227E+02  0.64147074016E+02  0.76277245832E+02  0.00000000000E+00 0.  1.
<scales pt_clust_5="13000.00000" pt_clust_6="13000.00000" pt_clust_7="13000.00000" pt_clust_8="13000.00000" pt_clust_9="41.27192"></scales>
<clustering>
<clus scale="   41.272">  1  9  2 -1</clus>
<clus scale="   86.640">  5  6 -1 -1</clus>
<clus scale="   93.067">  7  8 -1 -1</clus>
<clus scale="  145.562">  2  5  1 -1</clus>
<clus scale="  145.562">  2  5  1 -1</clus>
</clustering>
</event>
<event>
 9    1  0.1612788E-005  0.1140474E+03  0.7546771E-02  0.1258504E+00
         -3   -1    0    0    0  501 -0.00000000000E+00  0.00000000000E+00  0.11218058181E+03  0.11218058181E+03  0.00000000000E+00 0.  1.
          3   -1    0    0  502    0  0.00000000000E+00 -0.00000000000E+00 -0.34205134522E+03  0.34205134522E+03  0.00000000000E+00 0. -1.
         23    2    1    2    0    0  0.61389852941E+02 -0.41821404158E+02 -0.17201203293E+03  0.21561913407E+03  0.10670392501E+03 0.  0.
         23    2    1    2    0    0  0.92059608011E+01  0.25183858991E+02 -0.11131629489E+03  0.14851125014E+03  0.94579582583E+02 0.  0.
        -11    1    3    3    0    0  0.74766034499E+02 -0.12640160420E+02 -0.16662781987E+03  0.18306983347E+03  0.00000000000E+00 0. -1.
         11    1    3    3    0    0 -0.13376181558E+02 -0.29181243738E+02 -0.53842130600E+01  0.32549300598E+02  0.00000000000E+00 0.  1.
        -13    1    4    4    0    0  0.29886969200E+02  0.53042674285E+02 -0.86816405491E+02  0.10603699584E+03  0.00000000000E+00 0. -1.
         13    1    4    4    0    0 -0.20681008399E+02 -0.27858815294E+02 -0.24499889397E+02  0.42474254302E+02  0.00000000000E+00 0.  1.
         21    1    1    2  502  501 -0.70595813743E+02  0.16637545167E+02  0.53457564411E+02  0.90101542827E+02  0.00000000000E+00 0.  1.
<scales pt_clust_5="13000.00000" pt_clust_6="13000.00000" pt_clust_7="13000.00000" pt_clust_8="13000.00000" pt_clust_9="72.52983"></scales>
<clustering>
<clus scale="   72.530">  1  9  2 -1</clus>
<clus scale="   94.580">  7  8 -1 -1</clus>
<clus scale="  102.793">  2  7  1 -1</clus>
<clus scale="  106.704">  5  6 -1 -1</clus>
<clus scale="  102.793">  2  5  1 -1</clus>
</clustering>
</event>
<event>
 9    1  0.1612788E-005  0.1500928E+03  0.7546771E-02  0.1201292E+00
         -1   -1    0    0    0  501 -0.00000000000E+00  0.00000000000E+00  0.14550092323E+03  0.14550092323E+03  0.00000000000E+00 0.  1.
          1   -1    0    0  502    0  0.00000000000E+00 -0.00000000000E+00 -0.19710876025E+03  0.19710876025E+03  0.00000000000E+00 0. -1.
         23    2    1    2    0    0  0.11614243245E+03 -0.22440813244E+02 -0.35327714153E+02  0.15062664284E+03  0.86299961937E+02 0.  0.
         23    2    1    2    0    0 -0.12112844049E+03 -0.11525945615E+01 -0.41307401812E+02  0.15722856094E+03  0.91329575495E+02 0.  0.
        -11    1    4    4    0    0 -0.12146718043E+03 -0.24145087539E+02 -0.19187049632E+02  0.12532120350E+03  0.00000000000E+00 0.  1.
         11    1    4    4    0    0  0.33873993607E+00  0.22992492978E+02 -0.22120352181E+02  0.31907357438E+02  0.00000000000E+00 0. -1.
        -11    1    3    3    0    0  0.57974783958E+01 -0.34745884593E+02 -0.11634488892E+02  0.37097824514E+02  0.00000000000E+00 0.  1.
         11    1    3    3    0    0  0.11034495406E+03  0.12305071349E+02 -0.23693225261E+02  0.11352881833E+03  0.00000000000E+00 0. -1.
         21    1    1    2  502  501  0.49860080350E+01  0.23593407806E+02  0.25027278951E+02  0.34754479707E+02  0.00000000000E+00 0. -1.
<scales pt_clust_5="13000.00000" pt_clust_6="13000.00000" pt_clust_7="13000.00000" pt_clust_8="13000.00000" pt_clust_9="24.11450"></scales>
<clustering>
<clus scale="   24.115">  1  9  2 -1</clus>
<clus scale="   86.300">  7  8 -1 -1</clus>
<clus scale="   91.330">  5  6 -1 -1</clus>
<clus scale="  147.086">  1  7  2 -1</clus>
<clus scale="  150.093">  2  5  1 -1</clus>
</clustering>
</event>
<event>
 9    1  0.1612788E-005  0.1083457E+03  0.7546771E-02  0.1266334E+00
          1   -1    0    0  502    0  0.00000000000E+00  0.00000000000E+00  0.59764419146E+03  0.59764419146E+03  0.00000000000E+00 0. -1.
         -1   -1    0    0    0  501 -0.00000000000E+00 -0.00000000000E+00 -0.53684435398E+02  0.53684435398E+02  0.00000000000E+00 0.  1.
         23    2    1    2    0    0 -0.35257804098E+02  0.41917685108E+02  0.13996122629E+03  0.17725277472E+03  0.93963802632E+02 0.  0.
         23    2    1    2    0    0  0.52371464038E+02 -0.18601811590E+02  0.42554975181E+03  0.43800699458E+03  0.87571333209E+02 0.  0.
        -11    1    3    3    0    0 -0.28459124034E+02 -0.80653365392E+01  0.11966655383E+01  0.29604111246E+02  0.00000000000E+00 0.  1.
         11    1    3    3    0    0 -0.67986800642E+01  0.49983021647E+02  0.13876456075E+03  0.14764866347E+03  0.00000000000E+00 0. -1.
        -13    1    4    4    0    0 -0.24129217967E+02 -0.73857126489E+01  0.78811753551E+02  0.82753008458E+02  0.00000000000E+00 0. -1.
         13    1    4    4    0    0  0.76500682005E+02 -0.11216098941E+02  0.34673799826E+03  0.35525398612E+03  0.00000000000E+00 0.  1.
         21    1    1    2  502  501 -0.17113659940E+02 -0.23315873518E+02 -0.21551222036E+02  0.36068857560E+02  0.00000000000E+00 0. -1.
<scales pt_clust_5="13000.00000" pt_clust_6="13000.00000" pt_clust_7="13000.00000" pt_clust_8="13000.00000" pt_clust_9="28.92244"></scales>
<clustering>
<clus scale="   28.922">  2  9  1 -1</clus>
<clus scale="   87.571">  7  8 -1 -1</clus>
<clus scale="   93.964">  5  6 -1 -1</clus>
<clus scale="  102.851">  1  7  2 -1</clus>
<clus scale="  102.851">  1  5  2 -1</clus>
</clustering>
</event>
<event>
 9    1  0.1612788E-005  0.1102982E+03  0.7546771E-02  0.1261535E+00
          3   -1    0    0  502    0  0.00000000000E+00  0.00000000000E+00  0.10107858955E+03  0.10107858955E+03  0.00000000000E+00 0. -1.
         -3   -1    0    0    0  501 -0.00000000000E+00 -0.00000000000E+00 -0.24323211176E+03  0.24323211176E+03  0.00000000000E+00 0.  1.
         23    2    1    2    0    0  0.28129482195E+02 -0.32288212348E+02 -0.99874654384E+02  0.14357137704E+03  0.93829618411E+02 0.  0.
         23    2    1    2    0    0 -0.31140142407E+02  0.54817412218E+02  0.38797345332E+02  0.11653729780E+03  0.90005836599E+02 0.  0.
        -13    1    4    4    0    0  0.21700759390E+02  0.17131690218E+02  0.43414205129E+02  0.51470486444E+02  0.00000000000E+00 0. -1.
         13    1    4    4    0    0 -0.52840901797E+02  0.37685722000E+02 -0.46168597972E+01  0.65066811354E+02  0.00000000000E+00 0.  1.
        -13    1    3    3    0    0 -0.26800556022E+02 -0.25362773288E+01 -0.68635418530E+02  0.73726000723E+02  0.00000000000E+00 0.  1.
         13    1    3    3    0    0  0.54930038217E+02 -0.29751935020E+02 -0.31239235854E+02  0.69845376315E+02  0.00000000000E+00 0. -1.
         21    1    1    2  502  501  0.30106602117E+01 -0.22529199869E+02 -0.81076213162E+02  0.84202026474E+02  0.00000000000E+00 0. -1.
<scales pt_clust_5="13000.00000" pt_clust_6="13000.00000" pt_clust_7="13000.00000" pt_clust_8="13000.00000" pt_clust_9="22.72947"></scales>
<clustering>
<clus scale="   22.729">  2  9  1 -1</clus>
<clus scale="   90.006">  5  6 -1 -1</clus>
<clus scale="   93.830">  7  8 -1 -1</clus>
<clus scale="  107.064">  1  5  2 -1</clus>
<clus scale="  107.064">  1  5  2 -1</clus>
</clustering>
</event>
<event>
 9    1  0.1612788E-005  0.1127706E+03  0.7546771E-02  0.1255818E+00
         -2   -1    0    0    0  501 -0.00000000000E+00  0.00000000000E+00  0.97229493541E+02  0.97229493541E+02  0.00000000000E+00 0.  1.
          2   -1    0    0  502    0  0.00000000000E+00 -0.00000000000E+00 -0.33093588249E+03  0.33093588249E+03  0.00000000000E+00 0. -1.
         23    2    1    2    0    0 -0.34654198453E+02  0.98000952278E+01  0.23279938648E+01  0.98670668645E+02  0.91834230865E+02 0.  0.
         23    2    1    2    0    0  0.67166628297E+02 -0.27989307599E+02 -0.26018854819E+03  0.28509505371E+03  0.91029400455E+02 0.  0.
        -13    1    4    4    0    0  0.89319079615E+02 -0.28397025730E+02 -0.22146867852E+03  0.24048422946E+03  0.00000000000E+00 0. -1.
         13    1    4    4    0    0 -0.22152451318E+02  0.40771813081E+00 -0.38719869662E+02  0.44610824248E+02  0.00000000000E+00 0.  1.
        -13    1    3    3    0    0  0.31084010486E+02 -0.25931485669E+01  0.56167277411E+01  0.31693654852E+02  0.00000000000E+00 0. -1.
         13    1    3    3    0    0 -0.65738208938E+02  0.12393243795E+02 -0.32887338763E+01  0.66977013793E+02  0.00000000000E+00 0.  1.
         21    1    1    2  502  501 -0.32512429844E+02  0.18189212371E+02  0.24154165376E+02  0.44399653671E+02  0.00000000000E+00 0.  1.
<scales pt_clust_5="13000.00000" pt_clust_6="13000.00000" pt_clust_7="13000.00000" pt_clust_8="13000.00000" pt_clust_9="37.25460"></scales>
<clustering>
<clus scale="   37.255">  1  9  2 -1</clus>
<clus scale="   91.029">  5  6 -1 -1</clus>
<clus scale="   91.834">  7  8 -1 -1</clus>
<clus scale="  112.116">  2  5  1 -1</clus>
<clus scale="  112.116">  2  5  1 -1</clus>
</clustering>
</event>
<event>
 9    1  0.1612788E-005  0.1063624E+03  0.7546771E-02  0.1268416E+00
         -1   -1    0    0    0  501 -0.00000000000E+00  0.00000000000E+00  0.26367740407E+03  0.26367740407E+03  0.00000000000E+00 0.  1.
          1   -1    0    0  502    0  0.00000000000E+00 -0.00000000000E+00 -0.12382450962E+03  0.12382450962E+03  0.00000000000E+00 0. -1.
         23    2    1    2    0    0 -0.22877178062E+02 -0.47718518055E+02  0.13829928132E+03  0.17390002082E+03  0.91181707532E+02 0.  0.
         23    2    1    2    0    0  0.95034725211E+02  0.95307486274E+01 -0.11272130590E+02  0.13096100077E+03  0.88889192983E+02 0.  0.
        -11    1    3    3    0    0  0.10836919405E+02 -0.58357088715E+02  0.46097610268E+02  0.75153032526E+02  0.00000000000E+00 0.  1.
         11    1    3    3    0    0 -0.33714097467E+02  0.10638570660E+02  0.92201671048E+02  0.98746988297E+02  0.00000000000E+00 0. -1.
        -11    1    4    4    0    0  0.62412103951E+02 -0.17508549353E+02  0.30342274437E+02  0.71571458264E+02  0.00000000000E+00 0.  1.
         11    1    4    4    0    0  0.32622621260E+02  0.27039297981E+02 -0.41614405027E+02  0.59389542505E+02  0.00000000000E+00 0. -1.
         21    1    1    2  502  501 -0.72157547149E+02  0.38187769427E+02  0.12825743729E+02  0.82640892097E+02  0.00000000000E+00 0.  1.
<scales pt_clust_5="13000.00000" pt_clust_6="13000.00000" pt_clust_7="13000.00000" pt_clust_8="13000.00000" pt_clust_9="81.63956"></scales>
<clustering>
<clus scale="   81.640">  2  9  1 -1</clus>
<clus scale="   88.889">  7  8 -1 -1</clus>
<clus scale="   91.182">  5  6 -1 -1</clus>
<clus scale="  104.404">  2  7  1 -1</clus>
<clus scale="   81.640">  2  5  1 -1</clus>
</clustering>
</event>
<event>
 9    1  0.1612788E-005  0.9770946E+02  0.7546771E-02  0.1287407E+00
         -3   -1    0    0    0  501 -0.00000000000E+00  0.00000000000E+00  0.11277257122E+03  0.11277257122E+03  0.00000000000E+00 0.  1.
          3   -1    0    0  502    0  0.00000000000E+00 -0.00000000000E+00 -0.14246801067E+03  0.14246801067E+03  0.00000000000E+00 0. -1.
         23    2    1    2    0    0 -0.27138147711E+02  0.48918372648E+01 -0.12760954786E+02  0.95473721148E+02  0.90509559329E+02 0.  0.
         23    2    1    2    0    0  0.87935774133E+01 -0.27102973279E+02 -0.54150830166E+02  0.11270398584E+03  0.94646594507E+02 0.  0.
        -13    1    4    4    0    0 -0.30341799724E+02 -0.32756396549E+02 -0.57751337545E+02  0.72998789809E+02  0.00000000000E+00 0. -1.
         13    1    4    4    0    0  0.39135377137E+02  0.56534232699E+01  0.36005073787E+01  0.39705196029E+02  0.00000000000E+00 0.  1.
        -13    1    3    3    0    0 -0.46203152540E+02  0.29274748471E+02  0.11807200512E+02  0.55956699211E+02  0.00000000000E+00 0. -1.
         13    1    3    3    0    0  0.19065004829E+02 -0.24382911206E+02 -0.24568155298E+02  0.39517021937E+02  0.00000000000E+00 0.  1.
         21    1    1    2  502  501  0.18344570298E+02  0.22211136014E+02  0.37216345500E+02  0.47062874911E+02  0.00000000000E+00 0. -1.
<scales pt_clust_5="13000.00000" pt_clust_6="13000.00000" pt_clust_7="13000.00000" pt_clust_8="13000.00000" pt_clust_9="28.80725"></scales>
<clustering>
<clus scale="   28.807">  1  9  2 -1</clus>
<clus scale="   90.510">  7  8 -1 -1</clus>
<clus scale="   93.708">  1  7  2 -1</clus>
<clus scale="   94.647">  5  6 -1 -1</clus>
<clus scale="   97.709">  2  5  1 -1</clus>
</clustering>
</event>
<event>
 9    1  0.1612788E-005  0.2311683E+03  0.7546771E-02  0.1126030E+00
          1   -1    0    0  502    0  0.00000000000E+00  0.00000000000E+00  0.24582044540E+03  0.24582044540E+03  0.00000000000E+00 0. -1.
         -1   -1    0    0    0  501 -0.00000000000E+00 -0.00000000000E+00 -0.31372661297E+03  0.31372661297E+03  0.00000000000E+00 0.  1.
         23    2    1    2    0    0  0.19813731489E+02  0.16836845169E+03 -0.79320036978E+02  0.20697911650E+03  0.88363832663E+02 0.  0.
         23    2    1    2    0    0 -0.58922478103E+02 -0.23952645666E+03  0.40803812273E+02  0.26621561431E+03  0.91438615128E+02 0.  0.
        -11    1    4    4    0    0 -0.27197805816E+02 -0.10698077111E+03  0.64551044676E+02  0.12787276253E+03  0.00000000000E+00 0. -1.
         11    1    4    4    0    0 -0.31724672287E+02 -0.13254568555E+03 -0.23747232403E+02  0.13834285177E+03  0.00000000000E+00 0.  1.
        -11    1    3    3    0    0  0.42544186563E+02  0.15867261721E+03 -0.78951201924E+02  0.18226436719E+03  0.00000000000E+00 0.  1.
         11    1    3    3    0    0 -0.22730455075E+02  0.96958344744E+01 -0.36883505408E+00  0.24714749308E+02  0.00000000000E+00 0. -1.
         21    1    1    2  502  501  0.39108746614E+02  0.71158004978E+02 -0.29389942864E+02  0.86352327564E+02  0.00000000000E+00 0. -1.
<scales pt_clust_5="13000.00000" pt_clust_6="13000.00000" pt_clust_7="13000.00000" pt_clust_8="13000.00000" pt_clust_9="81.19702"></scales>
<clustering>
<clus scale="   81.197">  2  9  1 -1</clus>
<clus scale="   88.364">  7  8 -1 -1</clus>
<clus scale="   91.439">  5  6 -1 -1</clus>
<clus scale="  229.969">  2  7  1 -1</clus>
<clus scale="  231.168">  1  5  2 -1</clus>
</clustering>
</event>
<event>
 9    1  0.1612788E-005  0.9684185E+02  0.7546771E-02  0.1287809E+00
         -1   -1    0    0    0  501 -0.00000000000E+00  0.00000000000E+00  0.53083397843E+02  0.53083397843E+02  0.00000000000E+00 0.  1.
          1   -1    0    0  502    0  0.00000000000E+00 -0.00000000000E+00 -0.32634741884E+03  0.32634741884E+03  0.00000000000E+00 0. -1.
         23    2    1    2    0    0  0.24528129763E+02 -0.13982945915E+02 -0.13518999479E+03  0.16631582998E+03  0.92668596009E+02 0.  0.
         23    2    1    2    0    0 -0.31307103800E+02 -0.18021593248E+02 -0.14916136734E+03  0.17857263372E+03  0.91291617560E+02 0.  0.
        -11    1    4    4    0    0 -0.31283608762E+02 -0.53882029369E+02 -0.96073147087E+02  0.11450758428E+03  0.00000000000E+00 0. -1.
         11    1    4    4    0    0 -0.23495038058E-01  0.35860436121E+02 -0.53088220252E+02  0.64065049445E+02  0.00000000000E+00 0.  1.
        -13    1    3    3    0    0  0.57739137290E+02 -0.23347655315E+01 -0.10542016223E+03  0.12021925682E+03  0.00000000000E+00 0. -1.
         13    1    3    3    0    0 -0.33211007526E+02 -0.11648180383E+02 -0.29769832556E+02  0.46096573165E+02  0.00000000000E+00 0.  1.
         21    1    1    2  502  501  0.67789740364E+01  0.32004539163E+02  0.11087341128E+02  0.34542352978E+02  0.00000000000E+00 0.  1.
<scales pt_clust_5="13000.00000" pt_clust_6="13000.00000" pt_clust_7="13000.00000" pt_clust_8="13000.00000" pt_clust_9="32.71460"></scales>
<clustering>
<clus scale="   32.715">  1  9  2 -1</clus>
<clus scale="   91.292">  5  6 -1 -1</clus>
<clus scale="   92.669">  7  8 -1 -1</clus>
<clus scale="   95.525">  2  5  1 -1</clus>
<clus scale="   95.525">  2  5  1 -1</clus>
</clustering>
</event>
<event>
 9    1  0.1612788E-005  0.9521274E+02  0.7546771E-02  0.1290765E+00
          2   -1    0    0  502    0  0.00000000000E+00  0.00000000000E+00  0.29211842856E+03  0.29211842856E+03  0.00000000000E+00 0. -1.
         -2   -1    0    0    0  501 -0.00000000000E+00 -0.00000000000E+00 -0.12532161349E+03  0.12532161349E+03  0.00000000000E+00 0.  1.
         23    2    1    2    0    0  0.37234788966E+02  0.78084986498E+01 -0.16080955864E+02  0.98698789045E+02  0.89640680815E+02 0.  0.
         23    2    1    2    0    0  0.75665486487E+01  0.39270949170E+02  0.22213959396E+03  0.24281283272E+03  0.89513196912E+02 0.  0.
        -11    1    3    3    0    0  0.20668902314E+01  0.41242861165E+02 -0.26502632841E+02  0.49067659205E+02  0.00000000000E+00 0. -1.
         11    1    3    3    0    0  0.35167898734E+02 -0.33434362515E+02  0.10421676977E+02  0.49631129840E+02  0.00000000000E+00 0.  1.
        -11    1    4    4    0    0  0.45856660226E+02  0.70037740739E+01  0.12865419259E+03  0.13676179076E+03  0.00000000000E+00 0.  1.
         11    1    4    4    0    0 -0.38290111577E+02  0.32267175096E+02  0.93485401365E+02  0.10605104196E+03  0.00000000000E+00 0. -1.
         21    1    1    2  502  501 -0.44801337614E+02 -0.47079447820E+02 -0.39261823026E+02  0.75928420281E+02  0.00000000000E+00 0. -1.
<scales pt_clust_5="13000.00000" pt_clust_6="13000.00000" pt_clust_7="13000.00000" pt_clust_8="13000.00000" pt_clust_9="64.98949"></scales>
<clustering>
<clus scale="   64.989">  2  9  1 -1</clus>
<clus scale="   89.513">  7  8 -1 -1</clus>
<clus scale="   89.641">  5  6 -1 -1</clus>
<clus scale="   95.093">  1  7  2 -1</clus>
<clus scale="   95.093">  1  5  2 -1</clus>
</clustering>
</event>
<event>
 9    1  0.1612788E-005  0.1073335E+03  0.7546771E-02  0.1265859E+00
         -1   -1    0    0    0  501 -0.00000000000E+00  0.00000000000E+00  0.17310764115E+03  0.17310764115E+03  0.00000000000E+00 0.  1.
          1   -1    0    0  502    0  0.00000000000E+00 -0.00000000000E+00 -0.43943505655E+03  0.43943505655E+03  0.00000000000E+00 0. -1.
         23    2    1    2    0    0 -0.33049925273E+02 -0.96884477016E+01  0.41838779367E+02  0.10779995058E+03  0.93188960220E+02 0.  0.
         23    2    1    2    0    0  0.44043243344E+02  0.33385107175E+02 -0.39740309553E+03  0.41176097918E+03  0.92539240153E+02 0.  0.
        -13    1    3    3    0    0 -0.25669768581E+02 -0.49680375787E+02  0.11570176674E+02  0.57104691100E+02  0.00000000000E+00 0.  1.
         13    1    3    3    0    0 -0.73801566926E+01  0.39991928086E+02  0.30268602693E+02  0.50695259481E+02  0.00000000000E+00 0. -1.
        -13    1    4    4    0    0  0.56848270843E+02  0.57192088873E+02 -0.28917110990E+03  0.30020425002E+03  0.00000000000E+00 0. -1.
         13    1    4    4    0    0 -0.12805027498E+02 -0.23806981698E+02 -0.10823198563E+03  0.11155672915E+03  0.00000000000E+00 0.  1.
         21    1    1    2  502  501 -0.10993318071E+02 -0.23696659473E+02  0.89236900766E+02  0.92981767948E+02  0.00000000000E+00 0.  1.
<scales pt_clust_5="13000.00000" pt_clust_6="13000.00000" pt_clust_7="13000.00000" pt_clust_8="13000.00000" pt_clust_9="26.12249"></scales>
<clustering>
<clus scale="   26.122">  1  9  2 -1</clus>
<clus scale="   92.539">  7  8 -1 -1</clus>
<clus scale="   93.189">  5  6 -1 -1</clus>
<clus scale="  106.770">  2  7  1 -1</clus>
<clus scale="  106.770">  2  5  1 -1</clus>
</clustering>
</event>
<event>
 9    1  0.1612788E-005  0.1166100E+03  0.7546771E-02  0.1248967E+00
          1   -1    0    0  502    0  0.00000000000E+00  0.00000000000E+00  0.42192389998E+03  0.42192389998E+03  0.00000000000E+00 0. -1.
         -1   -1    0    0    0  501 -0.00000000000E+00 -0.00000000000E+00 -0.40589479715E+02  0.40589479715E+02  0.00000000000E+00 0.  1.
         23    2    1    2    0    0 -0.45770200639E+02  0.55190472212E+02  0.16195393336E+03  0.19857918005E+03  0.89798188900E+02 0.  0.
         23    2    1    2    0    0  0.30217759202E+02 -0.70801386554E+02  0.20714769689E+03  0.23873062385E+03  0.90311644478E+02 0.  0.
        -11    1    4    4    0    0  0.47259526197E+01  0.21312352150E+02  0.26289704632E+02  0.34171619101E+02  0.00000000000E+00 0.  1.
         11    1    4    4    0    0  0.25491806582E+02 -0.92113738704E+02  0.18085799226E+03  0.20455900475E+03  0.00000000000E+00 0. -1.
        -13    1    3    3    0    0 -0.10342269818E+01  0.34540191713E+02  0.60586858852E+01  0.35082789850E+02  0.00000000000E+00 0.  1.
         13    1    3    3    0    0 -0.44735973658E+02  0.20650280499E+02  0.15589524747E+03  0.16349639020E+03  0.00000000000E+00 0. -1.
         21    1    1    2  502  501  0.15552441438E+02  0.15610914342E+02  0.12232790019E+02  0.25203575796E+02  0.00000000000E+00 0. -1.
<scales pt_clust_5="13000.00000" pt_clust_6="13000.00000" pt_clust_7="13000.00000" pt_clust_8="13000.00000" pt_clust_9="22.03586"></scales>
<clustering>
<clus scale="   22.036">  2  9  1 -1</clus>
<clus scale="   89.798">  7  8 -1 -1</clus>
<clus scale="   90.312">  5  6 -1 -1</clus>
<clus scale="  116.213">  2  7  1 -1</clus>
<clus scale="  116.610">  1  5  2 -1</clus>
</clustering>
</event>
<event>
 9    1  0.1612788E-005  0.2139723E+03  0.7546771E-02  0.1138587E+00
          1   -1    0    0  502    0  0.00000000000E+00  0.00000000000E+00  0.45365905637E+03  0.45365905637E+03  0.00000000000E+00 0. -1.
         -1   -1    0    0    0  501 -0.00000000000E+00 -0.00000000000E+00 -0.22796336008E+03  0.22796336008E+03  0.00000000000E+00 0.  1.
         23    2    1    2    0    0  0.11108368573E+03 -0.18846460107E+03 -0.10647224542E+03  0.25980133245E+03  0.91114774914E+02 0.  0.
         23    2    1    2    0    0 -0.10063797881E+03  0.15944478186E+03  0.32961226074E+03  0.39087283356E+03  0.92664385537E+02 0.  0.
        -11    1    3    3    0    0  0.59132120123E+02 -0.39387493665E+02 -0.65655810519E+02  0.96740207476E+02  0.00000000000E+00 0.  1.
         11    1    3    3    0    0  0.51951565608E+02 -0.14907710740E+03 -0.40816434902E+02  0.16306112498E+03  0.00000000000E+00 0. -1.
        -13    1    4    4    0    0 -0.90312222120E+02  0.90931859674E+02  0.27230819476E+03  0.30095955459E+03  0.00000000000E+00 0. -1.
         13    1    4    4    0    0 -0.10325756691E+02  0.68512922183E+02  0.57304065984E+02  0.89913278973E+02  0.00000000000E+00 0.  1.
         21    1    1    2  502  501 -0.10445706920E+02  0.29019819208E+02  0.25556809671E+01  0.30948250437E+02  0.00000000000E+00 0. -1.
<scales pt_clust_5="13000.00000" pt_clust_6="13000.00000" pt_clust_7="13000.00000" pt_clust_8="13000.00000" pt_clust_9="30.84255"></scales>
<clustering>
<clus scale="   30.843">  2  9  1 -1</clus>
<clus scale="   91.115">  5  6 -1 -1</clus>
<clus scale="   92.664">  7  8 -1 -1</clus>
<clus scale="  213.306">  2  5  1 -1</clus>
<clus scale="  213.972">  1  5  2 -1</clus>
</clustering>
</event>
<event>
 9    1  0.1612788E-005  0.1279708E+03  0.7546771E-02  0.1230529E+00
          1   -1    0    0  502    0  0.00000000000E+00  0.00000000000E+00  0.20326166035E+03  0.20326166035E+03  0.00000000000E+00 0. -1.
         -1   -1    0    0    0  501 -0.00000000000E+00 -0.00000000000E+00 -0.56790618380E+03  0.56790618380E+03  0.00000000000E+00 0.  1.
         23    2    1    2    0    0  0.59798609742E+02  0.13153337761E+01 -0.25418250122E+03  0.27662331748E+03  0.91291357844E+02 0.  0.
         23    2    1    2    0    0 -0.69599705316E+02 -0.62069273966E+02  0.16606244216E+03  0.21125513023E+03  0.91407229484E+02 0.  0.
        -11    1    3    3    0    0  0.10389987855E+02  0.42262466392E+02 -0.12542332131E+03  0.13275947214E+03  0.00000000000E+00 0.  1.
         11    1    3    3    0    0  0.49408621888E+02 -0.40947132616E+02 -0.12875917991E+03  0.14386384535E+03  0.00000000000E+00 0. -1.
        -13    1    4    4    0    0 -0.59003016608E+02 -0.42962983734E+02  0.17345873891E+03  0.18818902212E+03  0.00000000000E+00 0. -1.
         13    1    4    4    0    0 -0.10596688708E+02 -0.19106290231E+02 -0.73962967502E+01  0.23066108116E+02  0.00000000000E+00 0.  1.
         21    1    1    2  502  501  0.98010955736E+01  0.60753940190E+02 -0.27652446439E+03  0.28328939643E+03  0.00000000000E+00 0.  1.
<scales pt_clust_5="13000.00000" pt_clust_6="13000.00000" pt_clust_7="13000.00000" pt_clust_8="13000.00000" pt_clust_9="61.53944"></scales>
<clustering>
<clus scale="   61.539">  2  9  1 -1</clus>
<clus scale="   91.291">  5  6 -1 -1</clus>
<clus scale="   91.407">  7  8 -1 -1</clus>
<clus scale="  127.888">  2  5  1 -1</clus>
<clus scale="  127.971">  1  5  2 -1</clus>
</clustering>
</event>
<event>
 9    1  0.1612788E-005  0.1016823E+03  0.7546771E-02  0.1277079E+00
         -1   -1    0    0    0  501 -0.00000000000E+00  0.00000000000E+00  0.10621523984E+03  0.10621523984E+03  0.00000000000E+00 0.  1.
          1   -1    0    0  502    0  0.00000000000E+00 -0.00000000000E+00 -0.26903934167E+03  0.26903934167E+03  0.00000000000E+00 0. -1.
         23    2    1    2    0    0 -0.60425162704E+02  0.55804765864E+01 -0.95079630546E+02  0.14517119694E+03  0.91390362020E+02 0.  0.
         23    2    1    2    0    0  0.33731549528E+02 -0.61750887452E+01 -0.13006848701E+03  0.16228083680E+03  0.90781658523E+02 0.  0.
        -11    1    4    4    0    0  0.15984753594E+02 -0.40905879869E+02 -0.25751486398E+02  0.50911122626E+02  0.00000000000E+00 0.  1.
         11    1    4    4    0    0  0.17746795934E+02  0.34730791124E+02 -0.10431700061E+03  0.11136971417E+03  0.00000000000E+00 0. -1.
        -13    1    3    3    0    0 -0.63386754172E+02 -0.32559104576E+02 -0.57770345847E+02  0.91735428023E+02  0.00000000000E+00 0.  1.
         13    1    3    3    0    0  0.29615914679E+01  0.38139581162E+02 -0.37309284699E+02  0.53435768919E+02  0.00000000000E+00 0. -1.
         21    1    1    2  502  501  0.26693613177E+02  0.59461215881E+00  0.62324015723E+02  0.67802547769E+02  0.00000000000E+00 0.  1.
<scales pt_clust_5="13000.00000" pt_clust_6="13000.00000" pt_clust_7="13000.00000" pt_clust_8="13000.00000" pt_clust_9="26.70023"></scales>
<clustering>
<clus scale="   26.700">  1  9  2 -1</clus>
<clus scale="   90.782">  5  6 -1 -1</clus>
<clus scale="   91.390">  7  8 -1 -1</clus>
<clus scale="  101.136">  2  5  1 -1</clus>
<clus scale="  101.136">  2  5  1 -1</clus>
</clustering>
</event>
<event>
 9    1  0.1612788E-005  0.1130037E+03  0.7546771E-02  0.1255322E+00
         -1   -1    0    0    0  501 -0.00000000000E+00  0.00000000000E+00  0.16266499342E+03  0.16266499342E+03  0.00000000000E+00 0.  1.
          1   -1    0    0  502    0  0.00000000000E+00 -0.00000000000E+00 -0.10135189331E+03  0.10135189331E+03  0.00000000000E+00 0. -1.
         23    2    1    2    0    0 -0.45470954780E+02  0.38360377790E+02  0.56638150205E+02  0.12255062594E+03  0.90948609372E+02 0.  0.
         23    2    1    2    0    0  0.65790826872E+02 -0.42728379398E+02  0.52850388516E+01  0.12067326081E+03  0.91542104697E+02 0.  0.
        -13    1    4    4    0    0  0.78183694779E+02 -0.58582858303E+02  0.14090831684E+02  0.98707613455E+02  0.00000000000E+00 0. -1.
         13    1    4    4    0    0 -0.12392867907E+02  0.15854478906E+02 -0.88057928320E+01  0.21965647355E+02  0.00000000000E+00 0.  1.
        -13    1    3    3    0    0 -0.64799611514E+02  0.19079261318E+02  0.65255456566E+02  0.93921682675E+02  0.00000000000E+00 0.  1.
         13    1    3    3    0    0  0.19328656734E+02  0.19281116471E+02 -0.86173063608E+01  0.28628943265E+02  0.00000000000E+00 0. -1.
         21    1    1    2  502  501 -0.20319872092E+02  0.43680016080E+01 -0.61008894411E+00  0.20792999986E+02  0.00000000000E+00 0.  1.
<scales pt_clust_5="13000.00000" pt_clust_6="13000.00000" pt_clust_7="13000.00000" pt_clust_8="13000.00000" pt_clust_9="20.78405"></scales>
<clustering>
<clus scale="   20.784">  2  9  1 -1</clus>
<clus scale="   90.949">  7  8 -1 -1</clus>
<clus scale="   91.542">  5  6 -1 -1</clus>
<clus scale="  112.523">  1  7  2 -1</clus>
<clus scale="   20.784">  2  5  1 -1</clus>
</clustering>
</event>
<event>
 9    1  0.1612788E-005  0.1923019E+03  0.7546771E-02  0.1156578E+00
          1   -1    0    0  502    0  0.00000000000E+00  0.00000000000E+00  0.54608798525E+03  0.54608798525E+03  0.00000000000E+00 0. -1.
         -1   -1    0    0    0  501 -0.00000000000E+00 -0.00000000000E+00 -0.14926802197E+03  0.14926802197E+03  0.00000000000E+00 0.  1.
         23    2    1    2    0    0 -0.13731219801E+03 -0.59372032491E+02  0.13904676850E+03  0.22329459976E+03  0.90259606074E+02 0.  0.
         23    2    1    2    0    0  0.15860570032E+03  0.90459689102E+02  0.33138447671E+03  0.38936632623E+03  0.91933351252E+02 0.  0.
        -11    1    4    4    0    0  0.59998297568E+02  0.31799072385E+02  0.46651549702E+02  0.82385337319E+02  0.00000000000E+00 0.  1.
         11    1    4    4    0    0  0.98607402752E+02  0.58660616716E+02  0.28473292701E+03  0.30698098891E+03  0.00000000000E+00 0. -1.
        -11    1    3    3    0    0 -0.92027413973E+02 -0.14351482877E+01  0.11194720104E+03  0.14492508545E+03  0.00000000000E+00 0. -1.
         11    1    3    3    0    0 -0.45284784036E+02 -0.57936884203E+02  0.27099567458E+02  0.78369514307E+02  0.00000000000E+00 0.  1.
         21    1    1    2  502  501 -0.21293502312E+02 -0.31087656611E+02 -0.73611281924E+02  0.82695081237E+02  0.00000000000E+00 0.  1.
<scales pt_clust_5="13000.00000" pt_clust_6="13000.00000" pt_clust_7="13000.00000" pt_clust_8="13000.00000" pt_clust_9="37.68097"></scales>
<clustering>
<clus scale="   37.681">  2  9  1 -1</clus>
<clus scale="   90.260">  7  8 -1 -1</clus>
<clus scale="   91.933">  5  6 -1 -1</clus>
<clus scale="  191.507">  2  7  1 -1</clus>
<clus scale="  192.302">  1  5  2 -1</clus>
</clustering>
</event>
<event>
 9    1  0.1612788E-005  0.1190373E+03  0.7546771E-02  0.1244876E+00
         -2   -1    0    0    0  501 -0.00000000000E+00  0.00000000000E+00  0.53193230867E+03  0.53193230867E+03  0.00000000000E+00 0.  1.
          2   -1    0    0  502    0  0.00000000000E+00 -0.00000000000E+00 -0.48970937857E+02  0.48970937857E+02  0.00000000000E+00 0. -1.
         23    2    1    2    0    0 -0.45303472801E+02  0.24818710269E+02  0.16701217544E+03  0.19715907884E+03  0.91160641705E+02 0.  0.
         23    2    1    2    0    0  0.66713084243E+02 -0.71542343864E+02  0.11419017788E+03  0.17554193298E+03  0.90590457196E+02 0.  0.
        -11    1    3    3    0    0  0.26536803110E+02 -0.35112773868E+01  0.33029896948E+02  0.42514763090E+02  0.00000000000E+00 0. -1.
         11    1    3    3    0    0 -0.71840275911E+02  0.28329987656E+02  0.13398227849E+03  0.15464431575E+03  0.00000000000E+00 0.  1.
        -13    1    4    4    0    0  0.32829935056E+02 -0.73456745431E+02  0.11643539151E+03  0.14153055670E+03  0.00000000000E+00 0. -1.
         13    1    4    4    0    0  0.33883149187E+02  0.19144015667E+01 -0.22452136236E+01  0.34011376279E+02  0.00000000000E+00 0.  1.
         21    1    1    2  502  501 -0.21409611443E+02  0.46723633595E+02  0.20175901749E+03  0.20820223470E+03  0.00000000000E+00 0.  1.
<scales pt_clust_5="13000.00000" pt_clust_6="13000.00000" pt_clust_7="13000.00000" pt_clust_8="13000.00000" pt_clust_9="51.39523"></scales>
<clustering>
<clus scale="   51.395">  1  9  2 -1</clus>
<clus scale="   90.590">  7  8 -1 -1</clus>
<clus scale="   91.161">  5  6 -1 -1</clus>
<clus scale="  118.601">  2  7  1 -1</clus>
<clus scale="  118.601">  2  5  1 -1</clus>
</clustering>
</event>
<event>
 9    1  0.1612788E-005  0.1035321E+03  0.7546771E-02  0.1274642E+00
         -2   -1    0    0    0  501 -0.00000000000E+00  0.00000000000E+00  0.50542218570E+02  0.50542218570E+02  0.00000000000E+00 0.  1.
          2   -1    0    0  502    0  0.00000000000E+00 -0.00000000000E+00 -0.34307807532E+03  0.34307807532E+03  0.00000000000E+00 0. -1.
         23    2    1    2    0    0 -0.36995774659E+02  0.13139496056E+02 -0.76876967277E+02  0.12819186945E+03  0.94772114017E+02 0.  0.
         23    2    1    2    0    0  0.43589772777E+02  0.98440196076E+01 -0.21884012979E+03  0.24130700050E+03  0.91329584868E+02 0.  0.
        -11    1    4    4    0    0  0.53362495418E+01  0.20455506934E+02 -0.24223873755E+01  0.21278422961E+02  0.00000000000E+00 0.  1.
         11    1    4    4    0    0  0.38253523235E+02 -0.10611487327E+02 -0.21641774241E+03  0.22002857754E+03  0.00000000000E+00 0. -1.
        -11    1    3    3    0    0  0.32010520581E+02  0.35858248302E+01 -0.31493915277E+02  0.45048843127E+02  0.00000000000E+00 0. -1.
         11    1    3    3    0    0 -0.69006295240E+02  0.95536712257E+01 -0.45383052000E+02  0.83143026319E+02  0.00000000000E+00 0.  1.
         21    1    1    2  502  501 -0.65939981178E+01 -0.22983515664E+02  0.31812403087E+01  0.24121423949E+02  0.00000000000E+00 0.  1.
<scales pt_clust_5="13000.00000" pt_clust_6="13000.00000" pt_clust_7="13000.00000" pt_clust_8="13000.00000" pt_clust_9="23.91073"></scales>
<clustering>
<clus scale="   23.911">  1  9  2 -1</clus>
<clus scale="   91.330">  5  6 -1 -1</clus>
<clus scale="   94.772">  7  8 -1 -1</clus>
<clus scale="  100.390">  2  5  1 -1</clus>
<clus scale="  100.390">  2  5  1 -1</clus>
</clustering>
</event>
<event>
 9    1  0.1612788E-005  0.1681131E+03  0.7546771E-02  0.1179845E+00
         -1   -1    0    0    0  501 -0.00000000000E+00  0.00000000000E+00  0.31564820224E+03  0.31564820224E+03  0.00000000000E+00 0.  1.
          1   -1    0    0  502    0  0.00000000000E+00 -0.00000000000E+00 -0.37888456169E+03  0.37888456169E+03  0.00000000000E+00 0. -1.
         23    2    1    2    0    0 -0.70814288631E+02  0.55394014716E+02  0.91285610128E+02  0.15751504553E+03  0.91622958965E+02 0.  0.
         23    2    1    2    0    0  0.15260153745E+03 -0.14061776092E+02 -0.30932182762E+03  0.35712746278E+03  0.91515402267E+02 0.  0.
        -11    1    4    4    0    0  0.62758466914E+02  0.25736252971E+02 -0.65687976103E+02  0.94423991077E+02  0.00000000000E+00 0. -1.
         11    1    4    4    0    0  0.89843070532E+02 -0.39798029064E+02 -0.24363385152E+03  0.26270347170E+03  0.00000000000E+00 0.  1.
        -13    1    3    3    0    0 -0.43324889255E+02 -0.20193222855E+02  0.37557522333E+02  0.60789635317E+02  0.00000000000E+00 0. -1.
         13    1    3    3    0    0 -0.27489399376E+02  0.75587237571E+02  0.53728087796E+02  0.96725410208E+02  0.00000000000E+00 0.  1.
         21    1    1    2  502  501 -0.81787248815E+02 -0.41332238624E+02  0.15479985804E+03  0.17989025562E+03  0.00000000000E+00 0. -1.
<scales pt_clust_5="13000.00000" pt_clust_6="13000.00000" pt_clust_7="13000.00000" pt_clust_8="13000.00000" pt_clust_9="91.63792"></scales>
<clustering>
<clus scale="   91.515">  5  6 -1 -1</clus>
<clus scale="   91.623">  7  8 -1 -1</clus>
<clus scale="   91.638">  1  9  2 -1</clus>
<clus scale="  168.054">  2  5  1 -1</clus>
<clus scale="  168.054">  2  5  1 -1</clus>
</clustering>
</event>
<event>
 9    1  0.1612788E-005  0.1001905E+03  0.7546771E-02  0.1280284E+00
         -1   -1    0    0    0  501 -0.00000000000E+00  0.00000000000E+00  0.85278956948E+02  0.85278956948E+02  0.00000000000E+00 0.  1.
          1   -1    0    0  502    0  0.00000000000E+00 -0.00000000000E+00 -0.26792134541E+03  0.26792134541E+03  0.00000000000E+00 0. -1.
         23    2    1    2    0    0 -0.32774159166E+02  0.10337080427E+02  0.23639107360E+02  0.10131616659E+03  0.92331779334E+02 0.  0.
         23    2    1    2    0    0  0.61224795219E+02 -0.13356312196E+02 -0.18685764922E+03  0.21730321228E+03  0.91531624977E+02 0.  0.
        -11    1    3    3    0    0 -0.11046545283E+02  0.33655753210E+02  0.49085330803E+02  0.60531855968E+02  0.00000000000E+00 0.  1.
         11    1    3    3    0    0 -0.21727613883E+02 -0.23318672783E+02 -0.25446223443E+02  0.40784310623E+02  0.00000000000E+00 0. -1.
        -13    1    4    4    0    0  0.85162270638E+02 -0.84484761636E+01 -0.15610417924E+03  0.17802388566E+03  0.00000000000E+00 0. -1.
         13    1    4    4    0    0 -0.23937475419E+02 -0.49078360321E+01 -0.30753469981E+02  0.39279326622E+02  0.00000000000E+00 0.  1.
         21    1    1    2  502  501 -0.28450636052E+02  0.30192317687E+01 -0.19423846603E+02  0.34580923485E+02  0.00000000000E+00 0. -1.
<scales pt_clust_5="13000.00000" pt_clust_6="13000.00000" pt_clust_7="13000.00000" pt_clust_8="13000.00000" pt_clust_9="28.61039"></scales>
<clustering>
<clus scale="   28.610">  2  9  1 -1</clus>
<clus scale="   91.532">  7  8 -1 -1</clus>
<clus scale="   92.332">  5  6 -1 -1</clus>
<clus scale="   99.454">  2  7  1 -1</clus>
<clus scale="   28.610">  2  5  1 -1</clus>
</clustering>
</event>
<event>
 9    1  0.1612788E-005  0.1055451E+03  0.7546771E-02  0.1269431E+00
          1   -1    0    0  502    0  0.00000000000E+00  0.00000000000E+00  0.60567887185E+03  0.60567887185E+03  0.00000000000E+00 0. -1.
         -1   -1    0    0    0  501 -0.00000000000E+00 -0.00000000000E+00 -0.46784939522E+02  0.46784939522E+02  0.00000000000E+00 0.  1.
         23    2    1    2    0    0 -0.41143765722E+02 -0.21330175519E+02  0.19728153628E+03  0.22285431033E+03  0.92715981530E+02 0.  0.
         23    2    1    2    0    0  0.35086789349E+02  0.41133676394E+02  0.38435317082E+03  0.39885225072E+03  0.91829711225E+02 0.  0.
        -13    1    4    4    0    0 -0.12559627205E+02  0.54200699978E+02  0.23676760811E+03  0.24321669425E+03  0.00000000000E+00 0.  1.
         13    1    4    4    0    0  0.47646416554E+02 -0.13067023584E+02  0.14758556271E+03  0.15563555647E+03  0.00000000000E+00 0. -1.
        -13    1    3    3    0    0 -0.60514659599E+02  0.15046409522E+02  0.12312574231E+03  0.13801582114E+03  0.00000000000E+00 0.  1.
         13    1    3    3    0    0  0.19370893877E+02 -0.36376585041E+02  0.74155793974E+02  0.84838489194E+02  0.00000000000E+00 0. -1.
         21    1    1    2  502  501  0.60569763728E+01 -0.19803500875E+02 -0.22740774776E+02  0.30757250317E+02  0.00000000000E+00 0.  1.
<scales pt_clust_5="13000.00000" pt_clust_6="13000.00000" pt_clust_7="13000.00000" pt_clust_8="13000.00000" pt_clust_9="20.70907"></scales>
<clustering>
<clus scale="   20.709">  2  9  1 -1</clus>
<clus scale="   91.830">  5  6 -1 -1</clus>
<clus scale="   92.716">  7  8 -1 -1</clus>
<clus scale="  104.767">  1  5  2 -1</clus>
<clus scale="  104.767">  1  5  2 -1</clus>
</clustering>
</event>
<event>
 9    1  0.1612788E-005  0.9866456E+02  0.7546771E-02  0.1283144E+00
          3   -1    0    0  502    0  0.00000000000E+00  0.00000000000E+00  0.32782023070E+03  0.32782023070E+03  0.00000000000E+00 0. -1.
         -3   -1    0    0    0  501 -0.00000000000E+00 -0.00000000000E+00 -0.22200929683E+03  0.22200929683E+03  0.00000000000E+00 0.  1.
         23    2    1    2    0    0  0.62831980653E+01  0.83614593191E+02  0.22921710508E+02  0.11846410192E+03  0.80482668058E+02 0.  0.
         23    2    1    2    0    0 -0.40639571947E+02  0.88468251154E+01  0.23172475237E+03  0.25281154301E+03  0.92127489353E+02 0.  0.
        -11    1    3    3    0    0  0.33967610820E+01  0.39494570730E+02 -0.29846920545E+02  0.49620537775E+02  0.00000000000E+00 0.  1.
         11    1    3    3    0    0  0.28864369833E+01  0.44120022461E+02  0.52768631054E+02  0.68843564141E+02  0.00000000000E+00 0. -1.
        -11    1    4    4    0    0  0.24323995687E+02  0.11503115427E+02  0.27444975396E+02  0.38434426042E+02  0.00000000000E+00 0. -1.
         11    1    4    4    0    0 -0.64963567633E+02 -0.26562903118E+01  0.20427977697E+03  0.21437711696E+03  0.00000000000E+00 0.  1.
         21    1    1    2  502  501  0.34356373881E+02 -0.92461418306E+02 -0.14883552901E+03  0.17855388261E+03  0.00000000000E+00 0.  1.
<scales pt_clust_5="13000.00000" pt_clust_6="13000.00000" pt_clust_7="13000.00000" pt_clust_8="13000.00000" pt_clust_9="98.63810"></scales>
<clustering>
<clus scale="   80.483">  5  6 -1 -1</clus>
<clus scale="   92.127">  7  8 -1 -1</clus>
<clus scale="   98.638">  2  9  1 -1</clus>
<clus scale="   98.638">  2  5  1 -1</clus>
<clus scale="   98.665">  1  5  2 -1</clus>
</clustering>
</event>
<event>
 9    1  0.1612788E-005  0.1135085E+03  0.7546771E-02  0.1254436E+00
          1   -1    0    0  502    0  0.00000000000E+00  0.00000000000E+00  0.11027487415E+03  0.11027487415E+03  0.00000000000E+00 0. -1.
         -1   -1    0    0    0  501 -0.00000000000E+00 -0.00000000000E+00 -0.15381403995E+03  0.15381403995E+03  0.00000000000E+00 0.  1.
         23    2    1    2    0    0  0.35804963907E+02  0.39545230557E+02 -0.53288489992E+02  0.11764140438E+03  0.90299591134E+02 0.  0.
         23    2    1    2    0    0 -0.57038532981E+02 -0.53482997928E+02  0.16671734582E+02  0.12012175084E+03  0.89651898912E+02 0.  0.
        -13    1    4    4    0    0 -0.46998750898E+02 -0.15473960613E+02 -0.30955234353E+02  0.58365679786E+02  0.00000000000E+00 0.  1.
         13    1    4    4    0    0 -0.10039782083E+02 -0.38009037315E+02  0.47626968935E+02  0.61756071052E+02  0.00000000000E+00 0. -1.
        -13    1    3    3    0    0  0.62339598903E+02  0.96465306476E+01 -0.21760221098E+02  0.66729216743E+02  0.00000000000E+00 0. -1.
         13    1    3    3    0    0 -0.26534634996E+02  0.29898699909E+02 -0.31528268893E+02  0.50912187637E+02  0.00000000000E+00 0.  1.
         21    1    1    2  502  501  0.21233569074E+02  0.13937767371E+02 -0.69224103891E+01  0.26325758878E+02  0.00000000000E+00 0. -1.
<scales pt_clust_5="13000.00000" pt_clust_6="13000.00000" pt_clust_7="13000.00000" pt_clust_8="13000.00000" pt_clust_9="25.39933"></scales>
<clustering>
<clus scale="   25.399">  2  9  1 -1</clus>
<clus scale="   89.652">  5  6 -1 -1</clus>
<clus scale="   90.300">  7  8 -1 -1</clus>
<clus scale="  112.994">  1  5  2 -1</clus>
<clus scale="  112.994">  1  5  2 -1</clus>
</clustering>
</event>
<event>
 9    1  0.1612788E-005  0.1409228E+03  0.7546771E-02  0.1213651E+00
          1   -1    0    0  502    0  0.00000000000E+00  0.00000000000E+00  0.19280406301E+03  0.19280406301E+03  0.00000000000E+00 0. -1.
         -1   -1    0    0    0  501 -0.00000000000E+00 -0.00000000000E+00 -0.21397746620E+03  0.21397746620E+03  0.00000000000E+00 0.  1.
         23    2    1    2    0    0 -0.70064445175E+02  0.54221922894E+02 -0.13684317094E+03  0.18547945594E+03  0.88473339165E+02 0.  0.
         23    2    1    2    0    0  0.90040954643E+02 -0.57299576033E+02  0.13245767431E+03  0.19502724338E+03  0.95393790410E+02 0.  0.
        -11    1    4    4    0    0 -0.14920532045E+02 -0.15217050652E+02  0.60031637601E+00  0.21319973893E+02  0.00000000000E+00 0.  1.
         11    1    4    4    0    0  0.10496148669E+03 -0.42082525382E+02  0.13185735793E+03  0.17370726948E+03  0.00000000000E+00 0. -1.
        -13    1    3    3    0    0 -0.53314610833E+02  0.76189377400E+02 -0.12405470980E+03  0.15503818878E+03  0.00000000000E+00 0.  1.
         13    1    3    3    0    0 -0.16749834342E+02 -0.21967454506E+02 -0.12788461142E+02  0.30441267161E+02  0.00000000000E+00 0. -1.
         21    1    1    2  502  501 -0.19976509468E+02  0.30776531396E+01 -0.16787906550E+02  0.26274829889E+02  0.00000000000E+00 0. -1.
<scales pt_clust_5="13000.00000" pt_clust_6="13000.00000" pt_clust_7="13000.00000" pt_clust_8="13000.00000" pt_clust_9="20.21220"></scales>
<clustering>
<clus scale="   20.212">  2  9  1 -1</clus>
<clus scale="   88.473">  7  8 -1 -1</clus>
<clus scale="   95.394">  5  6 -1 -1</clus>
<clus scale="  136.333">  2  7  1 -1</clus>
<clus scale="  140.923">  1  5  2 -1</clus>
</clustering>
</event>
<event>
 9    1  0.1612788E-005  0.2117972E+03  0.7546771E-02  0.1140243E+00
         -1   -1    0    0    0  501 -0.00000000000E+00  0.00000000000E+00  0.17426768481E+03  0.17426768481E+03  0.00000000000E+00 0.  1.
          1   -1    0    0  502    0  0.00000000000E+00 -0.00000000000E+00 -0.29952552816E+03  0.29952552816E+03  0.00000000000E+00 0. -1.
         23    2    1    2    0    0  0.10995947063E+03  0.16028695243E+03 -0.24089909526E+02  0.21542879846E+03  0.89700898346E+02 0.  0.
         23    2    1    2    0    0 -0.82904875458E+02 -0.16928047476E+03 -0.89299012415E+02  0.22748228604E+03  0.90800767240E+02 0.  0.
        -11    1    4    4    0    0 -0.44893963472E+02 -0.16293663874E+03 -0.61034283172E+02  0.17969140192E+03  0.00000000000E+00 0. -1.
         11    1    4    4    0    0 -0.38010911986E+02 -0.63438360177E+01 -0.28264729244E+02  0.47790884116E+02  0.00000000000E+00 0.  1.
        -13    1    3    3    0    0  0.71507991259E+02  0.47681766617E+02  0.20501356320E+02  0.88358640169E+02  0.00000000000E+00 0.  1.
         13    1    3    3    0    0  0.38451479367E+02  0.11260518581E+03 -0.44591265846E+02  0.12707015829E+03  0.00000000000E+00 0. -1.
         21    1    1    2  502  501 -0.27054595168E+02  0.89935223314E+01 -0.11868921405E+02  0.30882128472E+02  0.00000000000E+00 0.  1.
<scales pt_clust_5="13000.00000" pt_clust_6="13000.00000" pt_clust_7="13000.00000" pt_clust_8="13000.00000" pt_clust_9="28.51025"></scales>
<clustering>
<clus scale="   28.510">  2  9  1 -1</clus>
<clus scale="   89.701">  7  8 -1 -1</clus>
<clus scale="   90.801">  5  6 -1 -1</clus>
<clus scale="  211.328">  1  7  2 -1</clus>
<clus scale="   28.510">  2  5  1 -1</clus>
</clustering>
</event>
<event>
 9    1  0.1612788E-005  0.9173911E+02  0.7546771E-02  0.1298891E+00
         -1   -1    0    0    0  501 -0.00000000000E+00  0.00000000000E+00  0.23384605614E+02  0.23384605614E+02  0.00000000000E+00 0.  1.
          1   -1    0    0  502    0  0.00000000000E+00 -0.00000000000E+00 -0.59462454270E+03  0.59462454270E+03  0.00000000000E+00 0. -1.
         23    2    1    2    0    0  0.23344469800E+02 -0.77951339746E+01 -0.14885574064E+03  0.17567835882E+03  0.89995143485E+02 0.  0.
         23    2    1    2    0    0 -0.12189073541E+02 -0.15669733977E+02 -0.39074935897E+03  0.40139418197E+03  0.89655528050E+02 0.  0.
        -11    1    3    3    0    0  0.24206879987E+01  0.26772818892E+02 -0.12685069608E+03  0.12966781659E+03  0.00000000000E+00 0. -1.
         11    1    3    3    0    0  0.20923781801E+02 -0.34567952867E+02 -0.22005044560E+02  0.46010542230E+02  0.00000000000E+00 0.  1.
        -13    1    4    4    0    0  0.37479080614E+02  0.52277785864E+01 -0.17049165582E+03  0.17464081957E+03  0.00000000000E+00 0.  1.
         13    1    4    4    0    0 -0.49668154155E+02 -0.20897512564E+02 -0.22025770314E+03  0.22675336240E+03  0.00000000000E+00 0. -1.
         21    1    1    2  502  501 -0.11155396259E+02  0.23464867952E+02 -0.31634837480E+02  0.40936607530E+02  0.00000000000E+00 0. -1.
<scales pt_clust_5="13000.00000" pt_clust_6="13000.00000" pt_clust_7="13000.00000" pt_clust_8="13000.00000" pt_clust_9="25.98159"></scales>
<clustering>
<clus scale="   25.982">  1  9  2 -1</clus>
<clus scale="   89.656">  7  8 -1 -1</clus>
<clus scale="   89.995">  5  6 -1 -1</clus>
<clus scale="   91.406">  2  7  1 -1</clus>
<clus scale="   91.406">  2  5  1 -1</clus>
</clustering>
</event>
<event>
 9    1  0.1612788E-005  0.1164244E+03  0.7546771E-02  0.1254766E+00
          1   -1    0    0  502    0  0.00000000000E+00  0.00000000000E+00  0.18623429386E+03  0.18623429386E+03  0.00000000000E+00 0. -1.
         -1   -1    0    0    0  501 -0.00000000000E+00 -0.00000000000E+00 -0.12886472082E+03  0.12886472082E+03  0.00000000000E+00 0.  1.
         23    2    1    2    0    0  0.37829889517E+02  0.34862624602E+02 -0.20891286305E+02  0.11066882976E+03  0.95732130979E+02 0.  0.
         23    2    1    2    0    0 -0.40962787981E+02  0.36609214283E+01  0.10544068241E+03  0.15717956128E+03  0.10907027383E+03 0.  0.
        -11    1    3    3    0    0  0.53187836366E+02  0.50959503689E+02  0.81227866095E+01  0.74106657028E+02  0.00000000000E+00 0. -1.
         11    1    3    3    0    0 -0.15357946849E+02 -0.16096879087E+02 -0.29014072914E+02  0.36562172731E+02  0.00000000000E+00 0.  1.
        -11    1    4    4    0    0 -0.40763916892E+02 -0.47366072204E+02  0.40005399041E+02  0.74200226878E+02  0.00000000000E+00 0.  1.
         11    1    4    4    0    0 -0.19887108898E+00  0.51026993632E+02  0.65435283370E+02  0.82979334406E+02  0.00000000000E+00 0. -1.
         21    1    1    2  502  501  0.31328984634E+01 -0.38523546030E+02 -0.27179823074E+02  0.47250623635E+02  0.00000000000E+00 0. -1.
<scales pt_clust_5="13000.00000" pt_clust_6="13000.00000" pt_clust_7="13000.00000" pt_clust_8="13000.00000" pt_clust_9="38.65073"></scales>
<clustering>
<clus scale="   38.651">  2  9  1 -1</clus>
<clus scale="   95.732">  5  6 -1 -1</clus>
<clus scale="  104.033">  2  5  1 -1</clus>
<clus scale="  109.070">  7  8 -1 -1</clus>
<clus scale="  116.424">  1  5  2 -1</clus>
</clustering>
</event>
<event>
 9    1  0.1612788E-005  0.9966775E+02  0.7546771E-02  0.1284840E+00
         -1   -1    0    0    0  501 -0.00000000000E+00  0.00000000000E+00  0.63873269636E+02  0.63873269636E+02  0.00000000000E+00 0.  1.
          1   -1    0    0  502    0  0.00000000000E+00 -0.00000000000E+00 -0.29308795729E+03  0.29308795729E+03  0.00000000000E+00 0. -1.
         23    2    1    2    0    0  0.31999518097E+02  0.16939091143E+02 -0.82250204417E+02  0.12828711624E+03  0.91551002726E+02 0.  0.
         23    2    1    2    0    0 -0.23047787195E+02 -0.36059674979E+02 -0.17189978645E+03  0.19600149892E+03  0.83878187534E+02 0.  0.
        -11    1    4    4    0    0 -0.47333462750E+02  0.36432073762E+01 -0.81269398674E+02  0.94119311603E+02  0.00000000000E+00 0. -1.
         11    1    4    4    0    0  0.24285675554E+02 -0.39702882355E+02 -0.90630387778E+02  0.10188218732E+03  0.00000000000E+00 0.  1.
        -13    1    3    3    0    0 -0.98707696778E+01  0.36514864319E+02 -0.71414720083E+02  0.80813548708E+02  0.00000000000E+00 0. -1.
         13    1    3    3    0    0  0.41870287775E+02 -0.19575773176E+02 -0.10835484335E+02  0.47473567536E+02  0.00000000000E+00 0.  1.
         21    1    1    2  502  501 -0.89517309019E+01  0.19120583836E+02  0.24935303218E+02  0.32672611756E+02  0.00000000000E+00 0.  1.
<scales pt_clust_5="13000.00000" pt_clust_6="13000.00000" pt_clust_7="13000.00000" pt_clust_8="13000.00000" pt_clust_9="21.11232"></scales>
<clustering>
<clus scale="   21.112">  1  9  2 -1</clus>
<clus scale="   83.878">  5  6 -1 -1</clus>
<clus scale="   91.551">  7  8 -1 -1</clus>
<clus scale="   92.669">  2  5  1 -1</clus>
<clus scale="   92.669">  2  5  1 -1</clus>
</clustering>
</event>
<event>
 9    1  0.1612788E-005  0.1137293E+03  0.7546771E-02  0.1254665E+00
         -1   -1    0    0    0  501 -0.00000000000E+00  0.00000000000E+00  0.40868437972E+03  0.40868437972E+03  0.00000000000E+00 0.  1.
          1   -1    0    0  502    0  0.00000000000E+00 -0.00000000000E+00 -0.41156378340E+02  0.41156378340E+02  0.00000000000E+00 0. -1.
         23    2    1    2    0    0 -0.39420121100E+02 -0.49280219479E+02  0.19795922167E+03  0.22707584123E+03  0.91613853994E+02 0.  0.
         23    2    1    2    0    0  0.24386525066E+02  0.67150676203E+02  0.10942932062E+03  0.15825044735E+03  0.89244114410E+02 0.  0.
        -11    1    3    3    0    0 -0.29985683212E+02 -0.20978414191E+02  0.19347768516E+03  0.19690822663E+03  0.00000000000E+00 0.  1.
         11    1    3    3    0    0 -0.94344378879E+01 -0.28301805288E+02  0.44815365113E+01  0.30167614594E+02  0.00000000000E+00 0. -1.
        -13    1    4    4    0    0 -0.27093271950E+02  0.12589382497E+02  0.63800874353E+02  0.70449198042E+02  0.00000000000E+00 0. -1.
         13    1    4    4    0    0  0.51479797016E+02  0.54561293707E+02  0.45628446268E+02  0.87801249311E+02  0.00000000000E+00 0.  1.
         21    1    1    2  502  501  0.15033596034E+02 -0.17870456724E+02  0.60139459086E+02  0.64514469481E+02  0.00000000000E+00 0.  1.
<scales pt_clust_5="13000.00000" pt_clust_6="13000.00000" pt_clust_7="13000.00000" pt_clust_8="13000.00000" pt_clust_9="23.35299"></scales>
<clustering>
<clus scale="   23.353">  1  9  2 -1</clus>
<clus scale="   89.244">  7  8 -1 -1</clus>
<clus scale="   91.614">  5  6 -1 -1</clus>
<clus scale="  111.829">  2  7  1 -1</clus>
<clus scale="  111.829">  2  5  1 -1</clus>
</clustering>
</event>
<event>
 9    1  0.1612788E-005  0.1361567E+03  0.7546771E-02  0.1229985E+00
          2   -1    0    0  502    0  0.00000000000E+00  0.00000000000E+00  0.76755307417E+03  0.76755307417E+03  0.00000000000E+00 0. -1.
         -2   -1    0    0    0  501 -0.00000000000E+00 -0.00000000000E+00 -0.45714260111E+02  0.45714260111E+02  0.00000000000E+00 0.  1.
         23    2    1    2    0    0 -0.46531186744E+02 -0.32581138721E+02  0.12253278151E+03  0.16292592193E+03  0.91125690950E+02 0.  0.
         23    2    1    2    0    0 -0.42525140674E+02 -0.60737600251E+02  0.33488383686E+03  0.35613312887E+03  0.95844549222E+02 0.  0.
        -11    1    3    3    0    0 -0.20757061480E+02  0.18154927813E+02 -0.27065353462E+00  0.27577713077E+02  0.00000000000E+00 0.  1.
         11    1    3    3    0    0 -0.25774125264E+02 -0.50736066534E+02  0.12280343504E+03  0.13534820885E+03  0.00000000000E+00 0. -1.
        -11    1    4    4    0    0 -0.69417616439E+01 -0.67099935721E+02  0.29364705720E+03  0.30129584071E+03  0.00000000000E+00 0. -1.
         11    1    4    4    0    0 -0.35583379030E+02  0.63623354701E+01  0.41236779662E+02  0.54837288159E+02  0.00000000000E+00 0.  1.
         21    1    1    2  502  501  0.89056327418E+02  0.93318738972E+02  0.26442219569E+03  0.29420828348E+03  0.00000000000E+00 0. -1.
<scales pt_clust_5="13000.00000" pt_clust_6="13000.00000" pt_clust_7="13000.00000" pt_clust_8="13000.00000" pt_clust_9="96.70812"></scales>
<clustering>
<clus scale="   91.126">  5  6 -1 -1</clus>
<clus scale="   95.845">  7  8 -1 -1</clus>
<clus scale="  107.381">  2  5  1 -1</clus>
<clus scale="   96.708">  2  9  1 -1</clus>
<clus scale="  136.157">  1  5  2 -1</clus>
</clustering>
</event>
<event>
 9    1  0.1612788E-005  0.1313937E+03  0.7546771E-02  0.1225476E+00
         -2   -1    0    0    0  501 -0.00000000000E+00  0.00000000000E+00  0.11813895511E+04  0.11813895511E+04  0.00000000000E+00 0.  1.
          2   -1    0    0  502    0  0.00000000000E+00 -0.00000000000E+00 -0.18618588379E+02  0.18618588379E+02  0.00000000000E+00 0. -1.
         23    2    1    2    0    0  0.11259887896E+02 -0.10993499074E+03  0.62011900468E+03  0.63632866482E+03  0.90300068847E+02 0.  0.
         23    2    1    2    0    0 -0.17995549966E+02  0.82936222744E+02  0.42325704998E+03  0.44108483087E+03  0.90592719365E+02 0.  0.
        -11    1    3    3    0    0 -0.37861496564E+02 -0.66799216746E+02  0.30679158953E+03  0.31625418208E+03  0.00000000000E+00 0.  1.
         11    1    3    3    0    0  0.49121384460E+02 -0.43135773991E+02  0.31332741516E+03  0.32007448274E+03  0.00000000000E+00 0. -1.
        -13    1    4    4    0    0 -0.40742364306E+02  0.59892266539E+01  0.19004147214E+03  0.19445197921E+03  0.00000000000E+00 0.  1.
         13    1    4    4    0    0  0.22746814341E+02  0.76946996091E+02  0.23321557785E+03  0.24663285166E+03  0.00000000000E+00 0. -1.
         21    1    1    2  502  501  0.67356620695E+01  0.26998767993E+02  0.11939490801E+03  0.12259464375E+03  0.00000000000E+00 0. -1.
<scales pt_clust_5="13000.00000" pt_clust_6="13000.00000" pt_clust_7="13000.00000" pt_clust_8="13000.00000" pt_clust_9="27.82629"></scales>
<clustering>
<clus scale="   27.826">  1  9  2 -1</clus>
<clus scale="   90.300">  5  6 -1 -1</clus>
<clus scale="   90.593">  7  8 -1 -1</clus>
<clus scale="  131.192">  1  5  2 -1</clus>
<clus scale="  131.394">  2  5  1 -1</clus>
</clustering>
</event>
<event>
 9    1  0.1612788E-005  0.1283367E+03  0.7546771E-02  0.1230527E+00
         -1   -1    0    0    0  501 -0.00000000000E+00  0.00000000000E+00  0.51573974796E+02  0.51573974796E+02  0.00000000000E+00 0.  1.
          1   -1    0    0  502    0  0.00000000000E+00 -0.00000000000E+00 -0.79433449174E+03  0.79433449174E+03  0.00000000000E+00 0. -1.
         23    2    1    2    0    0  0.68024211388E+02 -0.37053023699E+02 -0.55099408507E+02  0.13117955394E+03  0.90398620858E+02 0.  0.
         23    2    1    2    0    0 -0.95199925333E+02 -0.30229910670E+01 -0.60635618933E+03  0.62009754223E+03  0.88209802597E+02 0.  0.
        -11    1    4    4    0    0 -0.63982563868E+02 -0.41735274965E+02 -0.43557198355E+03  0.44222002952E+03  0.00000000000E+00 0. -1.
         11    1    4    4    0    0 -0.31217361465E+02  0.38712283898E+02 -0.17078420578E+03  0.17787751271E+03  0.00000000000E+00 0.  1.
        -11    1    3    3    0    0  0.18510364675E+02 -0.13452832945E+02  0.25133311149E+02  0.33989640245E+02  0.00000000000E+00 0.  1.
         11    1    3    3    0    0  0.49513846712E+02 -0.23600190754E+02 -0.80232719656E+02  0.97189913691E+02  0.00000000000E+00 0. -1.
         21    1    1    2  502  501  0.27175713945E+02  0.40076014766E+02 -0.81304919102E+02  0.94631370370E+02  0.00000000000E+00 0.  1.
<scales pt_clust_5="13000.00000" pt_clust_6="13000.00000" pt_clust_7="13000.00000" pt_clust_8="13000.00000" pt_clust_9="48.42114"></scales>
<clustering>
<clus scale="   48.421">  1  9  2 -1</clus>
<clus scale="   88.210">  5  6 -1 -1</clus>
<clus scale="   90.399">  7  8 -1 -1</clus>
<clus scale="  126.804">  2  5  1 -1</clus>
<clus scale="  126.804">  2  5  1 -1</clus>
</clustering>
</event>
<event>
 9    1  0.1612788E-005  0.9539469E+02  0.7546771E-02  0.1290813E+00
         -2   -1    0    0    0  501 -0.00000000000E+00  0.00000000000E+00  0.90887068659E+02  0.90887068659E+02  0.00000000000E+00 0.  1.
          2   -1    0    0  502    0  0.00000000000E+00 -0.00000000000E+00 -0.19156207150E+03  0.19156207150E+03  0.00000000000E+00 0. -1.
         23    2    1    2    0    0 -0.54046697568E+02  0.22702504316E+02 -0.94118408703E+01  0.10929644018E+03  0.91764262478E+02 0.  0.
         23    2    1    2    0    0  0.12467772403E+02 -0.49437679926E+01 -0.89054462566E+02  0.12788617718E+03  0.90798077176E+02 0.  0.
        -11    1    3    3    0    0 -0.61351514949E+02 -0.19273193387E+02  0.45297179444E+01  0.64466911781E+02  0.00000000000E+00 0.  1.
         11    1    3    3    0    0  0.73048173817E+01  0.41975697703E+02 -0.13941558815E+02  0.44829528403E+02  0.00000000000E+00 0. -1.
        -13    1    4    4    0    0 -0.33954303046E+02 -0.69081490815E+01 -0.69136071458E+02  0.77333133880E+02  0.00000000000E+00 0.  1.
         13    1    4    4    0    0  0.46422075449E+02  0.19643810890E+01 -0.19918391108E+02  0.50553043295E+02  0.00000000000E+00 0. -1.
         21    1    1    2  502  501  0.41578925165E+02 -0.17758736324E+02 -0.22086994093E+01  0.45266522804E+02  0.00000000000E+00 0.  1.
<scales pt_clust_5="13000.00000" pt_clust_6="13000.00000" pt_clust_7="13000.00000" pt_clust_8="13000.00000" pt_clust_9="45.21261"></scales>
<clustering>
<clus scale="   45.213">  1  9  2 -1</clus>
<clus scale="   90.798">  7  8 -1 -1</clus>
<clus scale="   91.764">  5  6 -1 -1</clus>
<clus scale="   94.466">  2  7  1 -1</clus>
<clus scale="   94.466">  2  5  1 -1</clus>
</clustering>
</event>
<event>
 9    1  0.1612788E-005  0.1142740E+03  0.7546771E-02  0.1252933E+00
         -1   -1    0    0    0  501 -0.00000000000E+00  0.00000000000E+00  0.17556324073E+03  0.17556324073E+03  0.00000000000E+00 0.  1.
          1   -1    0    0  502    0  0.00000000000E+00 -0.00000000000E+00 -0.10101019261E+03  0.10101019261E+03  0.00000000000E+00 0. -1.
         23    2    1    2    0    0  0.51176632703E+02 -0.12868035430E-01  0.51863624951E+02  0.11648248427E+03  0.90880612057E+02 0.  0.
         23    2    1    2    0    0 -0.82796818712E+02  0.84746887089E+00  0.29633062321E+01  0.12281290713E+03  0.90654275029E+02 0.  0.
        -13    1    3    3    0    0  0.27465023070E+02 -0.24505805321E+02 -0.16310301390E+02  0.40260252335E+02  0.00000000000E+00 0. -1.
         13    1    3    3    0    0  0.23711609632E+02  0.24492937285E+02  0.68173926340E+02  0.76222231933E+02  0.00000000000E+00 0.  1.
        -13    1    4    4    0    0 -0.31335472954E+02 -0.36313584012E+02  0.26877227566E+02  0.54981575193E+02  0.00000000000E+00 0. -1.
         13    1    4    4    0    0 -0.51461345758E+02  0.37161052883E+02 -0.23913921334E+02  0.67831331936E+02  0.00000000000E+00 0.  1.
         21    1    1    2  502  501  0.31620186009E+02 -0.83460083546E+00  0.19726116932E+02  0.37278041942E+02  0.00000000000E+00 0.  1.
<scales pt_clust_5="13000.00000" pt_clust_6="13000.00000" pt_clust_7="13000.00000" pt_clust_8="13000.00000" pt_clust_9="31.63120"></scales>
<clustering>
<clus scale="   31.631">  1  9  2 -1</clus>
<clus scale="   90.654">  7  8 -1 -1</clus>
<clus scale="   90.881">  5  6 -1 -1</clus>
<clus scale="  114.094">  2  7  1 -1</clus>
<clus scale="  114.094">  2  5  1 -1</clus>
</clustering>
</event>
<event>
 9    1  0.1612788E-005  0.1082814E+03  0.7546771E-02  0.1265847E+00
          3   -1    0    0  502    0  0.00000000000E+00  0.00000000000E+00  0.12378146518E+03  0.12378146518E+03  0.00000000000E+00 0. -1.
         -3   -1    0    0    0  501 -0.00000000000E+00 -0.00000000000E+00 -0.15595236901E+03  0.15595236901E+03  0.00000000000E+00 0.  1.
         23    2    1    2    0    0  0.61731494685E+02  0.11234272981E+01 -0.35208220765E+01  0.11155665577E+03  0.92846387828E+02 0.  0.
         23    2    1    2    0    0 -0.49858700680E+02 -0.17577816997E+02  0.29428007347E+02  0.10665665656E+03  0.87833735481E+02 0.  0.
        -11    1    4    4    0    0  0.18718801844E+02 -0.26978690789E+02  0.47925502932E+01  0.33184512012E+02  0.00000000000E+00 0.  1.
         11    1    4    4    0    0 -0.68577502524E+02  0.94008737923E+01  0.24635457053E+02  0.73472144549E+02  0.00000000000E+00 0. -1.
        -13    1    3    3    0    0  0.36823920800E+02 -0.15600123877E+02  0.41385273749E+02  0.57550898267E+02  0.00000000000E+00 0. -1.
         13    1    3    3    0    0  0.24907573884E+02  0.16723551175E+02 -0.44906095826E+02  0.54005757499E+02  0.00000000000E+00 0.  1.
         21    1    1    2  502  501 -0.11872794004E+02  0.16454389699E+02 -0.58078089097E+02  0.61520521869E+02  0.00000000000E+00 0.  1.
<scales pt_clust_5="13000.00000" pt_clust_6="13000.00000" pt_clust_7="13000.00000" pt_clust_8="13000.00000" pt_clust_9="20.29064"></scales>
<clustering>
<clus scale="   20.291">  2  9  1 -1</clus>
<clus scale="   87.834">  5  6 -1 -1</clus>
<clus scale="   92.846">  7  8 -1 -1</clus>
<clus scale="  104.015">  1  5  2 -1</clus>
<clus scale="  104.015">  1  5  2 -1</clus>
</clustering>
</event>
<event>
 9    1  0.1612788E-005  0.1655548E+03  0.7546771E-02  0.1189804E+00
          2   -1    0    0  502    0  0.00000000000E+00  0.00000000000E+00  0.39510131732E+03  0.39510131732E+03  0.00000000000E+00 0. -1.
         -2   -1    0    0    0  501 -0.00000000000E+00 -0.00000000000E+00 -0.92993995582E+02  0.92993995582E+02  0.00000000000E+00 0.  1.
         23    2    1    2    0    0  0.10412121014E+03  0.46130306726E+02  0.14381372965E+03  0.20513073879E+03  0.91798690414E+02 0.  0.
         23    2    1    2    0    0 -0.97622127385E+02 -0.25226836203E+02  0.18678297126E+03  0.24703634173E+03  0.12638276291E+03 0.  0.
        -11    1    4    4    0    0 -0.83132364553E+02  0.35927456250E+02  0.14699273020E+03  0.17265177346E+03  0.00000000000E+00 0. -1.
         11    1    4    4    0    0 -0.14489762832E+02 -0.61154292453E+02  0.39790241067E+02  0.74384568269E+02  0.00000000000E+00 0.  1.
        -13    1    3    3    0    0  0.22748790976E+02 -0.52562039790E+01 -0.85947707710E+01  0.24879816232E+02  0.00000000000E+00 0.  1.
         13    1    3    3    0    0  0.81372419160E+02  0.51386510705E+02  0.15240850042E+03  0.18025092256E+03  0.00000000000E+00 0. -1.
         21    1    1    2  502  501 -0.64990827504E+01 -0.20903470523E+02 -0.28489379173E+02  0.35928232383E+02  0.00000000000E+00 0.  1.
<scales pt_clust_5="13000.00000" pt_clust_6="13000.00000" pt_clust_7="13000.00000" pt_clust_8="13000.00000" pt_clust_9="21.89048"></scales>
<clustering>
<clus scale="   21.890">  2  9  1 -1</clus>
<clus scale="   91.799">  7  8 -1 -1</clus>
<clus scale="  126.383">  5  6 -1 -1</clus>
<clus scale="  140.935">  2  7  1 -1</clus>
<clus scale="  165.555">  1  5  2 -1</clus>
</clustering>
</event>
<event>
 9    1  0.1612788E-005  0.1086145E+03  0.7546771E-02  0.1263866E+00
         -1   -1    0    0    0  501 -0.00000000000E+00  0.00000000000E+00  0.12457935922E+03  0.12457935922E+03  0.00000000000E+00 0.  1.
          1   -1    0    0  502    0  0.00000000000E+00 -0.00000000000E+00 -0.72368385830E+03  0.72368385830E+03  0.00000000000E+00 0. -1.
         23    2    1    2    0    0 -0.24990018817E+02 -0.57323849228E+02  0.91519014879E+02  0.14261345862E+03  0.89734852562E+02 0.  0.
         23    2    1    2    0    0  0.45220986821E+02  0.21908721932E+02 -0.42406016430E+03  0.43598414618E+03  0.87921686891E+02 0.  0.
        -11    1    4    4    0    0  0.38974483494E+02 -0.26449873946E+02 -0.13848513034E+03  0.14627623703E+03  0.00000000000E+00 0. -1.
         11    1    4    4    0    0  0.62465033269E+01  0.48358595878E+02 -0.28557503396E+03  0.28970790914E+03  0.00000000000E+00 0.  1.
        -13    1    3    3    0    0 -0.51983559842E+01  0.21175088076E+02  0.43052214060E+02  0.48258682073E+02  0.00000000000E+00 0.  1.
         13    1    3    3    0    0 -0.19791662832E+02 -0.78498937304E+02  0.48466800819E+02  0.94354776547E+02  0.00000000000E+00 0. -1.
         21    1    1    2  502  501 -0.20230968004E+02  0.35415127296E+02 -0.26656334965E+03  0.26966561273E+03  0.00000000000E+00 0.  1.
<scales pt_clust_5="13000.00000" pt_clust_6="13000.00000" pt_clust_7="13000.00000" pt_clust_8="13000.00000" pt_clust_9="40.78631"></scales>
<clustering>
<clus scale="   40.786">  2  9  1 -1</clus>
<clus scale="   87.922">  5  6 -1 -1</clus>
<clus scale="   89.735">  7  8 -1 -1</clus>
<clus scale="  107.121">  2  5  1 -1</clus>
<clus scale="   40.786">  2  5  1 -1</clus>
</clustering>
</event>
<event>
 9    1  0.1612788E-005  0.1008335E+03  0.7546771E-02  0.1279967E+00
          1   -1    0    0  502    0  0.00000000000E+00  0.00000000000E+00  0.23159389205E+03  0.23159389205E+03  0.00000000000E+00 0. -1.
         -1   -1    0    0    0  501 -0.00000000000E+00 -0.00000000000E+00 -0.64843198531E+02  0.64843198531E+02  0.00000000000E+00 0.  1.
         23    2    1    2    0    0  0.49538569475E+02  0.28693478275E+02  0.44107143031E+02  0.11412043440E+03  0.88321276716E+02 0.  0.
         23    2    1    2    0    0 -0.37188825721E+02 -0.16109488465E+01  0.11521632699E+03  0.15163859855E+03  0.91289970154E+02 0.  0.
        -13    1    4    4    0    0 -0.12099592022E+02 -0.38039583558E+02  0.94919787767E+02  0.10297172502E+03  0.00000000000E+00 0.  1.
         13    1    4    4    0    0 -0.25089233699E+02  0.36428634712E+02  0.20296539221E+02  0.48666873527E+02  0.00000000000E+00 0. -1.
        -13    1    3    3    0    0  0.42691366214E+01 -0.29624869169E+02  0.21696198589E+02  0.36967329279E+02  0.00000000000E+00 0.  1.
         13    1    3    3    0    0  0.45269432854E+02  0.58318347445E+02  0.22410944442E+02  0.77153105125E+02  0.00000000000E+00 0. -1.
         21    1    1    2  502  501 -0.12349743755E+02 -0.27082529429E+02  0.74272235021E+01  0.30678057631E+02  0.00000000000E+00 0.  1.
<scales pt_clust_5="13000.00000" pt_clust_6="13000.00000" pt_clust_7="13000.00000" pt_clust_8="13000.00000" pt_clust_9="29.76541"></scales>
<clustering>
<clus scale="   29.765">  2  9  1 -1</clus>
<clus scale="   88.321">  7  8 -1 -1</clus>
<clus scale="   91.290">  5  6 -1 -1</clus>
<clus scale="   98.154">  2  7  1 -1</clus>
<clus scale="  100.834">  1  5  2 -1</clus>
</clustering>
</event>
<event>
 9    1  0.1612788E-005  0.1199228E+03  0.7546771E-02  0.1243869E+00
         -2   -1    0    0    0  501 -0.00000000000E+00  0.00000000000E+00  0.16004490247E+02  0.16004490247E+02  0.00000000000E+00 0.  1.
          2   -1    0    0  502    0  0.00000000000E+00 -0.00000000000E+00 -0.11668371596E+04  0.11668371596E+04  0.00000000000E+00 0. -1.
         23    2    1    2    0    0 -0.43957185941E+02  0.46556869002E+02 -0.42868812669E+03  0.44283781545E+03  0.90730615424E+02 0.  0.
         23    2    1    2    0    0  0.72466153247E+02 -0.48756591634E+02 -0.65062413103E+03  0.66297936247E+03  0.92743337159E+02 0.  0.
        -11    1    4    4    0    0  0.71921757066E+01 -0.59433208585E+02 -0.35821054884E+03  0.36317878651E+03  0.00000000000E+00 0.  1.
         11    1    4    4    0    0  0.65273977540E+02  0.10676616951E+02 -0.29241358220E+03  0.29980057596E+03  0.00000000000E+00 0. -1.
        -13    1    3    3    0    0  0.17766506941E+02  0.45400999117E+02 -0.21148596472E+03  0.21703274583E+03  0.00000000000E+00 0. -1.
         13    1    3    3    0    0 -0.61723692882E+02  0.11558698848E+01 -0.21720216197E+03  0.22580506961E+03  0.00000000000E+00 0.  1.
         21    1    1    2  502  501 -0.28508967306E+02  0.21997226325E+01 -0.71520411637E+02  0.77024471938E+02  0.00000000000E+00 0.  1.
<scales pt_clust_5="13000.00000" pt_clust_6="13000.00000" pt_clust_7="13000.00000" pt_clust_8="13000.00000" pt_clust_9="28.59371"></scales>
<clustering>
<clus scale="   28.594">  1  9  2 -1</clus>
<clus scale="   90.731">  7  8 -1 -1</clus>
<clus scale="   92.743">  5  6 -1 -1</clus>
<clus scale="  118.373">  1  7  2 -1</clus>
<clus scale="  119.923">  2  5  1 -1</clus>
</clustering>
</event>
<event>
 9    1  0.1612788E-005  0.9239526E+02  0.7546771E-02  0.1297920E+00
         -1   -1    0    0    0  501 -0.00000000000E+00  0.00000000000E+00  0.12880100000E+03  0.12880100000E+03  0.00000000000E+00 0.  1.
          1   -1    0    0  502    0  0.00000000000E+00 -0.00000000000E+00 -0.10821361394E+03  0.10821361394E+03  0.00000000000E+00 0. -1.
         23    2    1    2    0    0 -0.23136111464E+02  0.24759975562E+02  0.22324214172E+02  0.98603874643E+02  0.89866665192E+02 0.  0.
         23    2    1    2    0    0  0.90227832266E+01  0.17434497023E+02 -0.73554929540E+01  0.93565126972E+02  0.91186388267E+02 0.  0.
        -11    1    4    4    0    0 -0.21138917861E+02  0.33724434946E+02  0.24525844836E+02  0.46751560677E+02  0.00000000000E+00 0. -1.
         11    1    4    4    0    0  0.30161701088E+02 -0.16289937923E+02 -0.31881337790E+02  0.46813566296E+02  0.00000000000E+00 0.  1.
        -13    1    3    3    0    0  0.33272948691E+02  0.20007568492E+02  0.14557820447E+02  0.41464708461E+02  0.00000000000E+00 0. -1.
         13    1    3    3    0    0 -0.56409060155E+02  0.47524070696E+01  0.77663937253E+01  0.57139166183E+02  0.00000000000E+00 0.  1.
         21    1    1    2  502  501  0.14113328238E+02 -0.42194472585E+02  0.56186648437E+01  0.44845612331E+02  0.00000000000E+00 0.  1.
<scales pt_clust_5="13000.00000" pt_clust_6="13000.00000" pt_clust_7="13000.00000" pt_clust_8="13000.00000" pt_clust_9="44.49224"></scales>
<clustering>
<clus scale="   44.492">  1  9  2 -1</clus>
<clus scale="   89.867">  7  8 -1 -1</clus>
<clus scale="   91.093">  1  7  2 -1</clus>
<clus scale="   91.186">  5  6 -1 -1</clus>
<clus scale="   92.395">  2  5  1 -1</clus>
</clustering>
</event>
<event>
 9    1  0.1612788E-005  0.1846411E+03  0.7546771E-02  0.1164023E+00
          1   -1    0    0  502    0  0.00000000000E+00  0.00000000000E+00  0.70944666114E+03  0.70944666114E+03  0.00000000000E+00 0. -1.
         -1   -1    0    0    0  501 -0.00000000000E+00 -0.00000000000E+00 -0.30731852590E+03  0.30731852590E+03  0.00000000000E+00 0.  1.
         23    2    1    2    0    0 -0.18128938422E+03  0.26252412710E+02 -0.24437253605E+03  0.31715834893E+03  0.85536260803E+02 0.  0.
         23    2    1    2    0    0  0.15846083222E+03 -0.18672189663E+02  0.64984191117E+03  0.67532173050E+03  0.91139695884E+02 0.  0.
        -11    1    3    3    0    0 -0.13468885690E+03  0.56978098737E+02 -0.17226742072E+03  0.22597268895E+03  0.00000000000E+00 0.  1.
         11    1    3    3    0    0 -0.46600527315E+02 -0.30725686027E+02 -0.72105115333E+02  0.91185659975E+02  0.00000000000E+00 0. -1.
        -13    1    4    4    0    0  0.93951952868E+01 -0.18650885964E+02  0.23291344846E+02  0.31282774597E+02  0.00000000000E+00 0.  1.
         13    1    4    4    0    0  0.14906563694E+03 -0.21303698611E-01  0.62655056632E+03  0.64403895591E+03  0.00000000000E+00 0. -1.
         21    1    1    2  502  501  0.22828551997E+02 -0.75802230475E+01 -0.33412398670E+01  0.24285107609E+02  0.00000000000E+00 0. -1.
<scales pt_clust_5="13000.00000" pt_clust_6="13000.00000" pt_clust_7="13000.00000" pt_clust_8="13000.00000" pt_clust_9="24.05416"></scales>
<clustering>
<clus scale="   24.054">  2  9  1 -1</clus>
<clus scale="   85.536">  5  6 -1 -1</clus>
<clus scale="   91.140">  7  8 -1 -1</clus>
<clus scale="  181.941">  2  5  1 -1</clus>
<clus scale="  184.641">  1  5  2 -1</clus>
</clustering>
</event>
<event>
 9    1  0.1612788E-005  0.1994127E+03  0.7546771E-02  0.1150400E+00
          2   -1    0    0  502    0  0.00000000000E+00  0.00000000000E+00  0.10880037729E+04  0.10880037729E+04  0.00000000000E+00 0. -1.
         -2   -1    0    0    0  501 -0.00000000000E+00 -0.00000000000E+00 -0.62773981531E+02  0.62773981531E+02  0.00000000000E+00 0.  1.
         23    2    1    2    0    0  0.16749749743E+03  0.15161549812E+03  0.36468098343E+03  0.43833111632E+03  0.89995982935E+02 0.  0.
         23    2    1    2    0    0 -0.10848369039E+03 -0.11518845851E+03  0.56853428621E+03  0.59722411060E+03  0.91696846334E+02 0.  0.
        -11    1    4    4    0    0 -0.10093445438E+03 -0.53047451876E+02  0.43578984948E+03  0.45046041907E+03  0.00000000000E+00 0. -1.
         11    1    4    4    0    0 -0.75492360055E+01 -0.62141006637E+02  0.13274443673E+03  0.14676369153E+03  0.00000000000E+00 0.  1.
        -13    1    3    3    0    0  0.11003141128E+03  0.14915119684E+03  0.26839318730E+03  0.32617157138E+03  0.00000000000E+00 0. -1.
         13    1    3    3    0    0  0.57466086153E+02  0.24643012835E+01  0.96287796129E+02  0.11215954494E+03  0.00000000000E+00 0.  1.
         21    1    1    2  502  501 -0.59013807045E+02 -0.36427039608E+02  0.92014521720E+02  0.11522252750E+03  0.00000000000E+00 0. -1.
<scales pt_clust_5="13000.00000" pt_clust_6="13000.00000" pt_clust_7="13000.00000" pt_clust_8="13000.00000" pt_clust_9="69.35098"></scales>
<clustering>
<clus scale="   69.351">  2  9  1 -1</clus>
<clus scale="   89.996">  7  8 -1 -1</clus>
<clus scale="   91.697">  5  6 -1 -1</clus>
<clus scale="  198.636">  2  7  1 -1</clus>
<clus scale="  199.413">  1  5  2 -1</clus>
</clustering>
</event>
<event>
 9    1  0.1612788E-005  0.1139701E+03  0.7546771E-02  0.1254846E+00
          2   -1    0    0  502    0  0.00000000000E+00  0.00000000000E+00  0.12311915578E+03  0.12311915578E+03  0.00000000000E+00 0.  1.
         -2   -1    0    0    0  501 -0.00000000000E+00 -0.00000000000E+00 -0.27443310440E+03  0.27443310440E+03  0.00000000000E+00 0. -1.
         23    2    1    2    0    0  0.85285621304E+02  0.71119757950E+02 -0.17134945721E+02  0.14439862534E+03  0.90695641919E+02 0.  0.
         23    2    1    2    0    0 -0.46084340102E+02 -0.99033695013E+01  0.22057434222E+01  0.98605953869E+02  0.86581901713E+02 0.  0.
        -11    1    4    4    0    0  0.10882199505E+02 -0.34170998663E+02  0.68560360449E+01  0.36511431716E+02  0.00000000000E+00 0. -1.
         11    1    4    4    0    0 -0.56966539607E+02  0.24267629162E+02 -0.46502926227E+01  0.62094522153E+02  0.00000000000E+00 0.  1.
        -13    1    3    3    0    0  0.56184195823E+02  0.33748339721E+02  0.34718227589E+02  0.74168521767E+02  0.00000000000E+00 0.  1.
         13    1    3    3    0    0  0.29101425482E+02  0.37371418229E+02 -0.51853173310E+02  0.70230103573E+02  0.00000000000E+00 0. -1.
         21    1    1    2  502  501 -0.39201281202E+02 -0.61216388449E+02 -0.13638474633E+03  0.15454768097E+03  0.00000000000E+00 0. -1.
<scales pt_clust_5="13000.00000" pt_clust_6="13000.00000" pt_clust_7="13000.00000" pt_clust_8="13000.00000" pt_clust_9="72.69241"></scales>
<clustering>
<clus scale="   72.692">  2  9  1 -1</clus>
<clus scale="   86.582">  5  6 -1 -1</clus>
<clus scale="   90.696">  7  8 -1 -1</clus>
<clus scale="  110.724">  1  5  2 -1</clus>
<clus scale="  110.724">  1  5  2 -1</clus>
</clustering>
</event>
<event>
 9    1  0.1612788E-005  0.1137700E+03  0.7546771E-02  0.1254440E+00
         -1   -1    0    0    0  501 -0.00000000000E+00  0.00000000000E+00  0.98759125004E+02  0.98759125004E+02  0.00000000000E+00 0.  1.
          1   -1    0    0  502    0  0.00000000000E+00 -0.00000000000E+00 -0.30916213229E+03  0.30916213229E+03  0.00000000000E+00 0. -1.
         23    2    1    2    0    0  0.25859540064E+02  0.48877751511E+02 -0.67118684031E+02  0.12500426320E+03  0.89796423459E+02 0.  0.
         23    2    1    2    0    0 -0.44478717911E+02 -0.59634399184E+02 -0.19439592692E+03  0.22746633782E+03  0.91741705487E+02 0.  0.
        -13    1    4    4    0    0 -0.36410328286E+00 -0.60751787413E+02 -0.57558271739E+02  0.83689108554E+02  0.00000000000E+00 0.  1.
         13    1    4    4    0    0 -0.44114614628E+02  0.11173882287E+01 -0.13683765518E+03  0.14377722927E+03  0.00000000000E+00 0. -1.
        -13    1    3    3    0    0  0.17598560889E+02  0.73184958228E+02 -0.64630863635E+02  0.99211370267E+02  0.00000000000E+00 0.  1.
         13    1    3    3    0    0  0.82609791747E+01 -0.24307206717E+02 -0.24878203962E+01  0.25792892928E+02  0.00000000000E+00 0. -1.
         21    1    1    2  502  501  0.18619177848E+02  0.10756647673E+02  0.51111603663E+02  0.55450656280E+02  0.00000000000E+00 0.  1.
<scales pt_clust_5="13000.00000" pt_clust_6="13000.00000" pt_clust_7="13000.00000" pt_clust_8="13000.00000" pt_clust_9="21.50301"></scales>
<clustering>
<clus scale="   21.503">  1  9  2 -1</clus>
<clus scale="   89.796">  7  8 -1 -1</clus>
<clus scale="   91.742">  5  6 -1 -1</clus>
<clus scale="  112.207">  1  7  2 -1</clus>
<clus scale="  113.770">  2  5  1 -1</clus>
</clustering>
</event>
<event>
 9    1  0.1612788E-005  0.1395865E+03  0.7546771E-02  0.1217912E+00
          2   -1    0    0  502    0  0.00000000000E+00  0.00000000000E+00  0.41726117807E+03  0.41726117807E+03  0.00000000000E+00 0. -1.
         -2   -1    0    0    0  501 -0.00000000000E+00 -0.00000000000E+00 -0.69462101564E+02  0.69462101564E+02  0.00000000000E+00 0.  1.
         23    2    1    2    0    0 -0.10280344229E+03  0.20416689062E+02  0.17841911972E+03  0.22725941260E+03  0.93957806454E+02 0.  0.
         23    2    1    2    0    0  0.56844947098E+02 -0.49520024866E+02  0.15351211752E+03  0.20279839467E+03  0.10898457589E+03 0.  0.
        -13    1    3    3    0    0  0.12513248076E+02  0.21181161493E+02  0.41534758080E+02  0.48273793184E+02  0.00000000000E+00 0. -1.
         13    1    3    3    0    0 -0.11531669037E+03 -0.76447243076E+00  0.13688436164E+03  0.17898561942E+03  0.00000000000E+00 0.  1.
        -13    1    4    4    0    0  0.48001835829E+02  0.26115493144E+02  0.80539386775E+02  0.97328248969E+02  0.00000000000E+00 0. -1.
         13    1    4    4    0    0  0.88431112688E+01 -0.75635518009E+02  0.72972730741E+02  0.10547014570E+03  0.00000000000E+00 0.  1.
         21    1    1    2  502  501  0.45958495196E+02  0.29103335804E+02  0.15867839266E+02  0.56665472366E+02  0.00000000000E+00 0.  1.
<scales pt_clust_5="13000.00000" pt_clust_6="13000.00000" pt_clust_7="13000.00000" pt_clust_8="13000.00000" pt_clust_9="54.39841"></scales>
<clustering>
<clus scale="   54.398">  2  9  1 -1</clus>
<clus scale="   93.958">  5  6 -1 -1</clus>
<clus scale="  108.985">  7  8 -1 -1</clus>
<clus scale="  128.198">  2  5  1 -1</clus>
<clus scale="  139.586">  1  5  2 -1</clus>
</clustering>
</event>
<event>
 9    1  0.1612788E-005  0.9204097E+02  0.7546771E-02  0.1298154E+00
         -2   -1    0    0    0  501 -0.00000000000E+00  0.00000000000E+00  0.28340854068E+03  0.28340854068E+03  0.00000000000E+00 0.  1.
          2   -1    0    0  502    0  0.00000000000E+00 -0.00000000000E+00 -0.28984578502E+03  0.28984578502E+03  0.00000000000E+00 0. -1.
         23    2    1    2    0    0 -0.99606085987E+01  0.20206040491E+02  0.18709674253E+03  0.20922680078E+03  0.90901954334E+02 0.  0.
         23    2    1    2    0    0 -0.12712693041E+02 -0.31174022499E+01 -0.26849927527E+03  0.28386584686E+03  0.91195545038E+02 0.  0.
        -11    1    3    3    0    0  0.10945027957E+01  0.55719244452E+02  0.99161475113E+02  0.11374897927E+03  0.00000000000E+00 0. -1.
         11    1    3    3    0    0 -0.11055111394E+02 -0.35513203962E+02  0.87935267419E+02  0.95477821506E+02  0.00000000000E+00 0.  1.
        -13    1    4    4    0    0  0.35715028915E+02 -0.16941109901E+01 -0.60298688531E+02  0.70102533056E+02  0.00000000000E+00 0.  1.
         13    1    4    4    0    0 -0.48427721956E+02 -0.14232912598E+01 -0.20820058674E+03  0.21376331381E+03  0.00000000000E+00 0. -1.
         21    1    1    2  502  501  0.22673301640E+02 -0.17088638241E+02  0.74965288398E+02  0.80161678056E+02  0.00000000000E+00 0.  1.
<scales pt_clust_5="13000.00000" pt_clust_6="13000.00000" pt_clust_7="13000.00000" pt_clust_8="13000.00000" pt_clust_9="28.39190"></scales>
<clustering>
<clus scale="   28.392">  1  9  2 -1</clus>
<clus scale="   90.902">  5  6 -1 -1</clus>
<clus scale="   91.196">  7  8 -1 -1</clus>
<clus scale="   91.750">  1  5  2 -1</clus>
<clus scale="   92.041">  2  5  1 -1</clus>
</clustering>
</event>
<event>
 9    1  0.1612788E-005  0.2035181E+03  0.7546771E-02  0.1146932E+00
         -2   -1    0    0    0  501 -0.00000000000E+00  0.00000000000E+00  0.86065593061E+02  0.86065593061E+02  0.00000000000E+00 0.  1.
          2   -1    0    0  502    0  0.00000000000E+00 -0.00000000000E+00 -0.58748129225E+03  0.58748129225E+03  0.00000000000E+00 0. -1.
         23    2    1    2    0    0 -0.92450115696E+02 -0.15872655200E+03 -0.24934380746E+03  0.32281003484E+03  0.91065043099E+02 0.  0.
         23    2    1    2    0    0  0.10812091704E+03  0.14351226038E+03 -0.25837269477E+03  0.32800474096E+03  0.92437866185E+02 0.  0.
        -13    1    3    3    0    0 -0.19743802290E+02 -0.37274106775E+02 -0.78738587022E+01  0.42908908347E+02  0.00000000000E+00 0.  1.
         13    1    3    3    0    0 -0.72706313406E+02 -0.12145244522E+03 -0.24146994876E+03  0.27990112650E+03  0.00000000000E+00 0. -1.
        -13    1    4    4    0    0  0.82415312700E+02  0.73705233082E+02 -0.85375153699E+02  0.13969130975E+03  0.00000000000E+00 0.  1.
         13    1    4    4    0    0  0.25705604340E+02  0.69807027302E+02 -0.17299754107E+03  0.18831343121E+03  0.00000000000E+00 0. -1.
         21    1    1    2  502  501 -0.15670801344E+02  0.15214291616E+02  0.63008030384E+01  0.22732109516E+02  0.00000000000E+00 0.  1.
<scales pt_clust_5="13000.00000" pt_clust_6="13000.00000" pt_clust_7="13000.00000" pt_clust_8="13000.00000" pt_clust_9="21.84144"></scales>
<clustering>
<clus scale="   21.841">  1  9  2 -1</clus>
<clus scale="   91.065">  5  6 -1 -1</clus>
<clus scale="   92.438">  7  8 -1 -1</clus>
<clus scale="  202.898">  1  5  2 -1</clus>
<clus scale="  203.518">  2  5  1 -1</clus>
</clustering>
</event>
<event>
 9    1  0.1612788E-005  0.1262819E+03  0.7546771E-02  0.1233345E+00
          1   -1    0    0  502    0  0.00000000000E+00  0.00000000000E+00  0.24252153853E+03  0.24252153853E+03  0.00000000000E+00 0. -1.
         -1   -1    0    0    0  501 -0.00000000000E+00 -0.00000000000E+00 -0.97073723877E+02  0.97073723877E+02  0.00000000000E+00 0.  1.
         23    2    1    2    0    0 -0.86469536277E+02 -0.41844346618E+02  0.24498872210E+02  0.13554093872E+03  0.92429547671E+02 0.  0.
         23    2    1    2    0    0  0.67065207313E+02  0.47300159013E+02  0.13257875231E+03  0.18078317527E+03  0.91489801728E+02 0.  0.
        -11    1    4    4    0    0 -0.12563796932E+02 -0.15732436414E+02  0.32296920108E+02  0.38058502300E+02  0.00000000000E+00 0. -1.
         11    1    4    4    0    0  0.79629004245E+02  0.63032595427E+02  0.10028183220E+03  0.14272467297E+03  0.00000000000E+00 0.  1.
        -13    1    3    3    0    0 -0.33634039310E+02  0.50151373804E+01  0.49989787667E+02  0.60459731014E+02  0.00000000000E+00 0. -1.
         13    1    3    3    0    0 -0.52835496967E+02 -0.46859483998E+02 -0.25490915457E+02  0.75081207709E+02  0.00000000000E+00 0.  1.
         21    1    1    2  502  501  0.19404328964E+02 -0.54558123959E+01 -0.11629809863E+02  0.23271148422E+02  0.00000000000E+00 0.  1.
<scales pt_clust_5="13000.00000" pt_clust_6="13000.00000" pt_clust_7="13000.00000" pt_clust_8="13000.00000" pt_clust_9="20.15673"></scales>
<clustering>
<clus scale="   20.157">  2  9  1 -1</clus>
<clus scale="   91.490">  5  6 -1 -1</clus>
<clus scale="   92.430">  7  8 -1 -1</clus>
<clus scale="  125.596">  1  5  2 -1</clus>
<clus scale="  125.596">  1  5  2 -1</clus>
</clustering>
</event>
<event>
 9    1  0.1612788E-005  0.1008795E+03  0.7546771E-02  0.1279413E+00
         -2   -1    0    0    0  501 -0.00000000000E+00  0.00000000000E+00  0.22663748803E+02  0.22663748803E+02  0.00000000000E+00 0.  1.
          2   -1    0    0  502    0  0.00000000000E+00 -0.00000000000E+00 -0.64893640257E+03  0.64893640257E+03  0.00000000000E+00 0. -1.
         23    2    1    2    0    0  0.42994346751E+02  0.76141368147E+01 -0.15744663476E+03  0.18679897977E+03  0.90542405053E+02 0.  0.
         23    2    1    2    0    0 -0.33283012525E+02  0.12761711535E+02 -0.40927134301E+03  0.42111251766E+03  0.92531616845E+02 0.  0.
        -11    1    3    3    0    0  0.53038495745E+01 -0.38624166965E+02 -0.80437960174E+02  0.89388044676E+02  0.00000000000E+00 0. -1.
         11    1    3    3    0    0  0.37690497176E+02  0.46238303780E+02 -0.77008674586E+02  0.97410935091E+02  0.00000000000E+00 0.  1.
        -13    1    4    4    0    0 -0.60920490969E+02  0.25138312468E+02 -0.32371045803E+03  0.33035087651E+03  0.00000000000E+00 0.  1.
         13    1    4    4    0    0  0.27637478443E+02 -0.12376600933E+02 -0.85560884986E+02  0.90761641154E+02  0.00000000000E+00 0. -1.
         21    1    1    2  502  501 -0.97113342255E+01 -0.20375848350E+02 -0.59554675994E+02  0.63688653944E+02  0.00000000000E+00 0. -1.
<scales pt_clust_5="13000.00000" pt_clust_6="13000.00000" pt_clust_7="13000.00000" pt_clust_8="13000.00000" pt_clust_9="22.57178"></scales>
<clustering>
<clus scale="   22.572">  2  9  1 -1</clus>
<clus scale="   90.542">  5  6 -1 -1</clus>
<clus scale="   92.532">  7  8 -1 -1</clus>
<clus scale="   99.058">  1  5  2 -1</clus>
<clus scale="   22.572">  2  5  1 -1</clus>
</clustering>
</event>
<event>
 9    1  0.1612788E-005  0.1272864E+03  0.7546771E-02  0.1232135E+00
         -3   -1    0    0    0  501 -0.00000000000E+00  0.00000000000E+00  0.44862949672E+03  0.44862949672E+03  0.00000000000E+00 0.  1.
          3   -1    0    0  502    0  0.00000000000E+00 -0.00000000000E+00 -0.74367243353E+02  0.74367243353E+02  0.00000000000E+00 0. -1.
         23    2    1    2    0    0  0.28388665517E+02  0.40619391386E+02  0.29479735580E+03  0.31383366894E+03  0.95552286666E+02 0.  0.
         23    2    1    2    0    0 -0.26188678938E+02 -0.89887961983E+02  0.23155137212E+02  0.13430974054E+03  0.93473276451E+02 0.  0.
        -13    1    3    3    0    0  0.61660801264E+01  0.53851020282E+02  0.27744120145E+03  0.28268635126E+03  0.00000000000E+00 0.  1.
         13    1    3    3    0    0  0.22222585391E+02 -0.13231628896E+02  0.17356154358E+02  0.31147317683E+02  0.00000000000E+00 0. -1.
        -13    1    4    4    0    0  0.95415652980E+01 -0.64868983982E+02  0.50559475225E+02  0.82796661081E+02  0.00000000000E+00 0.  1.
         13    1    4    4    0    0 -0.35730244236E+02 -0.25018978001E+02 -0.27404338012E+02  0.51513079458E+02  0.00000000000E+00 0. -1.
         21    1    1    2  502  501 -0.21999865795E+01  0.49268570597E+02  0.56309760347E+02  0.74853330587E+02  0.00000000000E+00 0. -1.
<scales pt_clust_5="13000.00000" pt_clust_6="13000.00000" pt_clust_7="13000.00000" pt_clust_8="13000.00000" pt_clust_9="49.31766"></scales>
<clustering>
<clus scale="   49.318">  1  9  2 -1</clus>
<clus scale="   93.473">  7  8 -1 -1</clus>
<clus scale="   95.552">  5  6 -1 -1</clus>
<clus scale="  125.733">  2  7  1 -1</clus>
<clus scale="  125.733">  2  5  1 -1</clus>
</clustering>
</event>
<event>
 9    1  0.1612788E-005  0.9609879E+02  0.7546771E-02  0.1288983E+00
         -2   -1    0    0    0  501 -0.00000000000E+00  0.00000000000E+00  0.19507012500E+03  0.19507012500E+03  0.00000000000E+00 0.  1.
          2   -1    0    0  502    0  0.00000000000E+00 -0.00000000000E+00 -0.78946158986E+02  0.78946158986E+02  0.00000000000E+00 0. -1.
         23    2    1    2    0    0 -0.24847690855E+02 -0.25188463217E+02  0.30664366347E+02  0.10241037096E+03  0.91080811906E+02 0.  0.
         23    2    1    2    0    0  0.27762296218E+00  0.28089158725E+02  0.15033817433E+02  0.96960798822E+02  0.91576759765E+02 0.  0.
        -11    1    4    4    0    0  0.25457140023E+02  0.19600489106E+02 -0.30461840158E+02  0.44273794248E+02  0.00000000000E+00 0. -1.
         11    1    4    4    0    0 -0.25179517061E+02  0.84886696194E+01  0.45495657591E+02  0.52687004573E+02  0.00000000000E+00 0.  1.
        -11    1    3    3    0    0  0.14564014119E+02  0.26708111361E+02  0.71412013797E-01  0.30421025942E+02  0.00000000000E+00 0. -1.
         11    1    3    3    0    0 -0.39411704974E+02 -0.51896574577E+02  0.30592954334E+02  0.71989345022E+02  0.00000000000E+00 0.  1.
         21    1    1    2  502  501  0.24570067893E+02 -0.29006955080E+01  0.70425782236E+02  0.74645114202E+02  0.00000000000E+00 0. -1.
<scales pt_clust_5="13000.00000" pt_clust_6="13000.00000" pt_clust_7="13000.00000" pt_clust_8="13000.00000" pt_clust_9="24.74070"></scales>
<clustering>
<clus scale="   24.741">  1  9  2 -1</clus>
<clus scale="   91.081">  7  8 -1 -1</clus>
<clus scale="   91.577">  5  6 -1 -1</clus>
<clus scale="   95.626">  1  7  2 -1</clus>
<clus scale="   96.099">  2  5  1 -1</clus>
</clustering>
</event>
<event>
 9    1  0.1612788E-005  0.1164348E+03  0.7546771E-02  0.1249724E+00
          1   -1    0    0  502    0  0.00000000000E+00  0.00000000000E+00  0.54827438313E+03  0.54827438313E+03  0.00000000000E+00 0. -1.
         -1   -1    0    0    0  501 -0.00000000000E+00 -0.00000000000E+00 -0.26669495790E+03  0.26669495790E+03  0.00000000000E+00 0.  1.
         23    2    1    2    0    0 -0.10005991874E+03  0.12503942394E+02  0.73497519193E+02  0.15456243679E+03  0.91210337279E+02 0.  0.
         23    2    1    2    0    0  0.22577143715E+02  0.75384860112E+02  0.40968111429E+03  0.42723258576E+03  0.92176257122E+02 0.  0.
        -11    1    4    4    0    0  0.47095606272E+02  0.25594638517E+02  0.10893126004E+03  0.12140469952E+03  0.00000000000E+00 0.  1.
         11    1    4    4    0    0 -0.24518462557E+02  0.49790221594E+02  0.30074985425E+03  0.30582788624E+03  0.00000000000E+00 0. -1.
        -13    1    3    3    0    0 -0.61870033483E+02 -0.34659435110E+02  0.58796715826E+02  0.92120742926E+02  0.00000000000E+00 0.  1.
         13    1    3    3    0    0 -0.38189885258E+02  0.47163377504E+02  0.14700803367E+02  0.62441693869E+02  0.00000000000E+00 0. -1.
         21    1    1    2  502  501  0.77482775026E+02 -0.87888802506E+02 -0.20159920825E+03  0.23317431848E+03  0.00000000000E+00 0.  1.
<scales pt_clust_5="13000.00000" pt_clust_6="13000.00000" pt_clust_7="13000.00000" pt_clust_8="13000.00000" pt_clust_9="117.16664"></scales>
<clustering>
<clus scale="   91.210">  7  8 -1 -1</clus>
<clus scale="   92.176">  5  6 -1 -1</clus>
<clus scale="  117.167">  2  9  1 -1</clus>
<clus scale="  117.167">  2  7  1 -1</clus>
<clus scale="  115.708">  1  5  2 -1</clus>
</clustering>
</event>
<event>
 9    1  0.1612788E-005  0.9257277E+02  0.7546771E-02  0.1297981E+00
         -1   -1    0    0    0  501 -0.00000000000E+00  0.00000000000E+00  0.36908075071E+02  0.36908075071E+02  0.00000000000E+00 0.  1.
          1   -1    0    0  502    0  0.00000000000E+00 -0.00000000000E+00 -0.30224557491E+03  0.30224557491E+03  0.00000000000E+00 0. -1.
         23    2    1    2    0    0 -0.14701627079E+02  0.17760931169E+02 -0.11519757877E+03  0.14831174639E+03  0.90522391970E+02 0.  0.
         23    2    1    2    0    0 -0.55171661054E+01 -0.20105299953E+02 -0.14276876780E+03  0.16919405004E+03  0.88368791455E+02 0.  0.
        -11    1    4    4    0    0 -0.40159039582E+02 -0.10487515777E+02 -0.11916353129E+03  0.12618511654E+03  0.00000000000E+00 0.  1.
         11    1    4    4    0    0  0.34641873477E+02 -0.96177841752E+01 -0.23605236515E+02  0.43008933506E+02  0.00000000000E+00 0. -1.
        -13    1    3    3    0    0  0.11156651331E+02 -0.25492215724E+02 -0.66104933575E+01  0.28601093578E+02  0.00000000000E+00 0.  1.
         13    1    3    3    0    0 -0.25858278409E+02  0.43253146893E+02 -0.10858708541E+03  0.11971065281E+03  0.00000000000E+00 0. -1.
         21    1    1    2  502  501  0.20218793184E+02  0.23443687831E+01 -0.73711532747E+01  0.21647853552E+02  0.00000000000E+00 0.  1.
<scales pt_clust_5="13000.00000" pt_clust_6="13000.00000" pt_clust_7="13000.00000" pt_clust_8="13000.00000" pt_clust_9="20.35425"></scales>
<clustering>
<clus scale="   20.354">  1  9  2 -1</clus>
<clus scale="   88.369">  5  6 -1 -1</clus>
<clus scale="   90.468">  2  5  1 -1</clus>
<clus scale="   90.522">  7  8 -1 -1</clus>
<clus scale="   90.468">  2  5  1 -1</clus>
</clustering>
</event>
<event>
 9    1  0.1612788E-005  0.9100127E+02  0.7546771E-02  0.1301916E+00
         -1   -1    0    0    0  501 -0.00000000000E+00  0.00000000000E+00  0.96079936881E+02  0.96079936881E+02  0.00000000000E+00 0.  1.
          1   -1    0    0  502    0  0.00000000000E+00 -0.00000000000E+00 -0.19927442666E+03  0.19927442666E+03  0.00000000000E+00 0. -1.
         23    2    1    2    0    0 -0.68909190224E+01  0.31076773712E+02  0.16659329192E+02  0.97757225101E+02  0.90915846700E+02 0.  0.
         23    2    1    2    0    0  0.31138201415E+01  0.85741716058E+01 -0.12903271933E+03  0.15672274362E+03  0.88483690108E+02 0.  0.
        -11    1    4    4    0    0  0.68920092616E+01 -0.29201596127E+02 -0.11045338285E+03  0.11445602994E+03  0.00000000000E+00 0. -1.
         11    1    4    4    0    0 -0.37781891202E+01  0.37775767732E+02 -0.18579336482E+02  0.42266713675E+02  0.00000000000E+00 0.  1.
        -13    1    3    3    0    0  0.34942452342E+02  0.35226936327E+02  0.23942524096E+02  0.55092254254E+02  0.00000000000E+00 0.  1.
         13    1    3    3    0    0 -0.41833371364E+02 -0.41501626157E+01 -0.72831949043E+01  0.42664970848E+02  0.00000000000E+00 0. -1.
         21    1    1    2  502  501  0.37770988809E+01 -0.39650945317E+02  0.91789003561E+01  0.40874394824E+02  0.00000000000E+00 0. -1.
<scales pt_clust_5="13000.00000" pt_clust_6="13000.00000" pt_clust_7="13000.00000" pt_clust_8="13000.00000" pt_clust_9="39.83044"></scales>
<clustering>
<clus scale="   39.830">  1  9  2 -1</clus>
<clus scale="   88.484">  5  6 -1 -1</clus>
<clus scale="   88.571">  2  5  1 -1</clus>
<clus scale="   90.916">  7  8 -1 -1</clus>
<clus scale="   88.571">  2  5  1 -1</clus>
</clustering>
</event>
<event>
 9    1  0.1612788E-005  0.1098754E+03  0.7546771E-02  0.1260864E+00
          1   -1    0    0  502    0  0.00000000000E+00  0.00000000000E+00  0.56016673718E+02  0.56016673718E+02  0.00000000000E+00 0. -1.
         -1   -1    0    0    0  501 -0.00000000000E+00 -0.00000000000E+00 -0.41810143156E+03  0.41810143156E+03  0.00000000000E+00 0.  1.
         23    2    1    2    0    0 -0.48423637281E+02  0.10554065452E+02 -0.14079454309E+03  0.17499517964E+03  0.91345347929E+02 0.  0.
         23    2    1    2    0    0  0.57732810498E+02 -0.36956881492E+02 -0.48295197352E+02  0.12387725395E+03  0.91182561168E+02 0.  0.
        -13    1    4    4    0    0  0.32681732875E+02  0.26293962842E+02 -0.28074761053E+01  0.42039862841E+02  0.00000000000E+00 0. -1.
         13    1    4    4    0    0  0.25051077623E+02 -0.63250844335E+02 -0.45487721247E+02  0.81837391108E+02  0.00000000000E+00 0.  1.
        -13    1    3    3    0    0 -0.72761859890E+02 -0.48101812494E+01 -0.11594747762E+03  0.13697168929E+03  0.00000000000E+00 0.  1.
         13    1    3    3    0    0  0.24338222610E+02  0.15364246701E+02 -0.24847065468E+02  0.38023490356E+02  0.00000000000E+00 0. -1.
         21    1    1    2  502  501 -0.93091732172E+01  0.26402816041E+02 -0.17299501739E+03  0.17524567168E+03  0.00000000000E+00 0.  1.
<scales pt_clust_5="13000.00000" pt_clust_6="13000.00000" pt_clust_7="13000.00000" pt_clust_8="13000.00000" pt_clust_9="27.99588"></scales>
<clustering>
<clus scale="   27.996">  2  9  1 -1</clus>
<clus scale="   91.183">  5  6 -1 -1</clus>
<clus scale="   91.345">  7  8 -1 -1</clus>
<clus scale="  109.740">  1  5  2 -1</clus>
<clus scale="  109.740">  1  5  2 -1</clus>
</clustering>
</event>
<event>
 9    1  0.1612788E-005  0.1018096E+03  0.7546771E-02  0.1276558E+00
          1   -1    0    0  502    0  0.00000000000E+00  0.00000000000E+00  0.18949266533E+03  0.18949266533E+03  0.00000000000E+00 0. -1.
         -1   -1    0    0    0  501 -0.00000000000E+00 -0.00000000000E+00 -0.11340104642E+03  0.11340104642E+03  0.00000000000E+00 0.  1.
         23    2    1    2    0    0  0.48332473210E+02 -0.17912093699E+02 -0.21060140040E+02  0.10722432826E+03  0.91633269090E+02 0.  0.
         23    2    1    2    0    0 -0.42569392486E+02 -0.13772319750E+02  0.11905035692E+03  0.15672501615E+03  0.91585551462E+02 0.  0.
        -11    1    3    3    0    0  0.53455664627E+02 -0.48133823605E+02 -0.25357375475E+02  0.76271682468E+02  0.00000000000E+00 0.  1.
         11    1    3    3    0    0 -0.51231914173E+01  0.30221729906E+02  0.42972354353E+01  0.30952645787E+02  0.00000000000E+00 0. -1.
        -11    1    4    4    0    0  0.23747298813E+02  0.57372991602E+01  0.76145069614E+01  0.25589676021E+02  0.00000000000E+00 0.  1.
         11    1    4    4    0    0 -0.66316691300E+02 -0.19509618911E+02  0.11143584996E+03  0.13113534013E+03  0.00000000000E+00 0. -1.
         21    1    1    2  502  501 -0.57630807232E+01  0.31684413449E+02 -0.21898597970E+02  0.38944367347E+02  0.00000000000E+00 0. -1.
<scales pt_clust_5="13000.00000" pt_clust_6="13000.00000" pt_clust_7="13000.00000" pt_clust_8="13000.00000" pt_clust_9="32.20427"></scales>
<clustering>
<clus scale="   32.204">  2  9  1 -1</clus>
<clus scale="   91.586">  7  8 -1 -1</clus>
<clus scale="   91.633">  5  6 -1 -1</clus>
<clus scale="  101.767">  1  7  2 -1</clus>
<clus scale="  101.767">  1  5  2 -1</clus>
</clustering>
</event>
<event>
 9    1  0.1888305E-005  0.9617032E+02  0.7546771E-02  0.1290041E+00
         -2   -1    0    0    0  501 -0.00000000000E+00  0.00000000000E+00  0.52021203643E+02  0.52021203643E+02  0.00000000000E+00 0.  1.
          2   -1    0    0  502    0  0.00000000000E+00 -0.00000000000E+00 -0.39955599865E+03  0.39955599865E+03  0.00000000000E+00 0. -1.
         23    2    1    2    0    0 -0.95220946032E+01  0.27280549260E+02 -0.21983066748E+02  0.10003551103E+03  0.93214535296E+02 0.  0.
         23    2    1    2    0    0  0.23339672959E+02 -0.74030406099E+01 -0.30713233518E+03  0.32112270273E+03  0.90498472641E+02 0.  0.
        -11    1    3    3    0    0 -0.41475847045E+02  0.16064760064E+02  0.17696406956E+02  0.47869460235E+02  0.00000000000E+00 0. -1.
         11    1    3    3    0    0  0.31953752442E+02  0.11215789196E+02 -0.39679473704E+02  0.52166050798E+02  0.00000000000E+00 0.  1.
        -11    1    4    4    0    0 -0.15429929808E+02 -0.32405784079E+02 -0.21618406576E+03  0.21914325877E+03  0.00000000000E+00 0. -1.
         11    1    4    4    0    0  0.38769602767E+02  0.25002743470E+02 -0.90948269424E+02  0.10197944396E+03  0.00000000000E+00 0.  1.
         21    1    1    2  502  501 -0.13817578356E+02 -0.19877508650E+02 -0.18419393071E+02  0.30418988525E+02  0.00000000000E+00 0. -1.
<scales pt_clust_5="13000.00000" pt_clust_6="13000.00000" pt_clust_7="13000.00000" pt_clust_8="13000.00000" pt_clust_9="24.20828"></scales>
<clustering>
<clus scale="   24.208">  1  9  2 -1</clus>
<clus scale="   90.498">  7  8 -1 -1</clus>
<clus scale="   93.215">  5  6 -1 -1</clus>
<clus scale="   93.540">  2  7  1 -1</clus>
<clus scale="   93.540">  2  5  1 -1</clus>
</clustering>
</event>
<event>
 9    1  0.1612788E-005  0.9367283E+02  0.7546771E-02  0.1297236E+00
          1   -1    0    0  502    0  0.00000000000E+00  0.00000000000E+00  0.35075865782E+02  0.35075865782E+02  0.00000000000E+00 0. -1.
         -1   -1    0    0    0  501 -0.00000000000E+00 -0.00000000000E+00 -0.60747365272E+03  0.60747365272E+03  0.00000000000E+00 0.  1.
         23    2    1    2    0    0  0.56308222839E+02 -0.53167553968E+02 -0.22544568992E+03  0.25283831221E+03  0.84285516337E+02 0.  0.
         23    2    1    2    0    0  0.29070412991E+01 -0.34255492903E+00 -0.12515886641E+03  0.15399524076E+03  0.89672872731E+02 0.  0.
        -13    1    4    4    0    0  0.44874799158E+01 -0.43003654237E+02 -0.40793525068E+02  0.59443783873E+02  0.00000000000E+00 0. -1.
         13    1    4    4    0    0 -0.15804386167E+01  0.42661099308E+02 -0.84365341339E+02  0.94551456888E+02  0.00000000000E+00 0.  1.
        -13    1    3    3    0    0  0.10538170283E+02  0.17794645710E+02 -0.13518049563E+02  0.24707086288E+02  0.00000000000E+00 0.  1.
         13    1    3    3    0    0  0.45770052555E+02 -0.70962199677E+02 -0.21192764036E+03  0.22813122593E+03  0.00000000000E+00 0. -1.
         21    1    1    2  502  501 -0.59215264138E+02  0.53510108897E+02 -0.22179323061E+03  0.23571596553E+03  0.00000000000E+00 0.  1.
<scales pt_clust_5="13000.00000" pt_clust_6="13000.00000" pt_clust_7="13000.00000" pt_clust_8="13000.00000" pt_clust_9="79.81090"></scales>
<clustering>
<clus scale="   79.811">  2  9  1 -1</clus>
<clus scale="   84.286">  7  8 -1 -1</clus>
<clus scale="   88.529">  2  7  1 -1</clus>
<clus scale="   89.673">  5  6 -1 -1</clus>
<clus scale="   93.673">  1  5  2 -1</clus>
</clustering>
</event>
<event>
 9    1  0.1612788E-005  0.9494650E+02  0.7546771E-02  0.1292861E+00
         -1   -1    0    0    0  501 -0.00000000000E+00  0.00000000000E+00  0.51896213781E+02  0.51896213781E+02  0.00000000000E+00 0.  1.
          1   -1    0    0  502    0  0.00000000000E+00 -0.00000000000E+00 -0.26456368300E+03  0.26456368300E+03  0.00000000000E+00 0. -1.
         23    2    1    2    0    0  0.25429928983E+02 -0.95789968372E+01 -0.75117587892E+02  0.12312345970E+03  0.93692560265E+02 0.  0.
         23    2    1    2    0    0  0.42435955246E+01  0.16255380596E+02 -0.13387309591E+03  0.16269967962E+03  0.90922683839E+02 0.  0.
        -11    1    4    4    0    0 -0.35258128016E+02  0.32634249946E+02 -0.85993075572E+02  0.98503496928E+02  0.00000000000E+00 0.  1.
         11    1    4    4    0    0  0.39501723540E+02 -0.16378869350E+02 -0.47880020342E+02  0.64196182689E+02  0.00000000000E+00 0. -1.
        -11    1    3    3    0    0 -0.34525084816E+02  0.22195404010E+01 -0.39037537344E+02  0.52161644558E+02  0.00000000000E+00 0.  1.
         11    1    3    3    0    0  0.59955013799E+02 -0.11798537238E+02 -0.36080050548E+02  0.70961815141E+02  0.00000000000E+00 0. -1.
         21    1    1    2  502  501 -0.29673524507E+02 -0.66763837592E+01 -0.36767854074E+01  0.30636757461E+02  0.00000000000E+00 0.  1.
<scales pt_clust_5="13000.00000" pt_clust_6="13000.00000" pt_clust_7="13000.00000" pt_clust_8="13000.00000" pt_clust_9="30.41533"></scales>
<clustering>
<clus scale="   30.415">  1  9  2 -1</clus>
<clus scale="   90.923">  5  6 -1 -1</clus>
<clus scale="   92.214">  2  5  1 -1</clus>
<clus scale="   93.693">  7  8 -1 -1</clus>
<clus scale="   92.214">  2  5  1 -1</clus>
</clustering>
</event>
<event>
 9    1  0.1612788E-005  0.1105410E+03  0.7546771E-02  0.1260319E+00
         -1   -1    0    0    0  501 -0.00000000000E+00  0.00000000000E+00  0.11188069644E+03  0.11188069644E+03  0.00000000000E+00 0.  1.
          1   -1    0    0  502    0  0.00000000000E+00 -0.00000000000E+00 -0.15814576844E+03  0.15814576844E+03  0.00000000000E+00 0. -1.
         23    2    1    2    0    0  0.24447941321E+02  0.74137069529E+02 -0.34045174137E+02  0.12442879329E+03  0.90716281913E+02 0.  0.
         23    2    1    2    0    0 -0.12182377638E+01 -0.45590784761E+02 -0.25683663987E+02  0.10640861063E+03  0.92645226868E+02 0.  0.
        -13    1    3    3    0    0 -0.10804679506E+02  0.75765341592E+02 -0.43317867017E+02  0.87940694156E+02  0.00000000000E+00 0. -1.
         13    1    3    3    0    0  0.35252620827E+02 -0.16282720631E+01  0.92726928798E+01  0.36488099133E+02  0.00000000000E+00 0.  1.
        -13    1    4    4    0    0 -0.27995562690E+02 -0.22494131096E+02 -0.51386578806E+02  0.62692247890E+02  0.00000000000E+00 0. -1.
         13    1    4    4    0    0  0.26777324927E+02 -0.23096653666E+02  0.25702914819E+02  0.43716362737E+02  0.00000000000E+00 0.  1.
         21    1    1    2  502  501 -0.23229703558E+02 -0.28546284767E+02  0.13463766119E+02  0.39189060967E+02  0.00000000000E+00 0. -1.
<scales pt_clust_5="13000.00000" pt_clust_6="13000.00000" pt_clust_7="13000.00000" pt_clust_8="13000.00000" pt_clust_9="36.80366"></scales>
<clustering>
<clus scale="   36.804">  1  9  2 -1</clus>
<clus scale="   90.716">  5  6 -1 -1</clus>
<clus scale="   92.645">  7  8 -1 -1</clus>
<clus scale="  108.929">  1  5  2 -1</clus>
<clus scale="  110.541">  2  5  1 -1</clus>
</clustering>
</event>
<event>
 9    1  0.1612788E-005  0.1042734E+03  0.7546771E-02  0.1271584E+00
          1   -1    0    0  502    0  0.00000000000E+00  0.00000000000E+00  0.26308771240E+03  0.26308771240E+03  0.00000000000E+00 0. -1.
         -1   -1    0    0    0  501 -0.00000000000E+00 -0.00000000000E+00 -0.75407981834E+02  0.75407981834E+02  0.00000000000E+00 0.  1.
         23    2    1    2    0    0  0.32857995702E+01 -0.35585952612E+02  0.13385098163E+02  0.10085995028E+03  0.93361727790E+02 0.  0.
         23    2    1    2    0    0 -0.23061222758E+02  0.45014709389E+02  0.18497772885E+03  0.21326163133E+03  0.93303907588E+02 0.  0.
        -11    1    3    3    0    0 -0.18760344272E+02  0.26863284043E+02  0.11097781771E+02  0.34594035715E+02  0.00000000000E+00 0. -1.
         11    1    3    3    0    0  0.22046143842E+02 -0.62449236655E+02  0.22873163918E+01  0.66265914567E+02  0.00000000000E+00 0.  1.
        -13    1    4    4    0    0  0.20727658140E+02  0.42685598251E+02  0.40858259754E+02  0.62618635406E+02  0.00000000000E+00 0.  1.
         13    1    4    4    0    0 -0.43788880897E+02  0.23291111378E+01  0.14411946909E+03  0.15064299592E+03  0.00000000000E+00 0. -1.
         21    1    1    2  502  501  0.19775423187E+02 -0.94287567763E+01 -0.10683096444E+02  0.24374112624E+02  0.00000000000E+00 0.  1.
<scales pt_clust_5="13000.00000" pt_clust_6="13000.00000" pt_clust_7="13000.00000" pt_clust_8="13000.00000" pt_clust_9="21.90819"></scales>
<clustering>
<clus scale="   21.908">  2  9  1 -1</clus>
<clus scale="   93.304">  7  8 -1 -1</clus>
<clus scale="   93.362">  5  6 -1 -1</clus>
<clus scale="  104.222">  1  7  2 -1</clus>
<clus scale="  104.222">  1  5  2 -1</clus>
</clustering>
</event>
<event>
 9    1  0.1612788E-005  0.1002452E+03  0.7546771E-02  0.1280624E+00
          2   -1    0    0  502    0  0.00000000000E+00  0.00000000000E+00  0.96855511207E+02  0.96855511207E+02  0.00000000000E+00 0. -1.
         -2   -1    0    0    0  501 -0.00000000000E+00 -0.00000000000E+00 -0.19570679807E+03  0.19570679807E+03  0.00000000000E+00 0.  1.
         23    2    1    2    0    0  0.98807971912E+01  0.52821548604E+01 -0.92777227449E+02  0.13039457798E+03  0.90937345029E+02 0.  0.
         23    2    1    2    0    0 -0.49585921541E+02 -0.19277120330E+02  0.28511682431E+02  0.10768351801E+03  0.89176527363E+02 0.  0.
        -11    1    4    4    0    0 -0.65708177901E+02  0.73124326144E+01  0.93340959977E+00  0.66120402050E+02  0.00000000000E+00 0. -1.
         11    1    4    4    0    0  0.16122256359E+02 -0.26589552944E+02  0.27578272831E+02  0.41563115959E+02  0.00000000000E+00 0.  1.
        -13    1    3    3    0    0  0.95195957837E+01  0.38008210740E+02 -0.86503062812E+01  0.40125734714E+02  0.00000000000E+00 0. -1.
         13    1    3    3    0    0  0.36120140747E+00 -0.32726055880E+02 -0.84126921168E+02  0.90268843269E+02  0.00000000000E+00 0.  1.
         21    1    1    2  502  501  0.39705124350E+02  0.13994965470E+02 -0.34585741842E+02  0.54484213282E+02  0.00000000000E+00 0.  1.
<scales pt_clust_5="13000.00000" pt_clust_6="13000.00000" pt_clust_7="13000.00000" pt_clust_8="13000.00000" pt_clust_9="42.09936"></scales>
<clustering>
<clus scale="   42.099">  2  9  1 -1</clus>
<clus scale="   89.177">  5  6 -1 -1</clus>
<clus scale="   90.937">  7  8 -1 -1</clus>
<clus scale="   98.651">  1  5  2 -1</clus>
<clus scale="   98.651">  1  5  2 -1</clus>
</clustering>
</event>
<event>
 9    1  0.1612788E-005  0.1733890E+03  0.7546771E-02  0.1174788E+00
         -1   -1    0    0    0  501 -0.00000000000E+00  0.00000000000E+00  0.15014647314E+03  0.15014647314E+03  0.00000000000E+00 0.  1.
          1   -1    0    0  502    0  0.00000000000E+00 -0.00000000000E+00 -0.50751277252E+03  0.50751277252E+03  0.00000000000E+00 0. -1.
         23    2    1    2    0    0  0.63396365693E+02 -0.10676928927E+03  0.98437605791E+01  0.15621870076E+03  0.94279385498E+02 0.  0.
         23    2    1    2    0    0  0.62306097642E+02  0.15448184773E+03 -0.28929031095E+03  0.34604078684E+03  0.91151802302E+02 0.  0.
        -11    1    4    4    0    0  0.18167178687E+02  0.11215817805E+03 -0.24643804684E+03  0.27136914750E+03  0.00000000000E+00 0. -1.
         11    1    4    4    0    0  0.44138918955E+02  0.42323669680E+02 -0.42852264112E+02  0.74671639336E+02  0.00000000000E+00 0.  1.
        -13    1    3    3    0    0  0.32482947955E+02 -0.11687377848E+03  0.18144131723E+02  0.12265329804E+03  0.00000000000E+00 0.  1.
         13    1    3    3    0    0  0.30913417738E+02  0.10104489211E+02 -0.83003711438E+01  0.33565402718E+02  0.00000000000E+00 0. -1.
         21    1    1    2  502  501 -0.12570246334E+03 -0.47712558463E+02 -0.77919749002E+02  0.15539975807E+03  0.00000000000E+00 0. -1.
<scales pt_clust_5="13000.00000" pt_clust_6="13000.00000" pt_clust_7="13000.00000" pt_clust_8="13000.00000" pt_clust_9="134.45296"></scales>
<clustering>
<clus scale="   91.152">  5  6 -1 -1</clus>
<clus scale="   94.279">  7  8 -1 -1</clus>
<clus scale="  134.453">  1  9  2 -1</clus>
<clus scale="  171.708">  2  5  1 -1</clus>
<clus scale="  171.708">  2  5  1 -1</clus>
</clustering>
</event>
<event>
 9    1  0.1612788E-005  0.1248790E+03  0.7546771E-02  0.1235892E+00
          2   -1    0    0  502    0  0.00000000000E+00  0.00000000000E+00  0.30080031864E+03  0.30080031864E+03  0.00000000000E+00 0. -1.
         -2   -1    0    0    0  501 -0.00000000000E+00 -0.00000000000E+00 -0.12384098702E+03  0.12384098702E+03  0.00000000000E+00 0.  1.
         23    2    1    2    0    0  0.10504572358E+03  0.46965394979E+02  0.78623351430E+02  0.16691558208E+03  0.91863092599E+02 0.  0.
         23    2    1    2    0    0 -0.56972701538E+01 -0.81517975757E+02  0.86991474478E+02  0.15193019509E+03  0.94008660714E+02 0.  0.
        -11    1    4    4    0    0 -0.20902451645E+02  0.12282762692E+02  0.18044439665E+01  0.24311206514E+02  0.00000000000E+00 0.  1.
         11    1    4    4    0    0  0.15205181491E+02 -0.93800738449E+02  0.85187030511E+02  0.12761898858E+03  0.00000000000E+00 0. -1.
        -13    1    3    3    0    0  0.62263294123E+02  0.70501009149E+02  0.70195043102E+02  0.11736462057E+03  0.00000000000E+00 0.  1.
         13    1    3    3    0    0  0.42782429462E+02 -0.23535614170E+02  0.84283083280E+01  0.49550961507E+02  0.00000000000E+00 0. -1.
         21    1    1    2  502  501 -0.99348453431E+02  0.34552580778E+02  0.11344505716E+02  0.10579552849E+03  0.00000000000E+00 0. -1.
<scales pt_clust_5="13000.00000" pt_clust_6="13000.00000" pt_clust_7="13000.00000" pt_clust_8="13000.00000" pt_clust_9="105.18553"></scales>
<clustering>
<clus scale="   91.863">  7  8 -1 -1</clus>
<clus scale="   94.009">  5  6 -1 -1</clus>
<clus scale="  105.186">  2  9  1 -1</clus>
<clus scale="  123.272">  2  7  1 -1</clus>
<clus scale="  124.879">  1  5  2 -1</clus>
</clustering>
</event>
<event>
 9    1  0.1612788E-005  0.1219623E+03  0.7546771E-02  0.1242629E+00
         -2   -1    0    0    0  501 -0.00000000000E+00  0.00000000000E+00  0.73281279923E+02  0.73281279923E+02  0.00000000000E+00 0.  1.
          2   -1    0    0  502    0  0.00000000000E+00 -0.00000000000E+00 -0.40745328822E+03  0.40745328822E+03  0.00000000000E+00 0. -1.
         23    2    1    2    0    0  0.39842545950E+02 -0.39110550345E+02 -0.12290108824E+03  0.16672504531E+03  0.97854481886E+02 0.  0.
         23    2    1    2    0    0 -0.41715866789E+02  0.74710694332E+02 -0.23877723649E+03  0.26898200873E+03  0.89525700027E+02 0.  0.
        -11    1    4    4    0    0 -0.95928929997E-01  0.38897351470E+02 -0.19476811252E+03  0.19861427644E+03  0.00000000000E+00 0. -1.
         11    1    4    4    0    0 -0.41619937859E+02  0.35813342862E+02 -0.44009123974E+02  0.70367732288E+02  0.00000000000E+00 0.  1.
        -13    1    3    3    0    0  0.38358629244E+02  0.25825145328E+02 -0.38156690605E+02  0.59952110944E+02  0.00000000000E+00 0. -1.
         13    1    3    3    0    0  0.14839167060E+01 -0.64935695674E+02 -0.84744397638E+02  0.10677293436E+03  0.00000000000E+00 0.  1.
         21    1    1    2  502  501  0.18733208391E+01 -0.35600143987E+02  0.27506316434E+02  0.45027514107E+02  0.00000000000E+00 0. -1.
<scales pt_clust_5="13000.00000" pt_clust_6="13000.00000" pt_clust_7="13000.00000" pt_clust_8="13000.00000" pt_clust_9="35.64940"></scales>
<clustering>
<clus scale="   35.649">  1  9  2 -1</clus>
<clus scale="   89.526">  5  6 -1 -1</clus>
<clus scale="   97.854">  7  8 -1 -1</clus>
<clus scale="  115.387">  2  5  1 -1</clus>
<clus scale="  115.387">  2  5  1 -1</clus>
</clustering>
</event>
<event>
 9    1  0.1612788E-005  0.1199685E+03  0.7546771E-02  0.1247859E+00
          1   -1    0    0  502    0  0.00000000000E+00  0.00000000000E+00  0.35995554826E+03  0.35995554826E+03  0.00000000000E+00 0. -1.
         -1   -1    0    0    0  501 -0.00000000000E+00 -0.00000000000E+00 -0.54613118771E+02  0.54613118771E+02  0.00000000000E+00 0.  1.
         23    2    1    2    0    0 -0.48699575324E+02  0.15566951341E+02  0.57176978144E+02  0.12848338863E+03  0.10307664970E+03 0.  0.
         23    2    1    2    0    0  0.66047206605E+02  0.39920857681E+01  0.22444238613E+03  0.25078258634E+03  0.90218349967E+02 0.  0.
        -11    1    4    4    0    0  0.15708241714E+02  0.41653940065E+02  0.59841743321E+02  0.74584407381E+02  0.00000000000E+00 0.  1.
         11    1    4    4    0    0  0.50338964891E+02 -0.37661854297E+02  0.16460064281E+03  0.17619817896E+03  0.00000000000E+00 0. -1.
        -13    1    3    3    0    0 -0.77769530676E+02  0.28796855777E+02  0.37918895396E+02  0.91187726324E+02  0.00000000000E+00 0.  1.
         13    1    3    3    0    0  0.29069955352E+02 -0.13229904436E+02  0.19258082748E+02  0.37295662304E+02  0.00000000000E+00 0. -1.
         21    1    1    2  502  501 -0.17347631281E+02 -0.19559037109E+02  0.23723065214E+02  0.35302692062E+02  0.00000000000E+00 0.  1.
<scales pt_clust_5="13000.00000" pt_clust_6="13000.00000" pt_clust_7="13000.00000" pt_clust_8="13000.00000" pt_clust_9="26.14376"></scales>
<clustering>
<clus scale="   26.144">  2  9  1 -1</clus>
<clus scale="   90.218">  5  6 -1 -1</clus>
<clus scale="  103.077">  7  8 -1 -1</clus>
<clus scale="  109.119">  1  5  2 -1</clus>
<clus scale="  109.119">  1  5  2 -1</clus>
</clustering>
</event>
<event>
 9    1  0.1612788E-005  0.1122049E+03  0.7546771E-02  0.1258046E+00
         -1   -1    0    0    0  501 -0.00000000000E+00  0.00000000000E+00  0.38223628083E+02  0.38223628083E+02  0.00000000000E+00 0.  1.
          1   -1    0    0  502    0  0.00000000000E+00 -0.00000000000E+00 -0.46266981562E+03  0.46266981562E+03  0.00000000000E+00 0. -1.
         23    2    1    2    0    0  0.53228422003E+01 -0.45031507344E+02 -0.12829760889E+03  0.16580203319E+03  0.94730504380E+02 0.  0.
         23    2    1    2    0    0 -0.18963492328E+02  0.66368595293E+02 -0.28582095785E+03  0.30774185093E+03  0.90813117925E+02 0.  0.
        -11    1    3    3    0    0 -0.14214807824E+02 -0.67762752408E+02 -0.61579131946E+02  0.92659812576E+02  0.00000000000E+00 0.  1.
         11    1    3    3    0    0  0.19537650024E+02  0.22731245064E+02 -0.66718476941E+02  0.73142220611E+02  0.00000000000E+00 0. -1.
        -13    1    4    4    0    0 -0.31730761781E+02 -0.56579753046E+01 -0.40572600049E+02  0.51816887232E+02  0.00000000000E+00 0.  1.
         13    1    4    4    0    0  0.12767269453E+02  0.72026570598E+02 -0.24524835780E+03  0.25592496370E+03  0.00000000000E+00 0. -1.
         21    1    1    2  502  501  0.13640650128E+02 -0.21337087949E+02 -0.10327620804E+02  0.27349559585E+02  0.00000000000E+00 0.  1.
<scales pt_clust_5="13000.00000" pt_clust_6="13000.00000" pt_clust_7="13000.00000" pt_clust_8="13000.00000" pt_clust_9="25.32467"></scales>
<clustering>
<clus scale="   25.325">  1  9  2 -1</clus>
<clus scale="   90.813">  7  8 -1 -1</clus>
<clus scale="   94.731">  5  6 -1 -1</clus>
<clus scale="  108.918">  2  7  1 -1</clus>
<clus scale="  108.918">  2  5  1 -1</clus>
</clustering>
</event>
<event>
 9    1  0.2191527E-005  0.1068250E+03  0.7546771E-02  0.1267154E+00
         -1   -1    0    0    0  501 -0.00000000000E+00  0.00000000000E+00  0.53845413353E+03  0.53845413353E+03  0.00000000000E+00 0.  1.
          1   -1    0    0  502    0  0.00000000000E+00 -0.00000000000E+00 -0.11087591852E+03  0.11087591852E+03  0.00000000000E+00 0. -1.
         23    2    1    2    0    0 -0.67454578852E+02 -0.70093598763E+01  0.40545052700E+03  0.42101824629E+03  0.90922948328E+02 0.  0.
         23    2    1    2    0    0  0.52199124745E+02 -0.87564374125E+01 -0.74056482050E+02  0.12965744034E+03  0.92332364222E+02 0.  0.
        -11    1    3    3    0    0 -0.81311143861E+02 -0.29355449414E+02  0.28995775058E+03  0.30257022598E+03  0.00000000000E+00 0.  1.
         11    1    3    3    0    0  0.13856565009E+02  0.22346089538E+02  0.11549277642E+03  0.11844802031E+03  0.00000000000E+00 0. -1.
        -13    1    4    4    0    0  0.50248619820E+02 -0.45832743249E+02 -0.57265474534E+02  0.88909497362E+02  0.00000000000E+00 0.  1.
         13    1    4    4    0    0  0.19505049253E+01  0.37076305837E+02 -0.16791007516E+02  0.40747942983E+02  0.00000000000E+00 0. -1.
         21    1    1    2  502  501  0.15255454107E+02  0.15765797289E+02  0.96184170069E+02  0.98654365418E+02  0.00000000000E+00 0.  1.
<scales pt_clust_5="13000.00000" pt_clust_6="13000.00000" pt_clust_7="13000.00000" pt_clust_8="13000.00000" pt_clust_9="21.93831"></scales>
<clustering>
<clus scale="   21.938">  1  9  2 -1</clus>
<clus scale="   90.923">  5  6 -1 -1</clus>
<clus scale="   92.332">  7  8 -1 -1</clus>
<clus scale="  105.609">  1  5  2 -1</clus>
<clus scale="  106.825">  2  5  1 -1</clus>
</clustering>
</event>
<event>
 9    1  0.1612788E-005  0.1024905E+03  0.7546771E-02  0.1278906E+00
         -1   -1    0    0    0  501 -0.00000000000E+00  0.00000000000E+00  0.21460064348E+03  0.21460064348E+03  0.00000000000E+00 0.  1.
          1   -1    0    0  502    0  0.00000000000E+00 -0.00000000000E+00 -0.74853728743E+02  0.74853728743E+02  0.00000000000E+00 0. -1.
         23    2    1    2    0    0  0.44169264705E+02  0.11929616459E+02  0.90121198015E+02  0.13025330343E+03  0.82163574836E+02 0.  0.
         23    2    1    2    0    0 -0.50330118509E+02  0.91945379384E+01 -0.12030662771E+01  0.10381378505E+03  0.90322722731E+02 0.  0.
        -11    1    3    3    0    0  0.56034993676E+02 -0.19057677259E+02  0.69057327509E+02  0.90950701270E+02  0.00000000000E+00 0.  1.
         11    1    3    3    0    0 -0.11865728972E+02  0.30987293718E+02  0.21063870505E+02  0.39302602161E+02  0.00000000000E+00 0. -1.
        -11    1    4    4    0    0  0.44535702771E+01 -0.32699078687E+02 -0.95232566525E+01  0.34347582920E+02  0.00000000000E+00 0.  1.
         11    1    4    4    0    0 -0.54783688786E+02  0.41893616625E+02  0.83201903754E+01  0.69466202133E+02  0.00000000000E+00 0. -1.
         21    1    1    2  502  501  0.61608538044E+01 -0.21124154397E+02  0.50828782997E+02  0.55387283735E+02  0.00000000000E+00 0. -1.
<scales pt_clust_5="13000.00000" pt_clust_6="13000.00000" pt_clust_7="13000.00000" pt_clust_8="13000.00000" pt_clust_9="22.00423"></scales>
<clustering>
<clus scale="   22.004">  1  9  2 -1</clus>
<clus scale="   82.164">  5  6 -1 -1</clus>
<clus scale="   90.323">  7  8 -1 -1</clus>
<clus scale="   95.378">  1  5  2 -1</clus>
<clus scale="  102.490">  2  5  1 -1</clus>
</clustering>
</event>
<event>
 9    1  0.1612788E-005  0.9826355E+02  0.7546771E-02  0.1284615E+00
         -2   -1    0    0    0  501 -0.00000000000E+00  0.00000000000E+00  0.18879110374E+03  0.18879110374E+03  0.00000000000E+00 0.  1.
          2   -1    0    0  502    0  0.00000000000E+00 -0.00000000000E+00 -0.29918008036E+03  0.29918008036E+03  0.00000000000E+00 0. -1.
         23    2    1    2    0    0 -0.45553119446E+02  0.29531546179E+02  0.11139811339E+03  0.15403107974E+03  0.91481336607E+02 0.  0.
         23    2    1    2    0    0  0.13015571447E+02 -0.32784960640E+02 -0.26360918050E+03  0.28085183835E+03  0.90242430815E+02 0.  0.
        -11    1    3    3    0    0 -0.49118715863E+02  0.54259863643E+02  0.52557300004E+02  0.90105775810E+02  0.00000000000E+00 0.  1.
         11    1    3    3    0    0  0.35655964164E+01 -0.24728317464E+02  0.58840813386E+02  0.63925303928E+02  0.00000000000E+00 0. -1.
        -13    1    4    4    0    0  0.44921732907E+02 -0.42824610594E+02 -0.14762006973E+03  0.16013617439E+03  0.00000000000E+00 0. -1.
         13    1    4    4    0    0 -0.31906161461E+02  0.10039649954E+02 -0.11598911077E+03  0.12071566397E+03  0.00000000000E+00 0.  1.
         21    1    1    2  502  501  0.32537548000E+02  0.32534144609E+01  0.41822090480E+02  0.53088266007E+02  0.00000000000E+00 0. -1.
<scales pt_clust_5="13000.00000" pt_clust_6="13000.00000" pt_clust_7="13000.00000" pt_clust_8="13000.00000" pt_clust_9="32.69980"></scales>
<clustering>
<clus scale="   32.700">  1  9  2 -1</clus>
<clus scale="   90.242">  7  8 -1 -1</clus>
<clus scale="   91.481">  5  6 -1 -1</clus>
<clus scale="   97.111">  2  7  1 -1</clus>
<clus scale="   97.111">  2  5  1 -1</clus>
</clustering>
</event>
<event>
 9    1  0.1612788E-005  0.1182509E+03  0.7546771E-02  0.1246142E+00
          2   -1    0    0  502    0  0.00000000000E+00  0.00000000000E+00  0.15834271131E+03  0.15834271131E+03  0.00000000000E+00 0. -1.
         -2   -1    0    0    0  501 -0.00000000000E+00 -0.00000000000E+00 -0.30855458106E+03  0.30855458106E+03  0.00000000000E+00 0.  1.
         23    2    1    2    0    0  0.38825789356E+02 -0.80293515279E+00 -0.10682176747E+03  0.14546012072E+03  0.90772628538E+02 0.  0.
         23    2    1    2    0    0 -0.83513180861E+02 -0.98324802095E+01  0.10751453317E+03  0.16369597848E+03  0.90365200620E+02 0.  0.
        -11    1    3    3    0    0 -0.20539842575E+02  0.26151373860E+02 -0.31006463028E+02  0.45466253829E+02  0.00000000000E+00 0. -1.
         11    1    3    3    0    0  0.59365631931E+02 -0.26954309013E+02 -0.75815304442E+02  0.99993866895E+02  0.00000000000E+00 0.  1.
        -11    1    4    4    0    0 -0.98711921949E+02 -0.24830890996E+02  0.93013465805E+02  0.13788444983E+03  0.00000000000E+00 0. -1.
         11    1    4    4    0    0  0.15198741088E+02  0.14998410787E+02  0.14501067367E+02  0.25811528656E+02  0.00000000000E+00 0.  1.
         21    1    1    2  502  501  0.44687391505E+02  0.10635415362E+02 -0.15090463545E+03  0.15774119316E+03  0.00000000000E+00 0.  1.
<scales pt_clust_5="13000.00000" pt_clust_6="13000.00000" pt_clust_7="13000.00000" pt_clust_8="13000.00000" pt_clust_9="45.93555"></scales>
<clustering>
<clus scale="   45.936">  2  9  1 -1</clus>
<clus scale="   90.365">  7  8 -1 -1</clus>
<clus scale="   90.773">  5  6 -1 -1</clus>
<clus scale="  117.938">  1  7  2 -1</clus>
<clus scale="  117.938">  1  5  2 -1</clus>
</clustering>
</event>
<event>
 9    1  0.1612788E-005  0.9939574E+02  0.7546771E-02  0.1286160E+00
         -4   -1    0    0    0  501 -0.00000000000E+00  0.00000000000E+00  0.23084416372E+03  0.23084416372E+03  0.00000000000E+00 0.  1.
          4   -1    0    0  502    0  0.00000000000E+00 -0.00000000000E+00 -0.64789415800E+02  0.64789415800E+02  0.00000000000E+00 0. -1.
         23    2    1    2    0    0 -0.17032572969E+02  0.18222138785E+02  0.48104162769E+02  0.10786248841E+03  0.93263878577E+02 0.  0.
         23    2    1    2    0    0  0.38017376098E+02 -0.20524555718E+02  0.33251284795E+02  0.10048057291E+03  0.84404498215E+02 0.  0.
        -11    1    3    3    0    0  0.21132807636E+02  0.43471785886E+02  0.12624032651E+02  0.49957561260E+02  0.00000000000E+00 0.  1.
         11    1    3    3    0    0 -0.38165380605E+02 -0.25249647101E+02  0.35480130118E+02  0.57904927153E+02  0.00000000000E+00 0. -1.
        -11    1    4    4    0    0  0.50974593196E+02 -0.44353280107E+02  0.21364743826E+02  0.70866599230E+02  0.00000000000E+00 0.  1.
         11    1    4    4    0    0 -0.12957217098E+02  0.23828724389E+02  0.11886540969E+02  0.29613973680E+02  0.00000000000E+00 0. -1.
         21    1    1    2  502  501 -0.20984803130E+02  0.23024169328E+01  0.84699300361E+02  0.87290518201E+02  0.00000000000E+00 0. -1.
<scales pt_clust_5="13000.00000" pt_clust_6="13000.00000" pt_clust_7="13000.00000" pt_clust_8="13000.00000" pt_clust_9="21.11073"></scales>
<clustering>
<clus scale="   21.111">  1  9  2 -1</clus>
<clus scale="   84.404">  7  8 -1 -1</clus>
<clus scale="   91.134">  2  7  1 -1</clus>
<clus scale="   93.264">  5  6 -1 -1</clus>
<clus scale="   91.134">  2  5  1 -1</clus>
</clustering>
</event>
<event>
 9    1  0.1612788E-005  0.1154320E+03  0.7546771E-02  0.1251296E+00
          2   -1    0    0  502    0  0.00000000000E+00  0.00000000000E+00  0.21143547866E+03  0.21143547866E+03  0.00000000000E+00 0. -1.
         -2   -1    0    0    0  501 -0.00000000000E+00 -0.00000000000E+00 -0.20850265319E+03  0.20850265319E+03  0.00000000000E+00 0.  1.
         23    2    1    2    0    0 -0.27141125011E+02 -0.21038527903E+02 -0.23139233115E+02  0.10205852500E+03  0.93280534375E+02 0.  0.
         23    2    1    2    0    0  0.40658594613E+02  0.69899006318E+02  0.14429240970E+03  0.18924788543E+03  0.91953630930E+02 0.  0.
        -11    1    4    4    0    0  0.67807187986E+02  0.38508380800E+02  0.73339582051E+02  0.10704860779E+03  0.00000000000E+00 0. -1.
         11    1    4    4    0    0 -0.27148593373E+02  0.31390625518E+02  0.70952827652E+02  0.82199277639E+02  0.00000000000E+00 0.  1.
        -13    1    3    3    0    0 -0.95711130368E+01 -0.52137741361E+02  0.92867698786E+01  0.53816302119E+02  0.00000000000E+00 0.  1.
         13    1    3    3    0    0 -0.17570011974E+02  0.31099213459E+02 -0.32426002993E+02  0.48242222882E+02  0.00000000000E+00 0. -1.
         21    1    1    2  502  501 -0.13517469602E+02 -0.48860478415E+02 -0.11822035112E+03  0.12863172141E+03  0.00000000000E+00 0.  1.
<scales pt_clust_5="13000.00000" pt_clust_6="13000.00000" pt_clust_7="13000.00000" pt_clust_8="13000.00000" pt_clust_9="50.69584"></scales>
<clustering>
<clus scale="   50.696">  2  9  1 -1</clus>
<clus scale="   91.954">  5  6 -1 -1</clus>
<clus scale="   93.281">  7  8 -1 -1</clus>
<clus scale="  114.362">  1  5  2 -1</clus>
<clus scale="  114.362">  1  5  2 -1</clus>
</clustering>
</event>
<event>
 9    1  0.1612788E-005  0.9437879E+02  0.7546771E-02  0.1293188E+00
          2   -1    0    0  502    0  0.00000000000E+00  0.00000000000E+00  0.98474820518E+02  0.98474820518E+02  0.00000000000E+00 0. -1.
         -2   -1    0    0    0  501 -0.00000000000E+00 -0.00000000000E+00 -0.19390913990E+03  0.19390913990E+03  0.00000000000E+00 0.  1.
         23    2    1    2    0    0  0.34960496469E+02  0.27246315578E+00 -0.54184664282E+02  0.11198037173E+03  0.91549523537E+02 0.  0.
         23    2    1    2    0    0  0.22347966241E+01 -0.30200739810E+02  0.25125085612E+02  0.98642976067E+02  0.90454893729E+02 0.  0.
        -11    1    3    3    0    0  0.49978912409E+02 -0.32817870304E+02 -0.44017530639E+02  0.74245857127E+02  0.00000000000E+00 0.  1.
         11    1    3    3    0    0 -0.15018415940E+02  0.33090333460E+02 -0.10167133643E+02  0.37734514603E+02  0.00000000000E+00 0. -1.
        -13    1    4    4    0    0 -0.43267678106E+02 -0.69189027222E+01  0.67860145942E+01  0.44339747153E+02  0.00000000000E+00 0. -1.
         13    1    4    4    0    0  0.45502474730E+02 -0.23281837087E+02  0.18339071018E+02  0.54303228914E+02  0.00000000000E+00 0.  1.
         21    1    1    2  502  501 -0.37195293093E+02  0.29928276654E+02 -0.66374740715E+02  0.81760612625E+02  0.00000000000E+00 0. -1.
<scales pt_clust_5="13000.00000" pt_clust_6="13000.00000" pt_clust_7="13000.00000" pt_clust_8="13000.00000" pt_clust_9="47.74088"></scales>
<clustering>
<clus scale="   47.741">  2  9  1 -1</clus>
<clus scale="   90.455">  7  8 -1 -1</clus>
<clus scale="   91.550">  5  6 -1 -1</clus>
<clus scale="   93.317">  1  7  2 -1</clus>
<clus scale="   93.317">  1  5  2 -1</clus>
</clustering>
</event>
<event>
 9    1  0.1612788E-005  0.1393109E+03  0.7546771E-02  0.1215387E+00
          1   -1    0    0  502    0  0.00000000000E+00  0.00000000000E+00  0.12091419781E+03  0.12091419781E+03  0.00000000000E+00 0. -1.
         -1   -1    0    0    0  501 -0.00000000000E+00 -0.00000000000E+00 -0.40279851035E+03  0.40279851035E+03  0.00000000000E+00 0.  1.
         23    2    1    2    0    0  0.11337237038E+03 -0.62657319752E+02 -0.22444929145E+03  0.27497461087E+03  0.91947365953E+02 0.  0.
         23    2    1    2    0    0 -0.56742244697E+02  0.84610392842E+02  0.34761427185E+02  0.13833386899E+03  0.86886716930E+02 0.  0.
        -11    1    3    3    0    0  0.57443488566E+02 -0.58058801528E+02 -0.19540379003E+03  0.21178578793E+03  0.00000000000E+00 0.  1.
         11    1    3    3    0    0  0.55928881814E+02 -0.45985182243E+01 -0.29045501419E+02  0.63188822932E+02  0.00000000000E+00 0. -1.
        -13    1    4    4    0    0 -0.27001108896E+02 -0.62728422620E+01 -0.13931946905E+02  0.31024306217E+02  0.00000000000E+00 0.  1.
         13    1    4    4    0    0 -0.29741135801E+02  0.90883235104E+02  0.48693374090E+02  0.10730956277E+03  0.00000000000E+00 0. -1.
         21    1    1    2  502  501 -0.56630125683E+02 -0.21953073090E+02 -0.92196448281E+02  0.11040422831E+03  0.00000000000E+00 0.  1.
<scales pt_clust_5="13000.00000" pt_clust_6="13000.00000" pt_clust_7="13000.00000" pt_clust_8="13000.00000" pt_clust_9="60.73639"></scales>
<clustering>
<clus scale="   60.736">  2  9  1 -1</clus>
<clus scale="   86.887">  7  8 -1 -1</clus>
<clus scale="   91.947">  5  6 -1 -1</clus>
<clus scale="  136.024">  1  7  2 -1</clus>
<clus scale="  136.024">  1  5  2 -1</clus>
</clustering>
</event>
<event>
 9    1  0.1612788E-005  0.9510231E+02  0.7546771E-02  0.1292731E+00
          1   -1    0    0  502    0  0.00000000000E+00  0.00000000000E+00  0.40652739838E+02  0.40652739838E+02  0.00000000000E+00 0. -1.
         -1   -1    0    0    0  501 -0.00000000000E+00 -0.00000000000E+00 -0.31317398385E+03  0.31317398385E+03  0.00000000000E+00 0.  1.
         23    2    1    2    0    0  0.11599717104E+02 -0.33576965156E+01 -0.15168447811E+03  0.17795925980E+03  0.92279410948E+02 0.  0.
         23    2    1    2    0    0 -0.14936048457E+02  0.26410816141E+02 -0.62243503872E+02  0.11281393277E+03  0.89062410144E+02 0.  0.
        -11    1    3    3    0    0 -0.10771810030E+02 -0.30529870201E+02 -0.13014845516E+02  0.34892564675E+02  0.00000000000E+00 0.  1.
         11    1    3    3    0    0  0.22371527134E+02  0.27172173685E+02 -0.13866963260E+03  0.14306669512E+03  0.00000000000E+00 0. -1.
        -13    1    4    4    0    0 -0.40503363276E+02  0.27903445943E+02 -0.70449937363E+02  0.85920419031E+02  0.00000000000E+00 0.  1.
         13    1    4    4    0    0  0.25567314818E+02 -0.14926298019E+01  0.82064334901E+01  0.26893513742E+02  0.00000000000E+00 0. -1.
         21    1    1    2  502  501  0.33363313535E+01 -0.23053119626E+02 -0.58593262032E+02  0.63053531122E+02  0.00000000000E+00 0.  1.
<scales pt_clust_5="13000.00000" pt_clust_6="13000.00000" pt_clust_7="13000.00000" pt_clust_8="13000.00000" pt_clust_9="23.29329"></scales>
<clustering>
<clus scale="   23.293">  2  9  1 -1</clus>
<clus scale="   89.062">  7  8 -1 -1</clus>
<clus scale="   91.984">  1  7  2 -1</clus>
<clus scale="   92.279">  5  6 -1 -1</clus>
<clus scale="   91.984">  1  5  2 -1</clus>
</clustering>
</event>
<event>
 9    1  0.1612788E-005  0.9618974E+02  0.7546771E-02  0.1290447E+00
          1   -1    0    0  502    0  0.00000000000E+00  0.00000000000E+00  0.50112352232E+03  0.50112352232E+03  0.00000000000E+00 0. -1.
         -1   -1    0    0    0  501 -0.00000000000E+00 -0.00000000000E+00 -0.51565147979E+02  0.51565147979E+02  0.00000000000E+00 0.  1.
         23    2    1    2    0    0 -0.17159651665E+02  0.15079966276E+02  0.13160069450E+03  0.16189838976E+03  0.91490364441E+02 0.  0.
         23    2    1    2    0    0 -0.14188522880E+02 -0.14565804691E+02  0.33926163843E+03  0.35288472605E+03  0.94951006942E+02 0.  0.
        -11    1    3    3    0    0  0.13165186568E+02  0.19650141963E+02  0.12896721697E+03  0.13111824156E+03  0.00000000000E+00 0. -1.
         11    1    3    3    0    0 -0.30324838233E+02 -0.45701756866E+01  0.26334775375E+01  0.30780148206E+02  0.00000000000E+00 0.  1.
        -13    1    4    4    0    0 -0.13982601977E+02 -0.51719587046E+02  0.25839840068E+03  0.26389422562E+03  0.00000000000E+00 0.  1.
         13    1    4    4    0    0 -0.20592090380E+00  0.37153782355E+02  0.80863237754E+02  0.88990500429E+02  0.00000000000E+00 0. -1.
         21    1    1    2  502  501  0.31348174545E+02 -0.51416158572E+00 -0.21303958593E+02  0.37905554490E+02  0.00000000000E+00 0.  1.
<scales pt_clust_5="13000.00000" pt_clust_6="13000.00000" pt_clust_7="13000.00000" pt_clust_8="13000.00000" pt_clust_9="31.35239"></scales>
<clustering>
<clus scale="   31.352">  2  9  1 -1</clus>
<clus scale="   91.490">  5  6 -1 -1</clus>
<clus scale="   92.775">  2  5  1 -1</clus>
<clus scale="   94.951">  7  8 -1 -1</clus>
<clus scale="   96.190">  1  5  2 -1</clus>
</clustering>
</event>
<event>
 9    1  0.1612788E-005  0.9590164E+02  0.7546771E-02  0.1289346E+00
          1   -1    0    0  502    0  0.00000000000E+00  0.00000000000E+00  0.82213486767E+03  0.82213486767E+03  0.00000000000E+00 0. -1.
         -1   -1    0    0    0  501 -0.00000000000E+00 -0.00000000000E+00 -0.18055257604E+02  0.18055257604E+02  0.00000000000E+00 0.  1.
         23    2    1    2    0    0 -0.49298217139E+02 -0.34258192585E+02  0.35219760758E+03  0.36820966514E+03  0.89057648434E+02 0.  0.
         23    2    1    2    0    0  0.13088830353E+02  0.12933084841E+02  0.35505757095E+03  0.36643023298E+03  0.88694164315E+02 0.  0.
        -13    1    4    4    0    0  0.29445148912E+02  0.45438867649E+02  0.21819288816E+03  0.22481068465E+03  0.00000000000E+00 0.  1.
         13    1    4    4    0    0 -0.16356318560E+02 -0.32505782807E+02  0.13686468279E+03  0.14161954833E+03  0.00000000000E+00 0. -1.
        -13    1    3    3    0    0  0.17086070337E+02  0.10506859729E+02  0.29127839643E+02  0.35366070508E+02  0.00000000000E+00 0.  1.
         13    1    3    3    0    0 -0.66384287475E+02 -0.44765052314E+02  0.32306976794E+03  0.33284359463E+03  0.00000000000E+00 0. -1.
         21    1    1    2  502  501  0.36209386786E+02  0.21325107743E+02  0.96824431524E+02  0.10555022715E+03  0.00000000000E+00 0.  1.
<scales pt_clust_5="13000.00000" pt_clust_6="13000.00000" pt_clust_7="13000.00000" pt_clust_8="13000.00000" pt_clust_9="42.02237"></scales>
<clustering>
<clus scale="   42.022">  2  9  1 -1</clus>
<clus scale="   88.694">  5  6 -1 -1</clus>
<clus scale="   89.058">  7  8 -1 -1</clus>
<clus scale="   95.564">  1  5  2 -1</clus>
<clus scale="   95.564">  1  5  2 -1</clus>
</clustering>
</event>
<event>
 9    1  0.1612788E-005  0.1100129E+03  0.7546771E-02  0.1261705E+00
         -1   -1    0    0    0  501 -0.00000000000E+00  0.00000000000E+00  0.29608114918E+03  0.29608114918E+03  0.00000000000E+00 0.  1.
          1   -1    0    0  502    0  0.00000000000E+00 -0.00000000000E+00 -0.19031576314E+03  0.19031576314E+03  0.00000000000E+00 0. -1.
         23    2    1    2    0    0  0.51493757750E+02 -0.86811058334E+02 -0.53967819831E+02  0.14449221345E+03  0.88191310423E+02 0.  0.
         23    2    1    2    0    0  0.40988198840E+02  0.40820163785E+02 -0.41516769218E+02  0.11569765400E+03  0.91192032541E+02 0.  0.
        -11    1    3    3    0    0 -0.17281566302E+02 -0.28306130741E+02  0.90565106475E+01  0.34378917325E+02  0.00000000000E+00 0.  1.
         11    1    3    3    0    0  0.68775324052E+02 -0.58504927593E+02 -0.63024330479E+02  0.11011329612E+03  0.00000000000E+00 0. -1.
        -13    1    4    4    0    0  0.53083317396E+02  0.63164412315E+02 -0.33571478038E+02  0.89076516021E+02  0.00000000000E+00 0. -1.
         13    1    4    4    0    0 -0.12095118556E+02 -0.22344248530E+02 -0.79452911796E+01  0.26621137977E+02  0.00000000000E+00 0.  1.
         21    1    1    2  502  501 -0.92481956590E+02  0.45990894550E+02  0.20124997509E+03  0.22620704487E+03  0.00000000000E+00 0.  1.
<scales pt_clust_5="13000.00000" pt_clust_6="13000.00000" pt_clust_7="13000.00000" pt_clust_8="13000.00000" pt_clust_9="103.28637"></scales>
<clustering>
<clus scale="   88.191">  5  6 -1 -1</clus>
<clus scale="   91.192">  7  8 -1 -1</clus>
<clus scale="  103.286">  1  9  2 -1</clus>
<clus scale="  107.539">  1  5  2 -1</clus>
<clus scale="  110.013">  2  5  1 -1</clus>
</clustering>
</event>
<event>
 9    1  0.1612788E-005  0.9083784E+02  0.7546771E-02  0.1301014E+00
         -1   -1    0    0    0  501 -0.00000000000E+00  0.00000000000E+00  0.30574948183E+02  0.30574948183E+02  0.00000000000E+00 0.  1.
          1   -1    0    0  502    0  0.00000000000E+00 -0.00000000000E+00 -0.42763827405E+03  0.42763827405E+03  0.00000000000E+00 0. -1.
         23    2    1    2    0    0 -0.24809886355E+02  0.17754581652E+02 -0.13280661008E+03  0.16329320609E+03  0.89979552366E+02 0.  0.
         23    2    1    2    0    0 -0.69940973706E+01  0.67556897566E+01 -0.16952057071E+03  0.19202597371E+03  0.89678280205E+02 0.  0.
        -11    1    3    3    0    0  0.27492200969E+02  0.16960331756E+01 -0.89120185882E+02  0.93279714699E+02  0.00000000000E+00 0. -1.
         11    1    3    3    0    0 -0.52302087324E+02  0.16058548476E+02 -0.43686424194E+02  0.70013491389E+02  0.00000000000E+00 0.  1.
        -13    1    4    4    0    0 -0.33075046717E+02 -0.30120218105E+02 -0.92210895599E+02  0.10248919710E+03  0.00000000000E+00 0.  1.
         13    1    4    4    0    0  0.26080949347E+02  0.36875907862E+02 -0.77309675115E+02  0.89536776611E+02  0.00000000000E+00 0. -1.
         21    1    1    2  502  501  0.31803983725E+02 -0.24510271409E+02 -0.94736145075E+02  0.10289404244E+03  0.00000000000E+00 0.  1.
<scales pt_clust_5="13000.00000" pt_clust_6="13000.00000" pt_clust_7="13000.00000" pt_clust_8="13000.00000" pt_clust_9="40.15279"></scales>
<clustering>
<clus scale="   40.153">  2  9  1 -1</clus>
<clus scale="   89.678">  7  8 -1 -1</clus>
<clus scale="   89.980">  5  6 -1 -1</clus>
<clus scale="   90.539">  2  7  1 -1</clus>
<clus scale="   40.153">  2  5  1 -1</clus>
</clustering>
</event>
<event>
 9    1  0.1612788E-005  0.9640860E+02  0.7546771E-02  0.1290165E+00
         -2   -1    0    0    0  501 -0.00000000000E+00  0.00000000000E+00  0.13160491625E+02  0.13160491625E+02  0.00000000000E+00 0.  1.
          2   -1    0    0  502    0  0.00000000000E+00 -0.00000000000E+00 -0.96661390200E+03  0.96661390200E+03  0.00000000000E+00 0. -1.
         23    2    1    2    0    0 -0.18439955773E+02  0.33900941569E+02 -0.36062263510E+03  0.37326259499E+03  0.88243832989E+02 0.  0.
         23    2    1    2    0    0  0.23996901925E+02 -0.69151405150E+01 -0.51879071344E+03  0.52751152101E+03  0.92200487940E+02 0.  0.
        -11    1    3    3    0    0  0.25466789920E+02 -0.12787530821E+02 -0.68485215082E+02  0.74177510191E+02  0.00000000000E+00 0. -1.
         11    1    3    3    0    0 -0.43906745693E+02  0.46688472390E+02 -0.29213742002E+03  0.29908508480E+03  0.00000000000E+00 0.  1.
        -11    1    4    4    0    0 -0.34508675087E+02 -0.12542363368E+02 -0.20593537697E+03  0.20918302757E+03  0.00000000000E+00 0.  1.
         11    1    4    4    0    0  0.58505577013E+02  0.56272228534E+01 -0.31285533647E+03  0.31832849344E+03  0.00000000000E+00 0. -1.
         21    1    1    2  502  501 -0.55569461523E+01 -0.26985801054E+02 -0.74040061836E+02  0.79000277630E+02  0.00000000000E+00 0. -1.
<scales pt_clust_5="13000.00000" pt_clust_6="13000.00000" pt_clust_7="13000.00000" pt_clust_8="13000.00000" pt_clust_9="27.55201"></scales>
<clustering>
<clus scale="   27.552">  1  9  2 -1</clus>
<clus scale="   88.244">  5  6 -1 -1</clus>
<clus scale="   92.200">  7  8 -1 -1</clus>
<clus scale="   92.632">  1  5  2 -1</clus>
<clus scale="   96.409">  2  5  1 -1</clus>
</clustering>
</event>
<event>
 9    1  0.1612788E-005  0.1665397E+03  0.7546771E-02  0.1182067E+00
         -1   -1    0    0    0  501 -0.00000000000E+00  0.00000000000E+00  0.46392895568E+02  0.46392895568E+02  0.00000000000E+00 0.  1.
          1   -1    0    0  502    0  0.00000000000E+00 -0.00000000000E+00 -0.12041914689E+04  0.12041914689E+04  0.00000000000E+00 0. -1.
         23    2    1    2    0    0 -0.17038860591E+03 -0.10817154741E+03 -0.60440028913E+03  0.64402084617E+03  0.93433292269E+02 0.  0.
         23    2    1    2    0    0  0.78376939587E+02  0.65588043603E+02 -0.40185651133E+03  0.42423302041E+03  0.89667518010E+02 0.  0.
        -11    1    3    3    0    0 -0.55163726472E+02 -0.87485369888E+02 -0.24177894078E+03  0.26297106850E+03  0.00000000000E+00 0.  1.
         11    1    3    3    0    0 -0.11522487944E+03 -0.20686177524E+02 -0.36262134835E+03  0.38104977767E+03  0.00000000000E+00 0. -1.
        -13    1    4    4    0    0  0.65978212752E+02  0.14601761207E+01 -0.25689521058E+03  0.26523650935E+03  0.00000000000E+00 0.  1.
         13    1    4    4    0    0  0.12398726835E+02  0.64127867482E+02 -0.14496130074E+03  0.15899651106E+03  0.00000000000E+00 0. -1.
         21    1    1    2  502  501  0.92011666321E+02  0.42583503810E+02 -0.15154177288E+03  0.18233049790E+03  0.00000000000E+00 0.  1.
<scales pt_clust_5="13000.00000" pt_clust_6="13000.00000" pt_clust_7="13000.00000" pt_clust_8="13000.00000" pt_clust_9="101.38788"></scales>
<clustering>
<clus scale="   89.668">  7  8 -1 -1</clus>
<clus scale="   93.433">  5  6 -1 -1</clus>
<clus scale="  101.388">  1  9  2 -1</clus>
<clus scale="  164.457">  2  7  1 -1</clus>
<clus scale="  164.457">  2  5  1 -1</clus>
</clustering>
</event>
<event>
 9    1  0.1612788E-005  0.1770823E+03  0.7546771E-02  0.1190136E+00
         -1   -1    0    0    0  501 -0.00000000000E+00  0.00000000000E+00  0.22243703850E+03  0.22243703850E+03  0.00000000000E+00 0.  1.
          1   -1    0    0  502    0  0.00000000000E+00 -0.00000000000E+00 -0.53645944623E+03  0.53645944623E+03  0.00000000000E+00 0. -1.
         23    2    1    2    0    0  0.21144743305E+03  0.30116449549E+02 -0.37042411959E+03  0.43707844820E+03  0.90589867144E+02 0.  0.
         23    2    1    2    0    0 -0.64920352851E+02 -0.19321393352E+02 -0.64750328467E+02  0.13138554102E+03  0.92095531369E+02 0.  0.
        -11    1    3    3    0    0  0.21846321753E+02  0.18305031125E+02 -0.11020793007E+02  0.30558040139E+02  0.00000000000E+00 0.  1.
         11    1    3    3    0    0  0.18960111130E+03  0.11811418424E+02 -0.35940332658E+03  0.40652040806E+03  0.00000000000E+00 0. -1.
        -11    1    4    4    0    0 -0.65904670953E+02  0.13364145095E+02 -0.71329156151E+02  0.98029967585E+02  0.00000000000E+00 0.  1.
         11    1    4    4    0    0  0.98431810116E+00 -0.32685538448E+02  0.65788276841E+01  0.33355573439E+02  0.00000000000E+00 0. -1.
         21    1    1    2  502  501 -0.14652708020E+03 -0.10795056197E+02  0.12115204033E+03  0.19043249551E+03  0.00000000000E+00 0.  1.
<scales pt_clust_5="13000.00000" pt_clust_6="13000.00000" pt_clust_7="13000.00000" pt_clust_8="13000.00000" pt_clust_9="152.15660"></scales>
<clustering>
<clus scale="   90.590">  5  6 -1 -1</clus>
<clus scale="   92.096">  7  8 -1 -1</clus>
<clus scale="  114.322">  2  7  1 -1</clus>
<clus scale="  152.157">  1  9  2 -1</clus>
<clus scale="  114.322">  2  5  1 -1</clus>
</clustering>
</event>
<event>
 9    1  0.7643712E-005  0.9564364E+02  0.7546771E-02  0.1290822E+00
         -1   -1    0    0    0  501 -0.00000000000E+00  0.00000000000E+00  0.17320285210E+03  0.17320285210E+03  0.00000000000E+00 0.  1.
          1   -1    0    0  502    0  0.00000000000E+00 -0.00000000000E+00 -0.37932197367E+03  0.37932197367E+03  0.00000000000E+00 0. -1.
         23    2    1    2    0    0  0.22247757228E+02 -0.17287618746E+01  0.13290829537E+03  0.16181554752E+03  0.89563972226E+02 0.  0.
         23    2    1    2    0    0 -0.11173194780E+02  0.26018401127E+02 -0.34921750657E+03  0.36213533146E+03  0.91582388702E+02 0.  0.
        -11    1    3    3    0    0  0.21998250778E+02  0.42358359236E+02  0.77332170300E+02  0.90875839462E+02  0.00000000000E+00 0. -1.
         11    1    3    3    0    0  0.24950644905E+00 -0.44087121110E+02  0.55576125071E+02  0.70939708057E+02  0.00000000000E+00 0.  1.
        -13    1    4    4    0    0 -0.22027690791E+02  0.54558682194E+02 -0.28523370659E+03  0.29123896776E+03  0.00000000000E+00 0. -1.
         13    1    4    4    0    0  0.10854496011E+02 -0.28540281067E+02 -0.63983799973E+02  0.70896363701E+02  0.00000000000E+00 0.  1.
         21    1    1    2  502  501 -0.11074562447E+02 -0.24289639253E+02  0.10190089629E+02  0.28573946788E+02  0.00000000000E+00 0.  1.
<scales pt_clust_5="13000.00000" pt_clust_6="13000.00000" pt_clust_7="13000.00000" pt_clust_8="13000.00000" pt_clust_9="26.69518"></scales>
<clustering>
<clus scale="   26.695">  1  9  2 -1</clus>
<clus scale="   89.564">  5  6 -1 -1</clus>
<clus scale="   91.582">  7  8 -1 -1</clus>
<clus scale="   93.713">  1  5  2 -1</clus>
<clus scale="   95.644">  2  5  1 -1</clus>
</clustering>
</event>
<event>
 9    1  0.1612788E-005  0.1140637E+03  0.7546771E-02  0.1259942E+00
          1   -1    0    0  502    0  0.00000000000E+00  0.00000000000E+00  0.40248608218E+02  0.40248608218E+02  0.00000000000E+00 0. -1.
         -1   -1    0    0    0  501 -0.00000000000E+00 -0.00000000000E+00 -0.74862007238E+03  0.74862007238E+03  0.00000000000E+00 0.  1.
         23    2    1    2    0    0 -0.17663056442E+02  0.19654449757E+02 -0.29209862647E+03  0.31206303054E+03  0.10659946757E+03 0.  0.
         23    2    1    2    0    0 -0.72786951605E+02  0.31855746699E+02 -0.16322312823E+03  0.20318426976E+03  0.91265157474E+02 0.  0.
        -11    1    3    3    0    0 -0.16363003550E+00  0.49638130210E+02 -0.26027931019E+03  0.26497035694E+03  0.00000000000E+00 0.  1.
         11    1    3    3    0    0 -0.17499426406E+02 -0.29983680453E+02 -0.31819316280E+02  0.47092673598E+02  0.00000000000E+00 0. -1.
        -13    1    4    4    0    0 -0.23522826308E+02 -0.29621974168E+02 -0.80530458428E+02  0.88971565377E+02  0.00000000000E+00 0. -1.
         13    1    4    4    0    0 -0.49264125297E+02  0.61477720867E+02 -0.82692669799E+02  0.11421270438E+03  0.00000000000E+00 0.  1.
         21    1    1    2  502  501  0.90450008047E+02 -0.51510196456E+02 -0.25304970946E+03  0.27362138029E+03  0.00000000000E+00 0. -1.
<scales pt_clust_5="13000.00000" pt_clust_6="13000.00000" pt_clust_7="13000.00000" pt_clust_8="13000.00000" pt_clust_9="104.08892"></scales>
<clustering>
<clus scale="   91.265">  7  8 -1 -1</clus>
<clus scale="  104.089">  2  9  1 -1</clus>
<clus scale="   99.882">  1  7  2 -1</clus>
<clus scale="  106.599">  5  6 -1 -1</clus>
<clus scale="   99.882">  1  5  2 -1</clus>
</clustering>
</event>
<event>
 9    1  0.1612788E-005  0.1216030E+03  0.7546771E-02  0.1240648E+00
         -2   -1    0    0    0  501 -0.00000000000E+00  0.00000000000E+00  0.30806389247E+03  0.30806389247E+03  0.00000000000E+00 0.  1.
          2   -1    0    0  502    0  0.00000000000E+00 -0.00000000000E+00 -0.12586802857E+03  0.12586802857E+03  0.00000000000E+00 0. -1.
         23    2    1    2    0    0  0.71515160923E+02  0.35327627978E+02  0.23090843645E+03  0.26071078148E+03  0.91043648960E+02 0.  0.
         23    2    1    2    0    0 -0.86713064270E+02 -0.60512421086E+01 -0.57978188003E+02  0.13895840959E+03  0.91608931140E+02 0.  0.
        -13    1    3    3    0    0  0.45299942007E+02  0.59054160850E+02  0.20121327782E+03  0.21453732037E+03  0.00000000000E+00 0.  1.
         13    1    3    3    0    0  0.26215218916E+02 -0.23726532873E+02  0.29695158628E+02  0.46173461111E+02  0.00000000000E+00 0. -1.
        -13    1    4    4    0    0 -0.56579505279E+02  0.41306794350E+02 -0.29439375679E+02  0.75987949818E+02  0.00000000000E+00 0.  1.
         13    1    4    4    0    0 -0.30133558991E+02 -0.47358036459E+02 -0.28538812324E+02  0.62970459769E+02  0.00000000000E+00 0. -1.
         21    1    1    2  502  501  0.15197903347E+02 -0.29276385869E+02  0.92656154528E+01  0.34262729976E+02  0.00000000000E+00 0.  1.
<scales pt_clust_5="13000.00000" pt_clust_6="13000.00000" pt_clust_7="13000.00000" pt_clust_8="13000.00000" pt_clust_9="32.98610"></scales>
<clustering>
<clus scale="   32.986">  2  9  1 -1</clus>
<clus scale="   91.044">  5  6 -1 -1</clus>
<clus scale="   91.609">  7  8 -1 -1</clus>
<clus scale="  121.178">  1  5  2 -1</clus>
<clus scale="   32.986">  2  5  1 -1</clus>
</clustering>
</event>
<event>
 9    1  0.1612788E-005  0.1078679E+03  0.7546771E-02  0.1265871E+00
          2   -1    0    0  502    0  0.00000000000E+00  0.00000000000E+00  0.11664104840E+03  0.11664104840E+03  0.00000000000E+00 0. -1.
         -2   -1    0    0    0  501 -0.00000000000E+00 -0.00000000000E+00 -0.20910155629E+03  0.20910155629E+03  0.00000000000E+00 0.  1.
         23    2    1    2    0    0 -0.25651574590E+02  0.31904780790E+02 -0.13419974969E+03  0.16767084464E+03  0.91804253757E+02 0.  0.
         23    2    1    2    0    0  0.16542920732E+02 -0.51327939981E+02  0.64516296952E+02  0.12678244991E+03  0.94885253775E+02 0.  0.
        -11    1    4    4    0    0  0.47015218560E+02 -0.36517286734E+02  0.68824391723E+01  0.59927547719E+02  0.00000000000E+00 0.  1.
         11    1    4    4    0    0 -0.30472297828E+02 -0.14810653246E+02  0.57633857780E+02  0.66854902192E+02  0.00000000000E+00 0. -1.
        -13    1    3    3    0    0  0.31466640982E+02  0.24829809934E+02 -0.75393427349E+02  0.85386403154E+02  0.00000000000E+00 0.  1.
         13    1    3    3    0    0 -0.57118215573E+02  0.70749708568E+01 -0.58806322341E+02  0.82284441482E+02  0.00000000000E+00 0. -1.
         21    1    1    2  502  501  0.91086538581E+01  0.19423159190E+02 -0.22777055148E+02  0.31289310144E+02  0.00000000000E+00 0.  1.
<scales pt_clust_5="13000.00000" pt_clust_6="13000.00000" pt_clust_7="13000.00000" pt_clust_8="13000.00000" pt_clust_9="21.45289"></scales>
<clustering>
<clus scale="   21.453">  2  9  1 -1</clus>
<clus scale="   91.804">  7  8 -1 -1</clus>
<clus scale="   94.885">  5  6 -1 -1</clus>
<clus scale="  105.168">  2  7  1 -1</clus>
<clus scale="  107.868">  1  5  2 -1</clus>
</clustering>
</event>
<event>
 9    1  0.1612788E-005  0.1166785E+03  0.7546771E-02  0.1248821E+00
         -1   -1    0    0    0  501 -0.00000000000E+00  0.00000000000E+00  0.14121147370E+03  0.14121147370E+03  0.00000000000E+00 0.  1.
          1   -1    0    0  502    0  0.00000000000E+00 -0.00000000000E+00 -0.19950350451E+03  0.19950350451E+03  0.00000000000E+00 0. -1.
         23    2    1    2    0    0  0.12217005630E+02 -0.43312778582E+02  0.71703737024E+02  0.12442303351E+03  0.91183405014E+02 0.  0.
         23    2    1    2    0    0  0.92892568816E+00  0.79934355878E+02 -0.12975558651E+03  0.17738162317E+03  0.90759924292E+02 0.  0.
        -11    1    3    3    0    0 -0.10432484828E+02 -0.32691727454E+02  0.88076427520E+02  0.94525355690E+02  0.00000000000E+00 0.  1.
         11    1    3    3    0    0  0.22649490457E+02 -0.10621051128E+02 -0.16372690496E+02  0.29897677821E+02  0.00000000000E+00 0. -1.
        -13    1    4    4    0    0 -0.28252049441E+02  0.52796129587E+02 -0.24255073013E+02  0.64605867874E+02  0.00000000000E+00 0.  1.
         13    1    4    4    0    0  0.29180975130E+02  0.27138226291E+02 -0.10550051349E+03  0.11277575530E+03  0.00000000000E+00 0. -1.
         21    1    1    2  502  501 -0.13145931318E+02 -0.36621577296E+02 -0.24018132438E+00  0.38910321522E+02  0.00000000000E+00 0.  1.
<scales pt_clust_5="13000.00000" pt_clust_6="13000.00000" pt_clust_7="13000.00000" pt_clust_8="13000.00000" pt_clust_9="38.90958"></scales>
<clustering>
<clus scale="   38.910">  1  9  2 -1</clus>
<clus scale="   90.760">  7  8 -1 -1</clus>
<clus scale="   91.183">  5  6 -1 -1</clus>
<clus scale="  116.348">  2  7  1 -1</clus>
<clus scale="  116.348">  2  5  1 -1</clus>
</clustering>
</event>
<event>
 9    1  0.1612788E-005  0.1097130E+03  0.7546771E-02  0.1261339E+00
          1   -1    0    0  502    0  0.00000000000E+00  0.00000000000E+00  0.11316921570E+03  0.11316921570E+03  0.00000000000E+00 0. -1.
         -1   -1    0    0    0  501 -0.00000000000E+00 -0.00000000000E+00 -0.20729806188E+03  0.20729806188E+03  0.00000000000E+00 0.  1.
         23    2    1    2    0    0  0.30195381655E+02 -0.40546855405E+01 -0.49663754908E+02  0.10846154737E+03  0.91483425589E+02 0.  0.
         23    2    1    2    0    0 -0.78353992552E+02 -0.15627449025E+02  0.26639853019E+02  0.12390038800E+03  0.90873863490E+02 0.  0.
        -11    1    3    3    0    0  0.30522991785E+02 -0.42824312236E+02 -0.11039944723E+02  0.53735045599E+02  0.00000000000E+00 0.  1.
         11    1    3    3    0    0 -0.32761013067E+00  0.38769626695E+02 -0.38623810185E+02  0.54726501768E+02  0.00000000000E+00 0. -1.
        -13    1    4    4    0    0 -0.23754695436E+02  0.31374468982E+02 -0.13283820066E+02  0.41534356077E+02  0.00000000000E+00 0.  1.
         13    1    4    4    0    0 -0.54599297116E+02 -0.47001918008E+02  0.39923673085E+02  0.82366031922E+02  0.00000000000E+00 0. -1.
         21    1    1    2  502  501  0.48158610897E+02  0.19682134566E+02 -0.71104944286E+02  0.88105342214E+02  0.00000000000E+00 0.  1.
<scales pt_clust_5="13000.00000" pt_clust_6="13000.00000" pt_clust_7="13000.00000" pt_clust_8="13000.00000" pt_clust_9="52.02536"></scales>
<clustering>
<clus scale="   52.025">  2  9  1 -1</clus>
<clus scale="   90.874">  7  8 -1 -1</clus>
<clus scale="   91.483">  5  6 -1 -1</clus>
<clus scale="  109.205">  1  7  2 -1</clus>
<clus scale="  109.205">  1  5  2 -1</clus>
</clustering>
</event>
<event>
 9    1  0.1612788E-005  0.9948624E+02  0.7546771E-02  0.1284023E+00
         -2   -1    0    0    0  501 -0.00000000000E+00  0.00000000000E+00  0.27737371179E+02  0.27737371179E+02  0.00000000000E+00 0.  1.
          2   -1    0    0  502    0  0.00000000000E+00 -0.00000000000E+00 -0.68512288321E+03  0.68512288321E+03  0.00000000000E+00 0. -1.
         23    2    1    2    0    0 -0.24976498707E+02  0.41020415409E+02 -0.15392361107E+03  0.18493442033E+03  0.90563578835E+02 0.  0.
         23    2    1    2    0    0 -0.68033618282E+01 -0.22849642065E+02 -0.46294758636E+03  0.47332229729E+03  0.95630212401E+02 0.  0.
        -11    1    3    3    0    0  0.23042935285E+02  0.16258554932E+02 -0.79760313117E+01  0.29307585204E+02  0.00000000000E+00 0.  1.
         11    1    3    3    0    0 -0.48019433992E+02  0.24761860477E+02 -0.14594757976E+03  0.15562683513E+03  0.00000000000E+00 0. -1.
        -11    1    4    4    0    0  0.36653681503E+02  0.15188505672E+02 -0.15440291725E+03  0.15941908270E+03  0.00000000000E+00 0.  1.
         11    1    4    4    0    0 -0.43457043331E+02 -0.38038147737E+02 -0.30854466911E+03  0.31390321459E+03  0.00000000000E+00 0. -1.
         21    1    1    2  502  501  0.31779860535E+02 -0.18170773344E+02 -0.40514314607E+02  0.54603536769E+02  0.00000000000E+00 0. -1.
<scales pt_clust_5="13000.00000" pt_clust_6="13000.00000" pt_clust_7="13000.00000" pt_clust_8="13000.00000" pt_clust_9="36.60788"></scales>
<clustering>
<clus scale="   36.608">  1  9  2 -1</clus>
<clus scale="   90.564">  5  6 -1 -1</clus>
<clus scale="   94.626">  1  5  2 -1</clus>
<clus scale="   95.630">  7  8 -1 -1</clus>
<clus scale="   99.486">  2  5  1 -1</clus>
</clustering>
</event>
<event>
 9    1  0.1612788E-005  0.2583245E+03  0.7546771E-02  0.1109042E+00
          1   -1    0    0  502    0  0.00000000000E+00  0.00000000000E+00  0.12297420174E+04  0.12297420174E+04  0.00000000000E+00 0. -1.
         -1   -1    0    0    0  501 -0.00000000000E+00 -0.00000000000E+00 -0.14237331442E+03  0.14237331442E+03  0.00000000000E+00 0.  1.
         23    2    1    2    0    0 -0.22532108678E+03  0.16225110161E+02  0.15158034078E+02  0.24080023545E+03  0.81988664119E+02 0.  0.
         23    2    1    2    0    0  0.24050752552E+03  0.13236373148E+02  0.10663763042E+04  0.10976602790E+04  0.98390012463E+02 0.  0.
        -13    1    4    4    0    0  0.12165749050E+03 -0.10939521063E+02  0.72863157913E+03  0.73879915824E+03  0.00000000000E+00 0.  1.
         13    1    4    4    0    0  0.11885003502E+03  0.24175894211E+02  0.33774472505E+03  0.35886112075E+03  0.00000000000E+00 0. -1.
        -13    1    3    3    0    0 -0.13751189911E+03 -0.10712466298E+02  0.43589211501E+02  0.14465233731E+03  0.00000000000E+00 0. -1.
         13    1    3    3    0    0 -0.87809187673E+02  0.26937576459E+02 -0.28431177423E+02  0.96147898130E+02  0.00000000000E+00 0.  1.
         21    1    1    2  502  501 -0.15186438734E+02 -0.29461483309E+02  0.58343646891E+01  0.33654817359E+02  0.00000000000E+00 0.  1.
<scales pt_clust_5="13000.00000" pt_clust_6="13000.00000" pt_clust_7="13000.00000" pt_clust_8="13000.00000" pt_clust_9="33.14524"></scales>
<clustering>
<clus scale="   33.145">  2  9  1 -1</clus>
<clus scale="   81.989">  7  8 -1 -1</clus>
<clus scale="   98.390">  5  6 -1 -1</clus>
<clus scale="  252.533">  2  7  1 -1</clus>
<clus scale="  258.324">  1  5  2 -1</clus>
</clustering>
</event>
<event>
 9    1  0.1612788E-005  0.1042598E+03  0.7546771E-02  0.1272970E+00
          1   -1    0    0  502    0  0.00000000000E+00  0.00000000000E+00  0.30611819541E+02  0.30611819541E+02  0.00000000000E+00 0. -1.
         -1   -1    0    0    0  501 -0.00000000000E+00 -0.00000000000E+00 -0.43650047966E+03  0.43650047966E+03  0.00000000000E+00 0.  1.
         23    2    1    2    0    0 -0.31659803228E+02  0.14861549627E+02 -0.20839001195E+03  0.22999686588E+03  0.90823743807E+02 0.  0.
         23    2    1    2    0    0  0.42507170900E+02 -0.32507711367E+02 -0.14627204783E+03  0.18185951063E+03  0.93881620958E+02 0.  0.
        -11    1    3    3    0    0 -0.67219051001E+00 -0.34918280171E+02 -0.11050710203E+03  0.11589459750E+03  0.00000000000E+00 0.  1.
         11    1    3    3    0    0 -0.30987612718E+02  0.49779829798E+02 -0.97882909915E+02  0.11410226838E+03  0.00000000000E+00 0. -1.
        -13    1    4    4    0    0 -0.27672525857E+02 -0.25326393117E+02 -0.50121831163E+02  0.62605054386E+02  0.00000000000E+00 0.  1.
         13    1    4    4    0    0  0.70179696757E+02 -0.71813182499E+01 -0.96150216665E+02  0.11925445624E+03  0.00000000000E+00 0. -1.
         21    1    1    2  502  501 -0.10847367672E+02  0.17646161740E+02 -0.51226600341E+02  0.55255922688E+02  0.00000000000E+00 0. -1.
<scales pt_clust_5="13000.00000" pt_clust_6="13000.00000" pt_clust_7="13000.00000" pt_clust_8="13000.00000" pt_clust_9="20.71358"></scales>
<clustering>
<clus scale="   20.714">  2  9  1 -1</clus>
<clus scale="   90.824">  5  6 -1 -1</clus>
<clus scale="   93.882">  7  8 -1 -1</clus>
<clus scale="  101.515">  2  5  1 -1</clus>
<clus scale="  104.260">  1  5  2 -1</clus>
</clustering>
</event>
<event>
 9    1  0.1612788E-005  0.1177209E+03  0.7546771E-02  0.1246933E+00
          1   -1    0    0  502    0  0.00000000000E+00  0.00000000000E+00  0.69844289194E+02  0.69844289194E+02  0.00000000000E+00 0. -1.
         -1   -1    0    0    0  501 -0.00000000000E+00 -0.00000000000E+00 -0.28958564722E+03  0.28958564722E+03  0.00000000000E+00 0.  1.
         23    2    1    2    0    0 -0.47065069210E+02 -0.53774433880E+02 -0.15651061565E+03  0.19434757758E+03  0.90380294436E+02 0.  0.
         23    2    1    2    0    0  0.65001140541E+02  0.42657219512E+02 -0.25694384040E+02  0.12202108496E+03  0.90466331616E+02 0.  0.
        -13    1    4    4    0    0  0.23267723032E+02  0.64601113803E+02 -0.29467004804E+02  0.74719443331E+02  0.00000000000E+00 0. -1.
         13    1    4    4    0    0  0.41733417509E+02 -0.21943894290E+02  0.37726207641E+01  0.47301641631E+02  0.00000000000E+00 0.  1.
        -13    1    3    3    0    0 -0.72056225955E+02 -0.51565548038E+02 -0.10768291901E+03  0.13945148436E+03  0.00000000000E+00 0.  1.
         13    1    3    3    0    0  0.24991156745E+02 -0.22088858425E+01 -0.48827696644E+02  0.54896093227E+02  0.00000000000E+00 0. -1.
         21    1    1    2  502  501 -0.17936071330E+02  0.11117214368E+02 -0.37536358333E+02  0.43061273866E+02  0.00000000000E+00 0. -1.
<scales pt_clust_5="13000.00000" pt_clust_6="13000.00000" pt_clust_7="13000.00000" pt_clust_8="13000.00000" pt_clust_9="21.10202"></scales>
<clustering>
<clus scale="   21.102">  2  9  1 -1</clus>
<clus scale="   90.380">  7  8 -1 -1</clus>
<clus scale="   90.466">  5  6 -1 -1</clus>
<clus scale="  117.655">  2  7  1 -1</clus>
<clus scale="  117.721">  1  5  2 -1</clus>
</clustering>
</event>
<event>
 9    1  0.1612788E-005  0.2012861E+03  0.7546771E-02  0.1149023E+00
         -1   -1    0    0    0  501 -0.00000000000E+00  0.00000000000E+00  0.28248832165E+03  0.28248832165E+03  0.00000000000E+00 0.  1.
          1   -1    0    0  502    0  0.00000000000E+00 -0.00000000000E+00 -0.19533166675E+03  0.19533166675E+03  0.00000000000E+00 0. -1.
         23    2    1    2    0    0  0.14130160574E+03 -0.33040401407E+02  0.94852530149E+02  0.19804442859E+03  0.95743309476E+02 0.  0.
         23    2    1    2    0    0 -0.19476230479E+03  0.33311017235E+02 -0.33288742792E+02  0.22050402831E+03  0.92042962077E+02 0.  0.
        -13    1    3    3    0    0  0.13947545690E+03  0.95758557142E+00  0.80956637352E+02  0.16127088137E+03  0.00000000000E+00 0.  1.
         13    1    3    3    0    0  0.18261488402E+01 -0.33997986978E+02  0.13895892797E+02  0.36773547215E+02  0.00000000000E+00 0. -1.
        -13    1    4    4    0    0 -0.39922411442E+02  0.47710120339E+02 -0.46720619296E+01  0.62384955565E+02  0.00000000000E+00 0.  1.
         13    1    4    4    0    0 -0.15483989335E+03 -0.14399103104E+02 -0.28616680862E+02  0.15811907275E+03  0.00000000000E+00 0. -1.
         21    1    1    2  502  501  0.53460699055E+02 -0.27061582819E+00  0.25592867543E+02  0.59271531492E+02  0.00000000000E+00 0.  1.
<scales pt_clust_5="13000.00000" pt_clust_6="13000.00000" pt_clust_7="13000.00000" pt_clust_8="13000.00000" pt_clust_9="53.46138"></scales>
<clustering>
<clus scale="   53.461">  1  9  2 -1</clus>
<clus scale="   92.043">  7  8 -1 -1</clus>
<clus scale="   95.743">  5  6 -1 -1</clus>
<clus scale="  199.553">  2  7  1 -1</clus>
<clus scale="  199.553">  2  5  1 -1</clus>
</clustering>
</event>
<event>
 9    1  0.1612788E-005  0.1706374E+03  0.7546771E-02  0.1179296E+00
         -1   -1    0    0    0  501 -0.00000000000E+00  0.00000000000E+00  0.56730753019E+02  0.56730753019E+02  0.00000000000E+00 0.  1.
          1   -1    0    0  502    0  0.00000000000E+00 -0.00000000000E+00 -0.66560738620E+03  0.66560738620E+03  0.00000000000E+00 0. -1.
         23    2    1    2    0    0 -0.13212819282E+03  0.21025023695E+02 -0.21580523737E+03  0.26546573368E+03  0.77461243989E+02 0.  0.
         23    2    1    2    0    0  0.15013095672E+03 -0.90321538352E+01 -0.39726430262E+03  0.43483813898E+03  0.92975249428E+02 0.  0.
        -11    1    3    3    0    0 -0.92580152678E+02 -0.13782276133E+02 -0.93518624753E+02  0.13231314742E+03  0.00000000000E+00 0.  1.
         11    1    3    3    0    0 -0.39548040143E+02  0.34807299828E+02 -0.12228661262E+03  0.13315258626E+03  0.00000000000E+00 0. -1.
        -13    1    4    4    0    0  0.91033983264E+02  0.38434544143E+02 -0.25810670863E+03  0.27637560191E+03  0.00000000000E+00 0. -1.
         13    1    4    4    0    0  0.59096973457E+02 -0.47466697978E+02 -0.13915759399E+03  0.15846253706E+03  0.00000000000E+00 0.  1.
         21    1    1    2  502  501 -0.18002763900E+02 -0.11992869859E+02  0.41929068085E+01  0.22034266564E+02  0.00000000000E+00 0. -1.
<scales pt_clust_5="13000.00000" pt_clust_6="13000.00000" pt_clust_7="13000.00000" pt_clust_8="13000.00000" pt_clust_9="21.63165"></scales>
<clustering>
<clus scale="   21.632">  1  9  2 -1</clus>
<clus scale="   77.461">  5  6 -1 -1</clus>
<clus scale="   92.975">  7  8 -1 -1</clus>
<clus scale="  162.705">  1  5  2 -1</clus>
<clus scale="  170.637">  2  5  1 -1</clus>
</clustering>
</event>
<event>
 9    1  0.1647589E-005  0.1483096E+03  0.7546771E-02  0.1203222E+00
          2   -1    0    0  502    0  0.00000000000E+00  0.00000000000E+00  0.64329744695E+03  0.64329744695E+03  0.00000000000E+00 0. -1.
         -2   -1    0    0    0  501 -0.00000000000E+00 -0.00000000000E+00 -0.77121021471E+02  0.77121021471E+02  0.00000000000E+00 0.  1.
         23    2    1    2    0    0 -0.99559785688E+02  0.40848912558E+02  0.21518668176E+02  0.14423067881E+03  0.93587665038E+02 0.  0.
         23    2    1    2    0    0  0.11424396693E+03 -0.23100143636E+02  0.52681845752E+03  0.54705216548E+03  0.90239037839E+02 0.  0.
        -11    1    3    3    0    0 -0.35385723290E+02  0.42008253539E+02 -0.29402152765E+02  0.62300315934E+02  0.00000000000E+00 0.  1.
         11    1    3    3    0    0 -0.64174062398E+02 -0.11593409817E+01  0.50920820942E+02  0.81930362879E+02  0.00000000000E+00 0. -1.
        -13    1    4    4    0    0 -0.47679531432E+01 -0.26958484542E+02  0.76281060002E+02  0.81045008366E+02  0.00000000000E+00 0.  1.
         13    1    4    4    0    0  0.11901192007E+03  0.38583409053E+01  0.45053739752E+03  0.46600715711E+03  0.00000000000E+00 0. -1.
         21    1    1    2  502  501 -0.14684181238E+02 -0.17748768921E+02  0.17839299778E+02  0.29135624130E+02  0.00000000000E+00 0. -1.
<scales pt_clust_5="13000.00000" pt_clust_6="13000.00000" pt_clust_7="13000.00000" pt_clust_8="13000.00000" pt_clust_9="23.03571"></scales>
<clustering>
<clus scale="   23.036">  2  9  1 -1</clus>
<clus scale="   90.239">  7  8 -1 -1</clus>
<clus scale="   93.588">  5  6 -1 -1</clus>
<clus scale="  146.220">  1  7  2 -1</clus>
<clus scale="  146.220">  1  5  2 -1</clus>
</clustering>
</event>
<event>
 9    1  0.1612788E-005  0.1763575E+03  0.7546771E-02  0.1195999E+00
         -1   -1    0    0    0  501 -0.00000000000E+00  0.00000000000E+00  0.59488123957E+02  0.59488123957E+02  0.00000000000E+00 0.  1.
          1   -1    0    0  502    0  0.00000000000E+00 -0.00000000000E+00 -0.92557050918E+03  0.92557050918E+03  0.00000000000E+00 0. -1.
         23    2    1    2    0    0  0.78191040861E+02 -0.14178971140E+02 -0.17707876586E+03  0.20422792884E+03  0.63539558583E+02 0.  0.
         23    2    1    2    0    0 -0.16152283518E+02 -0.14554485998E+03 -0.48218128580E+03  0.51224926916E+03  0.91958245161E+02 0.  0.
        -11    1    3    3    0    0  0.51226547575E+02  0.22706695180E+02 -0.95454766476E+02  0.11068588720E+03  0.00000000000E+00 0. -1.
         11    1    3    3    0    0  0.26964493286E+02 -0.36885666319E+02 -0.81623999386E+02  0.93542041638E+02  0.00000000000E+00 0.  1.
        -13    1    4    4    0    0  0.32338108003E+02 -0.80653896745E+02 -0.31026424317E+03  0.32220289397E+03  0.00000000000E+00 0.  1.
         13    1    4    4    0    0 -0.48490391521E+02 -0.64890963233E+02 -0.17191704263E+03  0.19004637519E+03  0.00000000000E+00 0. -1.
         21    1    1    2  502  501 -0.62038757343E+02  0.15972383112E+03 -0.20682233356E+03  0.26858143514E+03  0.00000000000E+00 0. -1.
<scales pt_clust_5="13000.00000" pt_clust_6="13000.00000" pt_clust_7="13000.00000" pt_clust_8="13000.00000" pt_clust_9="150.48469"></scales>
<clustering>
<clus scale="   63.540">  5  6 -1 -1</clus>
<clus scale="   91.958">  7  8 -1 -1</clus>
<clus scale="  101.746">  1  5  2 -1</clus>
<clus scale="  150.485">  1  9  2 -1</clus>
<clus scale="  176.357">  2  5  1 -1</clus>
</clustering>
</event>
<event>
 9    1  0.1612788E-005  0.1005280E+03  0.7546771E-02  0.1282630E+00
         -1   -1    0    0    0  501 -0.00000000000E+00  0.00000000000E+00  0.18648667549E+03  0.18648667549E+03  0.00000000000E+00 0.  1.
          1   -1    0    0  502    0  0.00000000000E+00 -0.00000000000E+00 -0.11616248475E+03  0.11616248475E+03  0.00000000000E+00 0. -1.
         23    2    1    2    0    0  0.94035792911E+01 -0.11158932142E+01  0.11914596109E+03  0.14989775425E+03  0.90464933342E+02 0.  0.
         23    2    1    2    0    0 -0.16795919067E+02  0.25063075270E+02 -0.67040359399E+02  0.12176703569E+03  0.97069771574E+02 0.  0.
        -11    1    3    3    0    0 -0.34676078904E+01  0.32625102440E+02  0.10681140298E+03  0.11173673263E+03  0.00000000000E+00 0.  1.
         11    1    3    3    0    0  0.12871187182E+02 -0.33740995654E+02  0.12334558114E+02  0.38161021620E+02  0.00000000000E+00 0. -1.
        -13    1    4    4    0    0 -0.17964691439E+02 -0.35303406806E+02 -0.37515037631E+02  0.54556747695E+02  0.00000000000E+00 0.  1.
         13    1    4    4    0    0  0.11687723725E+01  0.60366482075E+02 -0.29525321768E+02  0.67210287996E+02  0.00000000000E+00 0. -1.
         21    1    1    2  502  501  0.73923397756E+01 -0.23947182055E+02  0.18218589049E+02  0.30984370297E+02  0.00000000000E+00 0.  1.
<scales pt_clust_5="13000.00000" pt_clust_6="13000.00000" pt_clust_7="13000.00000" pt_clust_8="13000.00000" pt_clust_9="25.06221"></scales>
<clustering>
<clus scale="   25.062">  1  9  2 -1</clus>
<clus scale="   90.465">  5  6 -1 -1</clus>
<clus scale="   94.166">  1  5  2 -1</clus>
<clus scale="   97.070">  7  8 -1 -1</clus>
<clus scale="  100.528">  2  5  1 -1</clus>
</clustering>
</event>
<event>
 9    1  0.1612788E-005  0.9363492E+02  0.7546771E-02  0.1295225E+00
          2   -1    0    0  502    0  0.00000000000E+00  0.00000000000E+00  0.69503546129E+03  0.69503546129E+03  0.00000000000E+00 0. -1.
         -2   -1    0    0    0  501 -0.00000000000E+00 -0.00000000000E+00 -0.19989945946E+03  0.19989945946E+03  0.00000000000E+00 0.  1.
         23    2    1    2    0    0  0.51480231104E+01 -0.37517577842E+02  0.30959662942E+03  0.32511538025E+03  0.91738033204E+02 0.  0.
         23    2    1    2    0    0 -0.10623929340E+01 -0.49001589123E+02  0.35995319802E+03  0.37508268936E+03  0.93372558464E+02 0.  0.
        -11    1    3    3    0    0 -0.19613565863E+02  0.83519661132E+01  0.15304837760E+02  0.26242815448E+02  0.00000000000E+00 0.  1.
         11    1    3    3    0    0  0.24761588973E+02 -0.45869543956E+02  0.29429179166E+03  0.29887256480E+03  0.00000000000E+00 0. -1.
        -11    1    4    4    0    0  0.45922970727E+02 -0.29508143219E+02  0.18639880507E+03  0.19422709463E+03  0.00000000000E+00 0. -1.
         11    1    4    4    0    0 -0.46985363661E+02 -0.19493445904E+02  0.17355439296E+03  0.18085559473E+03  0.00000000000E+00 0.  1.
         21    1    1    2  502  501 -0.40856301764E+01  0.86519166965E+02 -0.17441382562E+03  0.19473685114E+03  0.00000000000E+00 0.  1.
<scales pt_clust_5="13000.00000" pt_clust_6="13000.00000" pt_clust_7="13000.00000" pt_clust_8="13000.00000" pt_clust_9="86.61558"></scales>
<clustering>
<clus scale="   86.616">  2  9  1 -1</clus>
<clus scale="   91.738">  5  6 -1 -1</clus>
<clus scale="   92.005">  2  5  1 -1</clus>
<clus scale="   93.373">  7  8 -1 -1</clus>
<clus scale="   93.635">  1  5  2 -1</clus>
</clustering>
</event>
<event>
 9    1  0.1612788E-005  0.2232965E+03  0.7546771E-02  0.1161549E+00
         -2   -1    0    0    0  501 -0.00000000000E+00  0.00000000000E+00  0.56583489379E+02  0.56583489379E+02  0.00000000000E+00 0.  1.
          2   -1    0    0  502    0  0.00000000000E+00 -0.00000000000E+00 -0.14777665689E+04  0.14777665689E+04  0.00000000000E+00 0. -1.
         23    2    1    2    0    0  0.57885624959E+02 -0.23687037646E+03 -0.69262238656E+03  0.73951749393E+03  0.87761225210E+02 0.  0.
         23    2    1    2    0    0 -0.29818559246E+02  0.51443904910E+02 -0.41870376113E+03  0.43264193120E+03  0.91272006776E+02 0.  0.
        -13    1    4    4    0    0  0.11268795708E+02  0.64593994238E+02 -0.26588034501E+03  0.27384617527E+03  0.00000000000E+00 0.  1.
         13    1    4    4    0    0 -0.41087354954E+02 -0.13150089329E+02 -0.15282341612E+03  0.15879575593E+03  0.00000000000E+00 0. -1.
        -13    1    3    3    0    0  0.18138297903E+02 -0.15484880765E+03 -0.53693939786E+03  0.55911632783E+03  0.00000000000E+00 0. -1.
         13    1    3    3    0    0  0.39747327056E+02 -0.82021568814E+02 -0.15568298870E+03  0.18040116610E+03  0.00000000000E+00 0.  1.
         21    1    1    2  502  501 -0.28067065713E+02  0.18542647155E+03 -0.30985693179E+03  0.36219063310E+03  0.00000000000E+00 0.  1.
<scales pt_clust_5="13000.00000" pt_clust_6="13000.00000" pt_clust_7="13000.00000" pt_clust_8="13000.00000" pt_clust_9="205.32725"></scales>
<clustering>
<clus scale="   87.761">  7  8 -1 -1</clus>
<clus scale="   91.272">  5  6 -1 -1</clus>
<clus scale="  108.932">  2  5  1 -1</clus>
<clus scale="  205.327">  1  9  2 -1</clus>
<clus scale="  108.932">  2  5  1 -1</clus>
</clustering>
</event>
<event>
 9    1  0.1612788E-005  0.1595868E+03  0.7546771E-02  0.1190400E+00
          3   -1    0    0  502    0  0.00000000000E+00  0.00000000000E+00  0.15965137866E+03  0.15965137866E+03  0.00000000000E+00 0. -1.
         -3   -1    0    0    0  501 -0.00000000000E+00 -0.00000000000E+00 -0.23370475420E+03  0.23370475420E+03  0.00000000000E+00 0.  1.
         23    2    1    2    0    0  0.13194431271E+03  0.37506175485E+02 -0.11887132554E+03  0.20389055715E+03  0.92870621863E+02 0.  0.
         23    2    1    2    0    0 -0.11099381259E+03 -0.46354239228E+02  0.53301058851E+02  0.16519265206E+03  0.99896283669E+02 0.  0.
        -11    1    3    3    0    0  0.90914932104E+02  0.59217057550E+02 -0.11373576007E+03  0.15718781093E+03  0.00000000000E+00 0.  1.
         11    1    3    3    0    0  0.41029380602E+02 -0.21710882066E+02 -0.51355654726E+01  0.46702746229E+02  0.00000000000E+00 0. -1.
        -13    1    4    4    0    0 -0.86592821123E+02 -0.73818574203E+02  0.58739602467E+02  0.12805404900E+03  0.00000000000E+00 0. -1.
         13    1    4    4    0    0 -0.24400991471E+02  0.27464334975E+02 -0.54385436158E+01  0.37138603058E+02  0.00000000000E+00 0.  1.
         21    1    1    2  502  501 -0.20950500112E+02  0.88480637429E+01 -0.84831088493E+01  0.24272923653E+02  0.00000000000E+00 0.  1.
<scales pt_clust_5="13000.00000" pt_clust_6="13000.00000" pt_clust_7="13000.00000" pt_clust_8="13000.00000" pt_clust_9="22.74229"></scales>
<clustering>
<clus scale="   22.742">  2  9  1 -1</clus>
<clus scale="   92.871">  5  6 -1 -1</clus>
<clus scale="   99.896">  7  8 -1 -1</clus>
<clus scale="  155.286">  2  5  1 -1</clus>
<clus scale="  159.587">  1  5  2 -1</clus>
</clustering>
</event>
<event>
 9    1  0.1612788E-005  0.2181115E+03  0.7546771E-02  0.1135351E+00
         -1   -1    0    0    0  501 -0.00000000000E+00  0.00000000000E+00  0.12458564330E+03  0.12458564330E+03  0.00000000000E+00 0.  1.
          1   -1    0    0  502    0  0.00000000000E+00 -0.00000000000E+00 -0.55971499345E+03  0.55971499345E+03  0.00000000000E+00 0. -1.
         23    2    1    2    0    0  0.12252380157E+03  0.16497289267E+03 -0.22389514087E+03  0.31740412222E+03  0.91587146642E+02 0.  0.
         23    2    1    2    0    0 -0.12669368726E+03 -0.14339626557E+03 -0.24646498245E+03  0.32537367548E+03  0.92245659782E+02 0.  0.
        -11    1    3    3    0    0  0.95097502820E+02  0.13185051790E+03 -0.22093387373E+03  0.27429887107E+03  0.00000000000E+00 0.  1.
         11    1    3    3    0    0  0.27426298748E+02  0.33122374771E+02 -0.29612671490E+01  0.43105251149E+02  0.00000000000E+00 0. -1.
        -13    1    4    4    0    0  0.93403879224E+01 -0.27634866614E+02 -0.14417091423E+02  0.32538918612E+02  0.00000000000E+00 0.  1.
         13    1    4    4    0    0 -0.13603407518E+03 -0.11576139896E+03 -0.23204789103E+03  0.29283475687E+03  0.00000000000E+00 0. -1.
         21    1    1    2  502  501  0.41698856871E+01 -0.21576627095E+02  0.35230773185E+02  0.41522839048E+02  0.00000000000E+00 0. -1.
<scales pt_clust_5="13000.00000" pt_clust_6="13000.00000" pt_clust_7="13000.00000" pt_clust_8="13000.00000" pt_clust_9="21.97587"></scales>
<clustering>
<clus scale="   21.976">  1  9  2 -1</clus>
<clus scale="   91.587">  5  6 -1 -1</clus>
<clus scale="   92.246">  7  8 -1 -1</clus>
<clus scale="  217.834">  1  5  2 -1</clus>
<clus scale="  218.112">  2  5  1 -1</clus>
</clustering>
</event>
<event>
 9    1  0.1612788E-005  0.3157913E+03  0.7546771E-02  0.1097835E+00
          1   -1    0    0  502    0  0.00000000000E+00  0.00000000000E+00  0.17590317669E+04  0.17590317669E+04  0.00000000000E+00 0. -1.
         -1   -1    0    0    0  501 -0.00000000000E+00 -0.00000000000E+00 -0.12287724693E+03  0.12287724693E+03  0.00000000000E+00 0.  1.
         23    2    1    2    0    0  0.22127741835E+03  0.34250337585E+03  0.73314462421E+03  0.84380967665E+03  0.90782553654E+02 0.  0.
         23    2    1    2    0    0 -0.24480431317E+02 -0.16718245351E+03  0.63873514031E+03  0.66485996855E+03  0.74208719373E+02 0.  0.
        -11    1    3    3    0    0  0.12925398222E+03  0.11761110383E+03  0.30825693683E+03  0.35434630345E+03  0.00000000000E+00 0. -1.
         11    1    3    3    0    0  0.92023436130E+02  0.22489227202E+03  0.42488768738E+03  0.48946337320E+03  0.00000000000E+00 0.  1.
        -13    1    4    4    0    0 -0.20383561191E+01 -0.10911866432E+03  0.27550617618E+03  0.29633543648E+03  0.00000000000E+00 0. -1.
         13    1    4    4    0    0 -0.22442075198E+02 -0.58063789187E+02  0.36322896413E+03  0.36852453207E+03  0.00000000000E+00 0.  1.
         21    1    1    2  502  501 -0.19679698704E+03 -0.17532092234E+03  0.26427475541E+03  0.37323936859E+03  0.00000000000E+00 0. -1.
<scales pt_clust_5="13000.00000" pt_clust_6="13000.00000" pt_clust_7="13000.00000" pt_clust_8="13000.00000" pt_clust_9="302.46104"></scales>
<clustering>
<clus scale="   74.209">  7  8 -1 -1</clus>
<clus scale="   90.783">  5  6 -1 -1</clus>
<clus scale="  184.543">  1  7  2 -1</clus>
<clus scale="  302.461">  2  9  1 -1</clus>
<clus scale="  184.543">  1  5  2 -1</clus>
</clustering>
</event>
<event>
 9    1  0.1612788E-005  0.2619279E+03  0.7546771E-02  0.1106151E+00
         -1   -1    0    0    0  501 -0.00000000000E+00  0.00000000000E+00  0.75269009668E+02  0.75269009668E+02  0.00000000000E+00 0.  1.
          1   -1    0    0  502    0  0.00000000000E+00 -0.00000000000E+00 -0.13300475519E+04  0.13300475519E+04  0.00000000000E+00 0. -1.
         23    2    1    2    0    0 -0.15122877450E+03 -0.21233313795E+03 -0.31122190394E+03  0.41566108007E+03  0.89216345402E+02 0.  0.
         23    2    1    2    0    0  0.13448057527E+03  0.19869654733E+03 -0.92823085975E+03  0.96317268954E+03  0.92324199697E+02 0.  0.
        -13    1    4    4    0    0  0.14002738308E+03  0.16168970169E+03 -0.84930292567E+03  0.87582343380E+03  0.00000000000E+00 0. -1.
         13    1    4    4    0    0 -0.55468078140E+01  0.37006845632E+02 -0.78927934076E+02  0.87349255738E+02  0.00000000000E+00 0.  1.
        -13    1    3    3    0    0  0.11340745241E+02 -0.17060860421E+02 -0.14973590500E+02  0.25375064007E+02  0.00000000000E+00 0. -1.
         13    1    3    3    0    0 -0.16256951975E+03 -0.19527227753E+03 -0.29624831344E+03  0.39028601606E+03  0.00000000000E+00 0.  1.
         21    1    1    2  502  501  0.16748199238E+02  0.13636590621E+02 -0.15325778542E+02  0.26482791949E+02  0.00000000000E+00 0.  1.
<scales pt_clust_5="13000.00000" pt_clust_6="13000.00000" pt_clust_7="13000.00000" pt_clust_8="13000.00000" pt_clust_9="21.59766"></scales>
<clustering>
<clus scale="   21.598">  1  9  2 -1</clus>
<clus scale="   89.216">  7  8 -1 -1</clus>
<clus scale="   92.324">  5  6 -1 -1</clus>
<clus scale="  260.849">  1  7  2 -1</clus>
<clus scale="  261.928">  2  5  1 -1</clus>
</clustering>
</event>
<event>
 9    1  0.1612788E-005  0.9239717E+02  0.7546771E-02  0.1297988E+00
         -1   -1    0    0    0  501 -0.00000000000E+00  0.00000000000E+00  0.69629681627E+02  0.69629681627E+02  0.00000000000E+00 0.  1.
          1   -1    0    0  502    0  0.00000000000E+00 -0.00000000000E+00 -0.30300696116E+03  0.30300696116E+03  0.00000000000E+00 0. -1.
         23    2    1    2    0    0 -0.10614959013E+02 -0.29301636358E+02 -0.18223165296E+02  0.98390967743E+02  0.91528331854E+02 0.  0.
         23    2    1    2    0    0 -0.83373561141E+01 -0.22831128410E+02 -0.19326568437E+03  0.21461247311E+03  0.90089493993E+02 0.  0.
        -11    1    3    3    0    0  0.38585196969E+02 -0.11359855012E+01  0.74799864702E+00  0.38609161998E+02  0.00000000000E+00 0.  1.
         11    1    3    3    0    0 -0.49200155982E+02 -0.28165650857E+02 -0.18971163943E+02  0.59781805746E+02  0.00000000000E+00 0. -1.
        -13    1    4    4    0    0  0.29350823321E+02  0.20535222313E+02 -0.71389899056E+02  0.79872923274E+02  0.00000000000E+00 0.  1.
         13    1    4    4    0    0 -0.37688179435E+02 -0.43366350723E+02 -0.12187578531E+03  0.13473954984E+03  0.00000000000E+00 0. -1.
         21    1    1    2  502  501  0.18952315127E+02  0.52132764768E+02 -0.21888429869E+02  0.59633201936E+02  0.00000000000E+00 0. -1.
<scales pt_clust_5="13000.00000" pt_clust_6="13000.00000" pt_clust_7="13000.00000" pt_clust_8="13000.00000" pt_clust_9="55.47085"></scales>
<clustering>
<clus scale="   55.471">  1  9  2 -1</clus>
<clus scale="   90.089">  7  8 -1 -1</clus>
<clus scale="   90.972">  2  7  1 -1</clus>
<clus scale="   91.528">  5  6 -1 -1</clus>
<clus scale="   90.972">  2  5  1 -1</clus>
</clustering>
</event>
<event>
 9    1  0.1612788E-005  0.9473079E+02  0.7546771E-02  0.1294802E+00
         -2   -1    0    0    0  501 -0.00000000000E+00  0.00000000000E+00  0.11241881707E+03  0.11241881707E+03  0.00000000000E+00 0.  1.
          2   -1    0    0  502    0  0.00000000000E+00 -0.00000000000E+00 -0.16645247296E+03  0.16645247296E+03  0.00000000000E+00 0. -1.
         23    2    1    2    0    0 -0.42420170278E+01  0.16933964643E+02  0.34559137470E+01  0.96013621676E+02  0.94349977957E+02 0.  0.
         23    2    1    2    0    0 -0.12995748058E+02  0.59367321749E+01 -0.97997878307E+02  0.13324786701E+03  0.89147493811E+02 0.  0.
        -11    1    3    3    0    0  0.43894261864E+02  0.17404415555E+01  0.10173526166E+02  0.45091418208E+02  0.00000000000E+00 0.  1.
         11    1    3    3    0    0 -0.48136278892E+02  0.15193523088E+02 -0.67176124194E+01  0.50922203467E+02  0.00000000000E+00 0. -1.
        -11    1    4    4    0    0 -0.37520078793E+01 -0.41622411929E+02 -0.47481186188E+02  0.63253187902E+02  0.00000000000E+00 0.  1.
         11    1    4    4    0    0 -0.92437401788E+01  0.47559144104E+02 -0.50516692119E+02  0.69994679105E+02  0.00000000000E+00 0. -1.
         21    1    1    2  502  501  0.17237765086E+02 -0.22870696818E+02  0.40508308668E+02  0.49609801342E+02  0.00000000000E+00 0.  1.
<scales pt_clust_5="13000.00000" pt_clust_6="13000.00000" pt_clust_7="13000.00000" pt_clust_8="13000.00000" pt_clust_9="28.63930"></scales>
<clustering>
<clus scale="   28.639">  1  9  2 -1</clus>
<clus scale="   89.147">  7  8 -1 -1</clus>
<clus scale="   89.550">  2  7  1 -1</clus>
<clus scale="   94.350">  5  6 -1 -1</clus>
<clus scale="   89.550">  2  5  1 -1</clus>
</clustering>
</event>
<event>
 9    1  0.1612788E-005  0.9529004E+02  0.7546771E-02  0.1291245E+00
         -2   -1    0    0    0  501 -0.00000000000E+00  0.00000000000E+00  0.11484363433E+03  0.11484363433E+03  0.00000000000E+00 0.  1.
          2   -1    0    0  502    0  0.00000000000E+00 -0.00000000000E+00 -0.37235643103E+03  0.37235643103E+03  0.00000000000E+00 0. -1.
         23    2    1    2    0    0  0.12542855310E+02  0.18973825021E+01 -0.70588840451E+02  0.11517823066E+03  0.90123898840E+02 0.  0.
         23    2    1    2    0    0 -0.28605160302E+02  0.27520505858E+02 -0.26756722047E+03  0.28469059252E+03  0.88774335051E+02 0.  0.
        -13    1    3    3    0    0  0.18480838329E+02  0.40749694359E+02 -0.59297358764E+02  0.74284963028E+02  0.00000000000E+00 0.  1.
         13    1    3    3    0    0 -0.59379830184E+01 -0.38852311857E+02 -0.11291481687E+02  0.40893267632E+02  0.00000000000E+00 0. -1.
        -13    1    4    4    0    0 -0.60150729992E+02  0.23333812177E+02 -0.16010557261E+03  0.17261625500E+03  0.00000000000E+00 0.  1.
         13    1    4    4    0    0  0.31545569690E+02  0.41866936806E+01 -0.10746164785E+03  0.11207433752E+03  0.00000000000E+00 0. -1.
         21    1    1    2  502  501  0.16062304992E+02 -0.29417888360E+02  0.80643264221E+02  0.87331242184E+02  0.00000000000E+00 0. -1.
<scales pt_clust_5="13000.00000" pt_clust_6="13000.00000" pt_clust_7="13000.00000" pt_clust_8="13000.00000" pt_clust_9="33.51731"></scales>
<clustering>
<clus scale="   33.517">  1  9  2 -1</clus>
<clus scale="   88.774">  7  8 -1 -1</clus>
<clus scale="   90.124">  5  6 -1 -1</clus>
<clus scale="   94.015">  2  7  1 -1</clus>
<clus scale="   94.015">  2  5  1 -1</clus>
</clustering>
</event>
<event>
 9    1  0.1612788E-005  0.1862380E+03  0.7546771E-02  0.1164546E+00
          1   -1    0    0  502    0  0.00000000000E+00  0.00000000000E+00  0.39950269473E+03  0.39950269473E+03  0.00000000000E+00 0. -1.
         -1   -1    0    0    0  501 -0.00000000000E+00 -0.00000000000E+00 -0.35648430501E+03  0.35648430501E+03  0.00000000000E+00 0.  1.
         23    2    1    2    0    0  0.13855775062E+03  0.13076726254E+03 -0.25783359237E+03  0.33357904227E+03  0.92187248994E+02 0.  0.
         23    2    1    2    0    0 -0.12174005718E+03 -0.80051628147E+02  0.31720265563E+03  0.36653081625E+03  0.11179628718E+03 0.  0.
        -13    1    3    3    0    0  0.96837096210E+02  0.95347535277E+02 -0.24037844827E+03  0.27613470278E+03  0.00000000000E+00 0.  1.
         13    1    3    3    0    0  0.41720654413E+02  0.35419727268E+02 -0.17455144102E+02  0.57444339494E+02  0.00000000000E+00 0. -1.
        -13    1    4    4    0    0 -0.31181831085E+02  0.28338335896E+02  0.81554097007E+02  0.91795635026E+02  0.00000000000E+00 0.  1.
         13    1    4    4    0    0 -0.90558226098E+02 -0.10838996404E+03  0.23564855862E+03  0.27473518122E+03  0.00000000000E+00 0. -1.
         21    1    1    2  502  501 -0.16817693440E+02 -0.50715634398E+02 -0.16350673544E+02  0.55877141215E+02  0.00000000000E+00 0. -1.
<scales pt_clust_5="13000.00000" pt_clust_6="13000.00000" pt_clust_7="13000.00000" pt_clust_8="13000.00000" pt_clust_9="53.43136"></scales>
<clustering>
<clus scale="   53.431">  2  9  1 -1</clus>
<clus scale="   92.187">  5  6 -1 -1</clus>
<clus scale="  111.796">  7  8 -1 -1</clus>
<clus scale="  175.170">  2  5  1 -1</clus>
<clus scale="  186.238">  1  5  2 -1</clus>
</clustering>
</event>
<event>
 9    1  0.1612788E-005  0.9107343E+02  0.7546771E-02  0.1301887E+00
         -1   -1    0    0    0  501 -0.00000000000E+00  0.00000000000E+00  0.26186386082E+02  0.26186386082E+02  0.00000000000E+00 0.  1.
          1   -1    0    0  502    0  0.00000000000E+00 -0.00000000000E+00 -0.44468773062E+03  0.44468773062E+03  0.00000000000E+00 0. -1.
         23    2    1    2    0    0 -0.14593558725E+01  0.59892401845E+01 -0.10989813536E+03  0.14091093642E+03  0.87978924358E+02 0.  0.
         23    2    1    2    0    0 -0.11733527313E+02  0.92898674777E+01 -0.28184643736E+03  0.29644560077E+03  0.90656509218E+02 0.  0.
        -13    1    3    3    0    0 -0.31999865445E+02  0.15590187768E+02 -0.11455452644E+02  0.37393485240E+02  0.00000000000E+00 0.  1.
         13    1    3    3    0    0  0.30540509573E+02 -0.96009475833E+01 -0.98442682716E+02  0.10351745118E+03  0.00000000000E+00 0. -1.
        -13    1    4    4    0    0  0.24441419267E+02  0.32958497124E+02 -0.19692067346E+03  0.20115018555E+03  0.00000000000E+00 0.  1.
         13    1    4    4    0    0 -0.36174946580E+02 -0.23668629646E+02 -0.84925763896E+02  0.95295415224E+02  0.00000000000E+00 0. -1.
         21    1    1    2  502  501  0.13192883186E+02 -0.15279107662E+02 -0.26756771821E+02  0.33517579507E+02  0.00000000000E+00 0.  1.
<scales pt_clust_5="13000.00000" pt_clust_6="13000.00000" pt_clust_7="13000.00000" pt_clust_8="13000.00000" pt_clust_9="20.18671"></scales>
<clustering>
<clus scale="   20.187">  1  9  2 -1</clus>
<clus scale="   87.979">  5  6 -1 -1</clus>
<clus scale="   88.408">  1  5  2 -1</clus>
<clus scale="   90.657">  7  8 -1 -1</clus>
<clus scale="   91.073">  2  5  1 -1</clus>
</clustering>
</event>
<event>
 9    1  0.1612788E-005  0.1103651E+03  0.7546771E-02  0.1260450E+00
         -1   -1    0    0    0  501 -0.00000000000E+00  0.00000000000E+00  0.36048505520E+02  0.36048505520E+02  0.00000000000E+00 0.  1.
          1   -1    0    0  502    0  0.00000000000E+00 -0.00000000000E+00 -0.42073197852E+03  0.42073197852E+03  0.00000000000E+00 0. -1.
         23    2    1    2    0    0  0.68696393613E+02 -0.83826931329E+01 -0.14584828851E+03  0.18640051479E+03  0.93187792193E+02 0.  0.
         23    2    1    2    0    0 -0.46971081611E+02 -0.90122756336E+00 -0.19236429500E+03  0.21824817535E+03  0.91766820442E+02 0.  0.
        -11    1    4    4    0    0  0.22559975805E+02 -0.20093369799E+02 -0.69371490307E+02  0.75664388491E+02  0.00000000000E+00 0.  1.
         11    1    4    4    0    0 -0.69531057416E+02  0.19192142236E+02 -0.12299280470E+03  0.14258378686E+03  0.00000000000E+00 0. -1.
        -13    1    3    3    0    0  0.26762437875E+02 -0.23588320596E+02 -0.19277700585E+01  0.35726086365E+02  0.00000000000E+00 0.  1.
         13    1    3    3    0    0  0.41933955737E+02  0.15205627463E+02 -0.14392051845E+03  0.15067442843E+03  0.00000000000E+00 0. -1.
         21    1    1    2  502  501 -0.21725312002E+02  0.92839206962E+01 -0.46470889485E+02  0.52131793894E+02  0.00000000000E+00 0.  1.
<scales pt_clust_5="13000.00000" pt_clust_6="13000.00000" pt_clust_7="13000.00000" pt_clust_8="13000.00000" pt_clust_9="23.62584"></scales>
<clustering>
<clus scale="   23.626">  2  9  1 -1</clus>
<clus scale="   91.767">  5  6 -1 -1</clus>
<clus scale="   93.188">  7  8 -1 -1</clus>
<clus scale="  109.168">  2  5  1 -1</clus>
<clus scale="   23.626">  2  5  1 -1</clus>
</clustering>
</event>
<event>
 9    1  0.1612788E-005  0.3056463E+03  0.7546771E-02  0.1082544E+00
         -1   -1    0    0    0  501 -0.00000000000E+00  0.00000000000E+00  0.33031299568E+03  0.33031299568E+03  0.00000000000E+00 0.  1.
          1   -1    0    0  502    0  0.00000000000E+00 -0.00000000000E+00 -0.44490907491E+03  0.44490907491E+03  0.00000000000E+00 0. -1.
         23    2    1    2    0    0  0.13162357206E+03  0.27471455316E+03 -0.11919546308E+02  0.31895958303E+03  0.93809858687E+02 0.  0.
         23    2    1    2    0    0 -0.20434291830E+02 -0.28969710819E+03 -0.14390334224E+03  0.33673348354E+03  0.91319725434E+02 0.  0.
        -11    1    3    3    0    0  0.97458309441E+02  0.26601045678E+03 -0.13949371132E+02  0.28364461946E+03  0.00000000000E+00 0. -1.
         11    1    3    3    0    0  0.34165262617E+02  0.87040963837E+01  0.20298248248E+01  0.35314963576E+02  0.00000000000E+00 0.  1.
        -11    1    4    4    0    0  0.97907997565E+01 -0.13646677037E+03 -0.21926793126E+02  0.13856342747E+03  0.00000000000E+00 0. -1.
         11    1    4    4    0    0 -0.30225091586E+02 -0.15323033782E+03 -0.12197654911E+03  0.19817005607E+03  0.00000000000E+00 0.  1.
         21    1    1    2  502  501 -0.11118928023E+03  0.14982555035E+02  0.41226809320E+02  0.11952900401E+03  0.00000000000E+00 0. -1.
<scales pt_clust_5="13000.00000" pt_clust_6="13000.00000" pt_clust_7="13000.00000" pt_clust_8="13000.00000" pt_clust_9="112.19418"></scales>
<clustering>
<clus scale="   91.320">  7  8 -1 -1</clus>
<clus scale="   93.810">  5  6 -1 -1</clus>
<clus scale="  112.194">  1  9  2 -1</clus>
<clus scale="  304.891">  2  7  1 -1</clus>
<clus scale="  304.891">  2  5  1 -1</clus>
</clustering>
</event>
<event>
 9    1  0.1612788E-005  0.1144698E+03  0.7546771E-02  0.1264105E+00
         -1   -1    0    0    0  501 -0.00000000000E+00  0.00000000000E+00  0.24359539293E+03  0.24359539293E+03  0.00000000000E+00 0.  1.
          1   -1    0    0  502    0  0.00000000000E+00 -0.00000000000E+00 -0.14496070634E+03  0.14496070634E+03  0.00000000000E+00 0. -1.
         23    2    1    2    0    0 -0.11918028197E+02  0.66243505804E+01  0.17560351382E+03  0.19802900147E+03  0.90515026062E+02 0.  0.
         23    2    1    2    0    0 -0.12839273321E+01  0.12433363725E+02 -0.10405963589E+03  0.15487040111E+03  0.11401840342E+03 0.  0.
        -11    1    3    3    0    0  0.16411924557E+02  0.24107244612E+02  0.15741571334E+03  0.16009440127E+03  0.00000000000E+00 0.  1.
         11    1    3    3    0    0 -0.28329952754E+02 -0.17482894031E+02  0.18187800478E+02  0.37934600209E+02  0.00000000000E+00 0. -1.
        -13    1    4    4    0    0 -0.55239862137E+02 -0.98514275825E+01 -0.55722624940E+02  0.79079099164E+02  0.00000000000E+00 0. -1.
         13    1    4    4    0    0  0.53955934805E+02  0.22284791307E+02 -0.48337010946E+02  0.75791301951E+02  0.00000000000E+00 0.  1.
         21    1    1    2  502  501  0.13201955530E+02 -0.19057714305E+02  0.27090808663E+02  0.35656696683E+02  0.00000000000E+00 0.  1.
<scales pt_clust_5="13000.00000" pt_clust_6="13000.00000" pt_clust_7="13000.00000" pt_clust_8="13000.00000" pt_clust_9="23.18379"></scales>
<clustering>
<clus scale="   23.184">  1  9  2 -1</clus>
<clus scale="   90.515">  5  6 -1 -1</clus>
<clus scale="   91.083">  1  5  2 -1</clus>
<clus scale="  114.018">  7  8 -1 -1</clus>
<clus scale="  114.470">  2  5  1 -1</clus>
</clustering>
</event>
<event>
 9    1  0.1612788E-005  0.2732297E+03  0.7546771E-02  0.1099508E+00
          2   -1    0    0  502    0  0.00000000000E+00  0.00000000000E+00  0.13868084720E+04  0.13868084720E+04  0.00000000000E+00 0. -1.
         -2   -1    0    0    0  501 -0.00000000000E+00 -0.00000000000E+00 -0.77370070792E+02  0.77370070792E+02  0.00000000000E+00 0.  1.
         23    2    1    2    0    0 -0.24410718601E+03  0.50291990883E+02  0.36976617205E+03  0.45543191375E+03  0.92593754933E+02 0.  0.
         23    2    1    2    0    0  0.25892293027E+03 -0.27570991441E+02  0.94170793176E+03  0.98154563317E+03  0.93897592418E+02 0.  0.
        -11    1    4    4    0    0  0.43118916963E+02 -0.18585515478E+02  0.76290505351E+02  0.89581826239E+02  0.00000000000E+00 0.  1.
         11    1    4    4    0    0  0.21580401331E+03 -0.89854759628E+01  0.86541742641E+03  0.89196380693E+03  0.00000000000E+00 0. -1.
        -13    1    3    3    0    0 -0.20308396290E+03  0.74630206049E+02  0.28082573665E+03  0.35450790965E+03  0.00000000000E+00 0.  1.
         13    1    3    3    0    0 -0.41023223110E+02 -0.24338215166E+02  0.88940435405E+02  0.10092400409E+03  0.00000000000E+00 0. -1.
         21    1    1    2  502  501 -0.14815744263E+02 -0.22720999442E+02 -0.20357025706E+01  0.27200995913E+02  0.00000000000E+00 0.  1.
<scales pt_clust_5="13000.00000" pt_clust_6="13000.00000" pt_clust_7="13000.00000" pt_clust_8="13000.00000" pt_clust_9="27.12471"></scales>
<clustering>
<clus scale="   27.125">  2  9  1 -1</clus>
<clus scale="   92.594">  7  8 -1 -1</clus>
<clus scale="   93.898">  5  6 -1 -1</clus>
<clus scale="  272.784">  2  7  1 -1</clus>
<clus scale="  273.230">  1  5  2 -1</clus>
</clustering>
</event>
<event>
 9    1  0.1612788E-005  0.1161172E+03  0.7546771E-02  0.1250551E+00
         -1   -1    0    0    0  501 -0.00000000000E+00  0.00000000000E+00  0.21849866453E+03  0.21849866453E+03  0.00000000000E+00 0.  1.
          1   -1    0    0  502    0  0.00000000000E+00 -0.00000000000E+00 -0.18191155438E+03  0.18191155438E+03  0.00000000000E+00 0. -1.
         23    2    1    2    0    0 -0.88869632060E+00 -0.30613918321E+02  0.12631246851E+03  0.15905124970E+03  0.91675834076E+02 0.  0.
         23    2    1    2    0    0  0.76675070237E+02  0.29951618593E+02 -0.10913016277E+03  0.16312496416E+03  0.89017951310E+02 0.  0.
        -11    1    3    3    0    0 -0.29490691612E+02 -0.43501194865E+02  0.36685968886E+02  0.64093019585E+02  0.00000000000E+00 0.  1.
         11    1    3    3    0    0  0.28601995292E+02  0.12887276544E+02  0.89626499626E+02  0.94958230115E+02  0.00000000000E+00 0. -1.
        -11    1    4    4    0    0  0.36504071620E+02  0.10095465885E+02 -0.11199224074E+03  0.11822321118E+03  0.00000000000E+00 0. -1.
         11    1    4    4    0    0  0.40170998617E+02  0.19856152709E+02  0.28620779752E+01  0.44901752979E+02  0.00000000000E+00 0.  1.
         21    1    1    2  502  501 -0.75786373916E+02  0.66229972805E+00  0.19404804407E+02  0.78234005052E+02  0.00000000000E+00 0.  1.
<scales pt_clust_5="13000.00000" pt_clust_6="13000.00000" pt_clust_7="13000.00000" pt_clust_8="13000.00000" pt_clust_9="75.78927"></scales>
<clustering>
<clus scale="   75.789">  1  9  2 -1</clus>
<clus scale="   89.018">  7  8 -1 -1</clus>
<clus scale="   91.676">  5  6 -1 -1</clus>
<clus scale="  114.030">  2  7  1 -1</clus>
<clus scale="  114.030">  2  5  1 -1</clus>
</clustering>
</event>
<event>
 9    1  0.1612788E-005  0.1066486E+03  0.7546771E-02  0.1267591E+00
         -1   -1    0    0    0  501 -0.00000000000E+00  0.00000000000E+00  0.90318755977E+02  0.90318755977E+02  0.00000000000E+00 0.  1.
          1   -1    0    0  502    0  0.00000000000E+00 -0.00000000000E+00 -0.29251782919E+03  0.29251782919E+03  0.00000000000E+00 0. -1.
         23    2    1    2    0    0 -0.42371755352E+02 -0.42405290012E+02 -0.22893870255E+02  0.11548405358E+03  0.96014910635E+02 0.  0.
         23    2    1    2    0    0 -0.83352198721E+01  0.47469861415E+02 -0.18782405427E+03  0.21568612037E+03  0.94444499709E+02 0.  0.
        -13    1    3    3    0    0 -0.47051731475E+02  0.99379775799E+01 -0.37451638590E+02  0.60952883986E+02  0.00000000000E+00 0. -1.
         13    1    3    3    0    0  0.46799761224E+01 -0.52343267592E+02  0.14557768335E+02  0.54531169597E+02  0.00000000000E+00 0.  1.
        -13    1    4    4    0    0 -0.41849644750E+02  0.55360090633E+02 -0.14488160610E+03  0.16064498806E+03  0.00000000000E+00 0. -1.
         13    1    4    4    0    0  0.33514424878E+02 -0.78902292180E+01 -0.42942448171E+02  0.55041132318E+02  0.00000000000E+00 0.  1.
         21    1    1    2  502  501  0.50706975224E+02 -0.50645714029E+01  0.85188513117E+01  0.51666411213E+02  0.00000000000E+00 0. -1.
<scales pt_clust_5="13000.00000" pt_clust_6="13000.00000" pt_clust_7="13000.00000" pt_clust_8="13000.00000" pt_clust_9="50.95927"></scales>
<clustering>
<clus scale="   50.959">  1  9  2 -1</clus>
<clus scale="   94.444">  7  8 -1 -1</clus>
<clus scale="   96.015">  5  6 -1 -1</clus>
<clus scale="  105.237">  2  7  1 -1</clus>
<clus scale="  105.237">  2  5  1 -1</clus>
</clustering>
</event>
<event>
 9    1  0.1612788E-005  0.9502237E+02  0.7546771E-02  0.1291227E+00
         -1   -1    0    0    0  501 -0.00000000000E+00  0.00000000000E+00  0.22807759414E+03  0.22807759414E+03  0.00000000000E+00 0.  1.
          1   -1    0    0  502    0  0.00000000000E+00 -0.00000000000E+00 -0.73695618985E+02  0.73695618985E+02  0.00000000000E+00 0. -1.
         23    2    1    2    0    0  0.20364927987E+02  0.30787845554E+02  0.37412039151E+02  0.10473817062E+03  0.90596920401E+02 0.  0.
         23    2    1    2    0    0 -0.26407981790E+02 -0.41293924539E+01  0.20117994785E+02  0.96399610676E+02  0.90408615962E+02 0.  0.
        -11    1    3    3    0    0  0.31211740993E+02 -0.24887455957E+02  0.75195244031E+01  0.40621441224E+02  0.00000000000E+00 0.  1.
         11    1    3    3    0    0 -0.10846813007E+02  0.55675301512E+02  0.29892514748E+02  0.64116729399E+02  0.00000000000E+00 0. -1.
        -13    1    4    4    0    0  0.23705121543E+01 -0.43551923972E+02  0.19006688945E+02  0.47577764073E+02  0.00000000000E+00 0.  1.
         13    1    4    4    0    0 -0.28778493945E+02  0.39422531519E+02  0.11113058399E+01  0.48821846603E+02  0.00000000000E+00 0. -1.
         21    1    1    2  502  501  0.60430538036E+01 -0.26658453101E+02  0.96851941214E+02  0.10063543182E+03  0.00000000000E+00 0.  1.
<scales pt_clust_5="13000.00000" pt_clust_6="13000.00000" pt_clust_7="13000.00000" pt_clust_8="13000.00000" pt_clust_9="27.33481"></scales>
<clustering>
<clus scale="   27.335">  1  9  2 -1</clus>
<clus scale="   90.409">  7  8 -1 -1</clus>
<clus scale="   90.597">  5  6 -1 -1</clus>
<clus scale="   94.843">  2  7  1 -1</clus>
<clus scale="   94.843">  2  5  1 -1</clus>
</clustering>
</event>
<event>
 9    1  0.1612788E-005  0.9536138E+02  0.7546771E-02  0.1291437E+00
         -2   -1    0    0    0  501 -0.00000000000E+00  0.00000000000E+00  0.14495182087E+03  0.14495182087E+03  0.00000000000E+00 0.  1.
          2   -1    0    0  502    0  0.00000000000E+00 -0.00000000000E+00 -0.21166726383E+03  0.21166726383E+03  0.00000000000E+00 0. -1.
         23    2    1    2    0    0  0.31349366667E+01 -0.17335714164E+02  0.94068823865E+02  0.13246546263E+03  0.91584935193E+02 0.  0.
         23    2    1    2    0    0  0.15622886552E+02 -0.16322767719E+02 -0.15867570154E+03  0.18556352771E+03  0.93516507769E+02 0.  0.
        -13    1    3    3    0    0 -0.21330174904E+02 -0.27850875694E+02  0.99311365957E+02  0.10532518714E+03  0.00000000000E+00 0.  1.
         13    1    3    3    0    0  0.24465111571E+02  0.10515161530E+02 -0.52425420927E+01  0.27140275492E+02  0.00000000000E+00 0. -1.
        -13    1    4    4    0    0 -0.30938842755E+02 -0.31350467158E+02 -0.51623531614E+02  0.67860539331E+02  0.00000000000E+00 0.  1.
         13    1    4    4    0    0  0.46561729307E+02  0.15027699439E+02 -0.10705216993E+03  0.11770298838E+03  0.00000000000E+00 0. -1.
         21    1    1    2  502  501 -0.18757823219E+02  0.33658481883E+02 -0.21085652818E+01  0.38590094352E+02  0.00000000000E+00 0.  1.
<scales pt_clust_5="13000.00000" pt_clust_6="13000.00000" pt_clust_7="13000.00000" pt_clust_8="13000.00000" pt_clust_9="38.53245"></scales>
<clustering>
<clus scale="   38.532">  1  9  2 -1</clus>
<clus scale="   91.585">  5  6 -1 -1</clus>
<clus scale="   93.468">  1  5  2 -1</clus>
<clus scale="   93.517">  7  8 -1 -1</clus>
<clus scale="   95.361">  2  5  1 -1</clus>
</clustering>
</event>
<event>
 9    1  0.1612788E-005  0.1070657E+03  0.7546771E-02  0.1266956E+00
          1   -1    0    0  502    0  0.00000000000E+00  0.00000000000E+00  0.49008862289E+02  0.49008862289E+02  0.00000000000E+00 0. -1.
         -1   -1    0    0    0  501 -0.00000000000E+00 -0.00000000000E+00 -0.30186459908E+03  0.30186459908E+03  0.00000000000E+00 0.  1.
         23    2    1    2    0    0  0.20395562625E+02 -0.10850874980E+02 -0.14596240987E+03  0.18052964776E+03  0.10369285493E+03 0.  0.
         23    2    1    2    0    0 -0.80537493528E+01  0.31270644617E+02 -0.75200072115E+02  0.13067329877E+03  0.10187121317E+03 0.  0.
        -11    1    3    3    0    0  0.43205183135E+02 -0.14411716027E+01 -0.14948044112E+03  0.15560580678E+03  0.00000000000E+00 0.  1.
         11    1    3    3    0    0 -0.22809620510E+02 -0.94097033770E+01  0.35180312524E+01  0.24923840983E+02  0.00000000000E+00 0. -1.
        -13    1    4    4    0    0  0.42518966001E+01 -0.34588403800E+02 -0.45690694799E+02  0.57463691957E+02  0.00000000000E+00 0.  1.
         13    1    4    4    0    0 -0.12305645953E+02  0.65859048417E+02 -0.29509377316E+02  0.73209606817E+02  0.00000000000E+00 0. -1.
         21    1    1    2  502  501 -0.12341813272E+02 -0.20419769637E+02 -0.31693254808E+02  0.39670514834E+02  0.00000000000E+00 0. -1.
<scales pt_clust_5="13000.00000" pt_clust_6="13000.00000" pt_clust_7="13000.00000" pt_clust_8="13000.00000" pt_clust_9="23.85974"></scales>
<clustering>
<clus scale="   23.860">  2  9  1 -1</clus>
<clus scale="  101.871">  7  8 -1 -1</clus>
<clus scale="  103.693">  5  6 -1 -1</clus>
<clus scale="  105.302">  1  7  2 -1</clus>
<clus scale="  105.302">  1  5  2 -1</clus>
</clustering>
</event>
<event>
 9    1  0.1612788E-005  0.1450062E+03  0.7546771E-02  0.1208743E+00
          1   -1    0    0  502    0  0.00000000000E+00  0.00000000000E+00  0.20736438373E+03  0.20736438373E+03  0.00000000000E+00 0. -1.
         -1   -1    0    0    0  501 -0.00000000000E+00 -0.00000000000E+00 -0.22628680575E+03  0.22628680575E+03  0.00000000000E+00 0.  1.
         23    2    1    2    0    0 -0.87269777276E+02 -0.46122315249E+02  0.14625780894E+02  0.14097794462E+03  0.99587074532E+02 0.  0.
         23    2    1    2    0    0  0.10459732613E+03  0.34493279055E+02  0.89196879335E+02  0.16816688499E+03  0.90518677580E+02 0.  0.
        -13    1    3    3    0    0  0.21433777431E+02 -0.15105449962E+02  0.92593234206E+01  0.27808568890E+02  0.00000000000E+00 0. -1.
         13    1    3    3    0    0 -0.10870355471E+03 -0.31016865287E+02  0.53664574737E+01  0.11316937573E+03  0.00000000000E+00 0.  1.
        -13    1    4    4    0    0  0.86950066605E+02  0.62248354585E+02  0.53306494105E+02  0.11948537168E+03  0.00000000000E+00 0. -1.
         13    1    4    4    0    0  0.17647259526E+02 -0.27755075531E+02  0.35890385230E+02  0.48681513314E+02  0.00000000000E+00 0.  1.
         21    1    1    2  502  501 -0.17327548855E+02  0.11629036195E+02 -0.12274508225E+03  0.12450635987E+03  0.00000000000E+00 0.  1.
<scales pt_clust_5="13000.00000" pt_clust_6="13000.00000" pt_clust_7="13000.00000" pt_clust_8="13000.00000" pt_clust_9="20.86812"></scales>
<clustering>
<clus scale="   20.868">  2  9  1 -1</clus>
<clus scale="   90.519">  7  8 -1 -1</clus>
<clus scale="   99.587">  5  6 -1 -1</clus>
<clus scale="  138.935">  1  7  2 -1</clus>
<clus scale="  138.935">  1  5  2 -1</clus>
</clustering>
</event>
<event>
 9    1  0.1612788E-005  0.1781824E+03  0.7546771E-02  0.1169876E+00
          1   -1    0    0  502    0  0.00000000000E+00  0.00000000000E+00  0.29462020619E+03  0.29462020619E+03  0.00000000000E+00 0. -1.
         -1   -1    0    0    0  501 -0.00000000000E+00 -0.00000000000E+00 -0.13987416388E+03  0.13987416388E+03  0.00000000000E+00 0.  1.
         23    2    1    2    0    0 -0.62834634902E+01 -0.16205870763E+03  0.18207894424E+02  0.18824981929E+03  0.93829421889E+02 0.  0.
         23    2    1    2    0    0 -0.18714445654E+02  0.14552571041E+03  0.12785528830E+03  0.21504154596E+03  0.91476384263E+02 0.  0.
        -11    1    3    3    0    0 -0.31107947712E+02 -0.11166294097E+02  0.12134412600E+02  0.35208443645E+02  0.00000000000E+00 0.  1.
         11    1    3    3    0    0  0.24824484222E+02 -0.15089241353E+03  0.60734818236E+01  0.15304137565E+03  0.00000000000E+00 0. -1.
        -13    1    4    4    0    0  0.22602419061E+02  0.45173089695E+02  0.83942862206E+02  0.97968778166E+02  0.00000000000E+00 0. -1.
         13    1    4    4    0    0 -0.41316864715E+02  0.10035262071E+03  0.43912426090E+02  0.11707276779E+03  0.00000000000E+00 0.  1.
         21    1    1    2  502  501  0.24997909144E+02  0.16532997221E+02  0.86828595941E+01  0.31203004814E+02  0.00000000000E+00 0.  1.
<scales pt_clust_5="13000.00000" pt_clust_6="13000.00000" pt_clust_7="13000.00000" pt_clust_8="13000.00000" pt_clust_9="29.97058"></scales>
<clustering>
<clus scale="   29.971">  2  9  1 -1</clus>
<clus scale="   91.476">  7  8 -1 -1</clus>
<clus scale="   93.829">  5  6 -1 -1</clus>
<clus scale="  176.955">  1  7  2 -1</clus>
<clus scale="  176.955">  1  5  2 -1</clus>
</clustering>
</event>
<event>
 9    1  0.1612788E-005  0.1278172E+03  0.7546771E-02  0.1231301E+00
         -1   -1    0    0    0  501 -0.00000000000E+00  0.00000000000E+00  0.35598760201E+03  0.35598760201E+03  0.00000000000E+00 0.  1.
          1   -1    0    0  502    0  0.00000000000E+00 -0.00000000000E+00 -0.18837899207E+03  0.18837899207E+03  0.00000000000E+00 0. -1.
         23    2    1    2    0    0 -0.25499984417E+02  0.64638472513E+02  0.26156709705E+02  0.11702291608E+03  0.90453347599E+02 0.  0.
         23    2    1    2    0    0  0.11293817089E+02 -0.96612748282E+02 -0.10994488240E+03  0.17352383673E+03  0.92526057481E+02 0.  0.
        -11    1    4    4    0    0  0.32777680329E+02 -0.30866161546E+02 -0.16853873656E+01  0.45054819797E+02  0.00000000000E+00 0.  1.
         11    1    4    4    0    0 -0.21483863240E+02 -0.65746586736E+02 -0.10825949503E+03  0.12846901693E+03  0.00000000000E+00 0. -1.
        -11    1    3    3    0    0 -0.55466883768E+02  0.41625456061E+02  0.35777007428E+02  0.78033634080E+02  0.00000000000E+00 0.  1.
         11    1    3    3    0    0  0.29966899350E+02  0.23013016452E+02 -0.96202977222E+01  0.38989282003E+02  0.00000000000E+00 0. -1.
         21    1    1    2  502  501  0.14206167329E+02  0.31974275769E+02  0.25139678263E+03  0.25381984126E+03  0.00000000000E+00 0.  1.
<scales pt_clust_5="13000.00000" pt_clust_6="13000.00000" pt_clust_7="13000.00000" pt_clust_8="13000.00000" pt_clust_9="34.98813"></scales>
<clustering>
<clus scale="   34.988">  1  9  2 -1</clus>
<clus scale="   90.453">  7  8 -1 -1</clus>
<clus scale="   92.526">  5  6 -1 -1</clus>
<clus scale="  126.325">  1  7  2 -1</clus>
<clus scale="  127.817">  2  5  1 -1</clus>
</clustering>
</event>
<event>
 9    1  0.1612788E-005  0.9554684E+02  0.7546771E-02  0.1290015E+00
          1   -1    0    0  502    0  0.00000000000E+00  0.00000000000E+00  0.11450806843E+03  0.11450806843E+03  0.00000000000E+00 0. -1.
         -1   -1    0    0    0  501 -0.00000000000E+00 -0.00000000000E+00 -0.12689488811E+03  0.12689488811E+03  0.00000000000E+00 0.  1.
         23    2    1    2    0    0  0.40197279895E+02  0.91533257736E+01 -0.32347703967E+02  0.10478771194E+03  0.90744068332E+02 0.  0.
         23    2    1    2    0    0 -0.27693320047E+01 -0.25351401299E+02  0.17540957492E+02  0.95760808128E+02  0.90620551951E+02 0.  0.
        -13    1    3    3    0    0  0.83910252560E+01 -0.24494720672E+02  0.21582907033E+02  0.33707899989E+02  0.00000000000E+00 0. -1.
         13    1    3    3    0    0  0.31806254639E+02  0.33648046446E+02 -0.53930611000E+02  0.71079811948E+02  0.00000000000E+00 0.  1.
        -13    1    4    4    0    0 -0.38170744368E+02 -0.38642490821E+02  0.58565950327E+00  0.54319341118E+02  0.00000000000E+00 0.  1.
         13    1    4    4    0    0  0.35401412363E+02  0.13291089522E+02  0.16955297988E+02  0.41441467009E+02  0.00000000000E+00 0. -1.
         21    1    1    2  502  501 -0.37427947890E+02  0.16198075525E+02  0.24199268005E+01  0.40854436475E+02  0.00000000000E+00 0.  1.
<scales pt_clust_5="13000.00000" pt_clust_6="13000.00000" pt_clust_7="13000.00000" pt_clust_8="13000.00000" pt_clust_9="40.78270"></scales>
<clustering>
<clus scale="   40.783">  1  9  2 -1</clus>
<clus scale="   90.621">  7  8 -1 -1</clus>
<clus scale="   90.744">  5  6 -1 -1</clus>
<clus scale="   95.430">  1  7  2 -1</clus>
<clus scale="   40.783">  1  5  2 -1</clus>
</clustering>
</event>
<event>
 9    1  0.1612788E-005  0.1373853E+03  0.7546771E-02  0.1224770E+00
         -2   -1    0    0    0  501 -0.00000000000E+00  0.00000000000E+00  0.17066908056E+03  0.17066908056E+03  0.00000000000E+00 0.  1.
          2   -1    0    0  502    0  0.00000000000E+00 -0.00000000000E+00 -0.13695177128E+03  0.13695177128E+03  0.00000000000E+00 0. -1.
         23    2    1    2    0    0 -0.49069666204E+02  0.20525215669E+02  0.41364879589E+02  0.13382155856E+03  0.11562023894E+03 0.  0.
         23    2    1    2    0    0  0.73057807947E+02 -0.44586978183E+02 -0.36432978652E+02  0.12926841530E+03  0.89763686060E+02 0.  0.
        -11    1    3    3    0    0 -0.81783398179E+02  0.17591294512E+02  0.52938253519E+02  0.98997154231E+02  0.00000000000E+00 0. -1.
         11    1    3    3    0    0  0.32713731975E+02  0.29339211563E+01 -0.11573373930E+02  0.34824404333E+02  0.00000000000E+00 0.  1.
        -13    1    4    4    0    0  0.43136154200E+02 -0.31355083491E+02  0.25586536273E+02  0.59148456432E+02  0.00000000000E+00 0.  1.
         13    1    4    4    0    0  0.29921653747E+02 -0.13231894691E+02 -0.62019514924E+02  0.70119958867E+02  0.00000000000E+00 0. -1.
         21    1    1    2  502  501 -0.23988141743E+02  0.24061762514E+02  0.28785408342E+02  0.44530877972E+02  0.00000000000E+00 0.  1.
<scales pt_clust_5="13000.00000" pt_clust_6="13000.00000" pt_clust_7="13000.00000" pt_clust_8="13000.00000" pt_clust_9="33.97645"></scales>
<clustering>
<clus scale="   33.976">  1  9  2 -1</clus>
<clus scale="   89.764">  7  8 -1 -1</clus>
<clus scale="  115.620">  5  6 -1 -1</clus>
<clus scale="  116.465">  2  7  1 -1</clus>
<clus scale="  116.465">  2  5  1 -1</clus>
</clustering>
</event>
<event>
 9    1  0.1612788E-005  0.1123532E+03  0.7546771E-02  0.1257140E+00
          2   -1    0    0  502    0  0.00000000000E+00  0.00000000000E+00  0.13677188232E+03  0.13677188232E+03  0.00000000000E+00 0. -1.
         -2   -1    0    0    0  501 -0.00000000000E+00 -0.00000000000E+00 -0.19647592707E+03  0.19647592707E+03  0.00000000000E+00 0.  1.
         23    2    1    2    0    0  0.54321871136E+02 -0.39961391308E+02 -0.51798759322E+02  0.12395853579E+03  0.90193284938E+02 0.  0.
         23    2    1    2    0    0 -0.33324592969E+02  0.54306540125E+02  0.66578550817E+02  0.13058405874E+03  0.92518993577E+02 0.  0.
        -11    1    3    3    0    0  0.57193162364E+02 -0.10206507597E+02  0.64833549976E+01  0.58457373449E+02  0.00000000000E+00 0.  1.
         11    1    3    3    0    0 -0.28712912277E+01 -0.29754883711E+02 -0.58282114320E+02  0.65501162337E+02  0.00000000000E+00 0. -1.
        -11    1    4    4    0    0  0.20441180369E+02  0.44514797549E+02  0.65745564319E+01  0.49423009297E+02  0.00000000000E+00 0.  1.
         11    1    4    4    0    0 -0.53765773337E+02  0.97917425762E+01  0.60003994385E+02  0.81161049448E+02  0.00000000000E+00 0. -1.
         21    1    1    2  502  501 -0.20997278168E+02 -0.14345148818E+02 -0.74483836241E+02  0.78705214860E+02  0.00000000000E+00 0. -1.
<scales pt_clust_5="13000.00000" pt_clust_6="13000.00000" pt_clust_7="13000.00000" pt_clust_8="13000.00000" pt_clust_9="25.42969"></scales>
<clustering>
<clus scale="   25.430">  2  9  1 -1</clus>
<clus scale="   90.193">  5  6 -1 -1</clus>
<clus scale="   92.519">  7  8 -1 -1</clus>
<clus scale="  110.446">  2  5  1 -1</clus>
<clus scale="  112.353">  1  5  2 -1</clus>
</clustering>
</event>
<event>
 9    1  0.1612788E-005  0.1214403E+03  0.7546771E-02  0.1243441E+00
         -1   -1    0    0    0  501 -0.00000000000E+00  0.00000000000E+00  0.46305869473E+02  0.46305869473E+02  0.00000000000E+00 0.  1.
          1   -1    0    0  502    0  0.00000000000E+00 -0.00000000000E+00 -0.52651322472E+03  0.52651322472E+03  0.00000000000E+00 0. -1.
         23    2    1    2    0    0  0.50755035304E+02  0.30018474786E+02 -0.21044570757E+03  0.23966244596E+03  0.98354002119E+02 0.  0.
         23    2    1    2    0    0 -0.78733009355E+02 -0.25718972540E+02 -0.27790184255E+03  0.30370303175E+03  0.90253781581E+02 0.  0.
        -11    1    4    4    0    0  0.44063003118E+01 -0.37089832354E+02 -0.66770345137E+02  0.76507190095E+02  0.00000000000E+00 0.  1.
         11    1    4    4    0    0 -0.83139309667E+02  0.11370859814E+02 -0.21113149741E+03  0.22719584165E+03  0.00000000000E+00 0. -1.
        -11    1    3    3    0    0 -0.13622776502E+02  0.31332877299E+02 -0.22291594216E+02  0.40795151822E+02  0.00000000000E+00 0. -1.
         11    1    3    3    0    0  0.64377811806E+02 -0.13144025134E+01 -0.18815411335E+03  0.19886729414E+03  0.00000000000E+00 0.  1.
         21    1    1    2  502  501  0.27977974051E+02 -0.42995022455E+01  0.81401948691E+01  0.29453616485E+02  0.00000000000E+00 0.  1.
<scales pt_clust_5="13000.00000" pt_clust_6="13000.00000" pt_clust_7="13000.00000" pt_clust_8="13000.00000" pt_clust_9="28.30641"></scales>
<clustering>
<clus scale="   28.306">  1  9  2 -1</clus>
<clus scale="   90.254">  5  6 -1 -1</clus>
<clus scale="   98.354">  7  8 -1 -1</clus>
<clus scale="  114.978">  2  5  1 -1</clus>
<clus scale="  114.978">  2  5  1 -1</clus>
</clustering>
</event>
<event>
 9    1  0.1612788E-005  0.1108586E+03  0.7546771E-02  0.1259026E+00
         -1   -1    0    0    0  501 -0.00000000000E+00  0.00000000000E+00  0.24130047065E+03  0.24130047065E+03  0.00000000000E+00 0.  1.
          1   -1    0    0  502    0  0.00000000000E+00 -0.00000000000E+00 -0.11162898035E+03  0.11162898035E+03  0.00000000000E+00 0. -1.
         23    2    1    2    0    0  0.43922484993E+02  0.29285992169E+02  0.10051490610E+03  0.14520786667E+03  0.90527477422E+02 0.  0.
         23    2    1    2    0    0 -0.66878608025E+02 -0.13840505242E+02 -0.50007215305E+02  0.12386185738E+03  0.90425274869E+02 0.  0.
        -11    1    3    3    0    0  0.68847126950E+02  0.47134224762E+01  0.58046742662E+02  0.90175204876E+02  0.00000000000E+00 0.  1.
         11    1    3    3    0    0 -0.24924641957E+02  0.24572569693E+02  0.42468163438E+02  0.55032661791E+02  0.00000000000E+00 0. -1.
        -13    1    4    4    0    0 -0.69768283351E+01 -0.24550971238E+02  0.19028303135E+02  0.31835556262E+02  0.00000000000E+00 0.  1.
         13    1    4    4    0    0 -0.59901779690E+02  0.10710465995E+02 -0.69035518440E+02  0.92026301122E+02  0.00000000000E+00 0. -1.
         21    1    1    2  502  501  0.22956123032E+02 -0.15445486927E+02  0.79163799512E+02  0.83859726950E+02  0.00000000000E+00 0.  1.
<scales pt_clust_5="13000.00000" pt_clust_6="13000.00000" pt_clust_7="13000.00000" pt_clust_8="13000.00000" pt_clust_9="27.66851"></scales>
<clustering>
<clus scale="   27.669">  1  9  2 -1</clus>
<clus scale="   90.425">  7  8 -1 -1</clus>
<clus scale="   90.527">  5  6 -1 -1</clus>
<clus scale="  110.775">  2  7  1 -1</clus>
<clus scale="  110.775">  2  5  1 -1</clus>
</clustering>
</event>
<event>
 9    1  0.1612788E-005  0.1305303E+03  0.7546771E-02  0.1226744E+00
         -2   -1    0    0    0  501 -0.00000000000E+00  0.00000000000E+00  0.86516641930E+02  0.86516641930E+02  0.00000000000E+00 0.  1.
          2   -1    0    0  502    0  0.00000000000E+00 -0.00000000000E+00 -0.38554170159E+03  0.38554170159E+03  0.00000000000E+00 0. -1.
         23    2    1    2    0    0 -0.89609371399E+02 -0.97927556875E+02 -0.10519850769E+03  0.19295894493E+03  0.92448810548E+02 0.  0.
         23    2    1    2    0    0  0.51632577413E+02  0.55130143300E+02 -0.18630606796E+03  0.22138966656E+03  0.92726359537E+02 0.  0.
        -11    1    3    3    0    0 -0.94687325367E+02 -0.42442777421E+02 -0.52592339747E+02  0.11633156554E+03  0.00000000000E+00 0.  1.
         11    1    3    3    0    0  0.50779539677E+01 -0.55484779453E+02 -0.52606167943E+02  0.76627379396E+02  0.00000000000E+00 0. -1.
        -11    1    4    4    0    0 -0.22631751554E+02  0.33400839101E+02 -0.83314922365E+02  0.92569911525E+02  0.00000000000E+00 0.  1.
         11    1    4    4    0    0  0.74264328967E+02  0.21729304199E+02 -0.10299114559E+03  0.12881975504E+03  0.00000000000E+00 0. -1.
         21    1    1    2  502  501  0.37976793986E+02  0.42797413575E+02 -0.75204840110E+01  0.57709732021E+02  0.00000000000E+00 0.  1.
<scales pt_clust_5="13000.00000" pt_clust_6="13000.00000" pt_clust_7="13000.00000" pt_clust_8="13000.00000" pt_clust_9="57.21762"></scales>
<clustering>
<clus scale="   57.218">  1  9  2 -1</clus>
<clus scale="   92.449">  5  6 -1 -1</clus>
<clus scale="   92.726">  7  8 -1 -1</clus>
<clus scale="  130.333">  1  5  2 -1</clus>
<clus scale="  130.530">  2  5  1 -1</clus>
</clustering>
</event>
<event>
 9    1  0.1612788E-005  0.1427265E+03  0.7546771E-02  0.1209972E+00
         -2   -1    0    0    0  501 -0.00000000000E+00  0.00000000000E+00  0.24860673109E+03  0.24860673109E+03  0.00000000000E+00 0.  1.
          2   -1    0    0  502    0  0.00000000000E+00 -0.00000000000E+00 -0.31033514702E+03  0.31033514702E+03  0.00000000000E+00 0. -1.
         23    2    1    2    0    0 -0.17121948310E+03  0.26288866489E+02  0.74754320436E+02  0.20936366576E+03  0.90761887514E+02 0.  0.
         23    2    1    2    0    0  0.95171811223E+02 -0.31154025687E+02 -0.20572538403E+03  0.24661480901E+03  0.92020016434E+02 0.  0.
        -11    1    3    3    0    0 -0.73692407847E+02 -0.33465190637E+02  0.25768640112E+02  0.84938288021E+02  0.00000000000E+00 0. -1.
         11    1    3    3    0    0 -0.97527075249E+02  0.59754057126E+02  0.48985680324E+02  0.12442537774E+03  0.00000000000E+00 0.  1.
        -13    1    4    4    0    0  0.35180594573E+02  0.20334282236E+02 -0.13345008802E+03  0.13949940237E+03  0.00000000000E+00 0.  1.
         13    1    4    4    0    0  0.59991216650E+02 -0.51488307923E+02 -0.72275296001E+02  0.10711540664E+03  0.00000000000E+00 0. -1.
         21    1    1    2  502  501  0.76047671873E+02  0.48651591987E+01  0.69242647657E+02  0.10296340333E+03  0.00000000000E+00 0. -1.
<scales pt_clust_5="13000.00000" pt_clust_6="13000.00000" pt_clust_7="13000.00000" pt_clust_8="13000.00000" pt_clust_9="76.20314"></scales>
<clustering>
<clus scale="   76.203">  1  9  2 -1</clus>
<clus scale="   90.762">  5  6 -1 -1</clus>
<clus scale="   92.020">  7  8 -1 -1</clus>
<clus scale="  141.919">  1  5  2 -1</clus>
<clus scale="  142.726">  2  5  1 -1</clus>
</clustering>
</event>
<event>
 9    1  0.1612788E-005  0.1208066E+03  0.7546771E-02  0.1245222E+00
          1   -1    0    0  502    0  0.00000000000E+00  0.00000000000E+00  0.33751578936E+03  0.33751578936E+03  0.00000000000E+00 0. -1.
         -1   -1    0    0    0  501 -0.00000000000E+00 -0.00000000000E+00 -0.30816274884E+03  0.30816274884E+03  0.00000000000E+00 0.  1.
         23    2    1    2    0    0 -0.48971521946E+01  0.63106097459E+02 -0.24489083118E+03  0.26853673419E+03  0.90189227616E+02 0.  0.
         23    2    1    2    0    0  0.37417778977E+02 -0.56865877255E+02  0.30733082266E+03  0.33033071730E+03  0.10016151983E+03 0.  0.
        -11    1    3    3    0    0 -0.29496465600E+02  0.22549900453E+02 -0.19935779806E+03  0.20278577647E+03  0.00000000000E+00 0.  1.
         11    1    3    3    0    0  0.24599313405E+02  0.40556197007E+02 -0.45533033126E+02  0.65750957721E+02  0.00000000000E+00 0. -1.
        -13    1    4    4    0    0 -0.20051315125E+02 -0.39195724880E+02  0.52568087448E+02  0.68569409397E+02  0.00000000000E+00 0.  1.
         13    1    4    4    0    0  0.57469094102E+02 -0.17670152375E+02  0.25476273521E+03  0.26176130790E+03  0.00000000000E+00 0. -1.
         21    1    1    2  502  501 -0.32520626782E+02 -0.62402202043E+01 -0.33086950955E+02  0.46811086699E+02  0.00000000000E+00 0.  1.
<scales pt_clust_5="13000.00000" pt_clust_6="13000.00000" pt_clust_7="13000.00000" pt_clust_8="13000.00000" pt_clust_9="33.11392"></scales>
<clustering>
<clus scale="   33.114">  2  9  1 -1</clus>
<clus scale="   90.189">  5  6 -1 -1</clus>
<clus scale="  100.162">  7  8 -1 -1</clus>
<clus scale="  112.677">  2  5  1 -1</clus>
<clus scale="  120.807">  1  5  2 -1</clus>
</clustering>
</event>
<event>
 9    1  0.1612788E-005  0.3025630E+03  0.7546771E-02  0.1084025E+00
          1   -1    0    0  502    0  0.00000000000E+00  0.00000000000E+00  0.11978495792E+04  0.11978495792E+04  0.00000000000E+00 0. -1.
         -1   -1    0    0    0  501 -0.00000000000E+00 -0.00000000000E+00 -0.10469144828E+03  0.10469144828E+03  0.00000000000E+00 0.  1.
         23    2    1    2    0    0  0.20368941994E+03 -0.22618364702E+03  0.27069603554E+03  0.41789122203E+03  0.93318314475E+02 0.  0.
         23    2    1    2    0    0 -0.18075511039E+03  0.21620430501E+03  0.78933778548E+03  0.84314330319E+03  0.91759352066E+02 0.  0.
        -11    1    3    3    0    0  0.13975061696E+03 -0.91381799110E+02  0.16729960792E+03  0.23636841362E+03  0.00000000000E+00 0. -1.
         11    1    3    3    0    0  0.63938802988E+02 -0.13480184792E+03  0.10339642763E+03  0.18152280841E+03  0.00000000000E+00 0.  1.
        -11    1    4    4    0    0 -0.50415361302E+02  0.20745598792E+02  0.88155062203E+02  0.10365039082E+03  0.00000000000E+00 0.  1.
         11    1    4    4    0    0 -0.13033974909E+03  0.19545870622E+03  0.70118272328E+03  0.73949291237E+03  0.00000000000E+00 0. -1.
         21    1    1    2  502  501 -0.22934309557E+02  0.99793420175E+01  0.33124309857E+02  0.41506502207E+02  0.00000000000E+00 0.  1.
<scales pt_clust_5="13000.00000" pt_clust_6="13000.00000" pt_clust_7="13000.00000" pt_clust_8="13000.00000" pt_clust_9="25.01139"></scales>
<clustering>
<clus scale="   25.011">  2  9  1 -1</clus>
<clus scale="   91.759">  7  8 -1 -1</clus>
<clus scale="   93.318">  5  6 -1 -1</clus>
<clus scale="  302.086">  1  7  2 -1</clus>
<clus scale="  302.086">  1  5  2 -1</clus>
</clustering>
</event>
<event>
 9    1  0.1612788E-005  0.1051613E+03  0.7546771E-02  0.1269830E+00
          1   -1    0    0  502    0  0.00000000000E+00  0.00000000000E+00  0.14564499287E+03  0.14564499287E+03  0.00000000000E+00 0. -1.
         -1   -1    0    0    0  501 -0.00000000000E+00 -0.00000000000E+00 -0.98164368787E+02  0.98164368787E+02  0.00000000000E+00 0.  1.
         23    2    1    2    0    0  0.33034334149E+02  0.40062138512E+02  0.30155877168E+02  0.11007474540E+03  0.92254162355E+02 0.  0.
         23    2    1    2    0    0 -0.14899928247E+02 -0.48793947581E+02  0.30485632397E+02  0.10968653788E+03  0.92189509317E+02 0.  0.
        -13    1    3    3    0    0  0.31279027396E+02 -0.11282685626E+02  0.45593265505E+02  0.56430686769E+02  0.00000000000E+00 0.  1.
         13    1    3    3    0    0  0.17553067538E+01  0.51344824138E+02 -0.15437388337E+02  0.53644058629E+02  0.00000000000E+00 0. -1.
        -13    1    4    4    0    0 -0.40358165261E+02 -0.33177248601E+02  0.51349059302E+02  0.73254605447E+02  0.00000000000E+00 0. -1.
         13    1    4    4    0    0  0.25458237014E+02 -0.15616698980E+02 -0.20863426905E+02  0.36431932438E+02  0.00000000000E+00 0.  1.
         21    1    1    2  502  501 -0.18134405902E+02  0.87318090695E+01 -0.13160885479E+02  0.24048078377E+02  0.00000000000E+00 0.  1.
<scales pt_clust_5="13000.00000" pt_clust_6="13000.00000" pt_clust_7="13000.00000" pt_clust_8="13000.00000" pt_clust_9="20.12713"></scales>
<clustering>
<clus scale="   20.127">  2  9  1 -1</clus>
<clus scale="   92.190">  7  8 -1 -1</clus>
<clus scale="   92.254">  5  6 -1 -1</clus>
<clus scale="  105.105">  1  7  2 -1</clus>
<clus scale="  105.105">  1  5  2 -1</clus>
</clustering>
</event>
<event>
 9    1  0.1612788E-005  0.9276562E+02  0.7546771E-02  0.1297622E+00
         -2   -1    0    0    0  501 -0.00000000000E+00  0.00000000000E+00  0.36585140076E+02  0.36585140076E+02  0.00000000000E+00 0.  1.
          2   -1    0    0  502    0  0.00000000000E+00 -0.00000000000E+00 -0.33759480904E+03  0.33759480904E+03  0.00000000000E+00 0. -1.
         23    2    1    2    0    0  0.14755581943E+02  0.76405965563E+01 -0.12184137764E+03  0.15207931319E+03  0.89480111086E+02 0.  0.
         23    2    1    2    0    0 -0.53621565094E+01  0.26641187300E+02 -0.13084446680E+03  0.16211172726E+03  0.91768360791E+02 0.  0.
        -11    1    3    3    0    0 -0.15903386726E+02  0.33718695732E+02 -0.19425750236E+02  0.42038410096E+02  0.00000000000E+00 0.  1.
         11    1    3    3    0    0  0.30658968669E+02 -0.26078099175E+02 -0.10241562740E+03  0.11004090309E+03  0.00000000000E+00 0. -1.
        -13    1    4    4    0    0  0.96779272399E+00  0.59473242229E+02 -0.64011783128E+02  0.87381414175E+02  0.00000000000E+00 0. -1.
         13    1    4    4    0    0 -0.63299492334E+01 -0.32832054929E+02 -0.66832683669E+02  0.74730313090E+02  0.00000000000E+00 0.  1.
         21    1    1    2  502  501 -0.93934254339E+01 -0.34281783856E+02 -0.48323824525E+02  0.59988908662E+02  0.00000000000E+00 0.  1.
<scales pt_clust_5="13000.00000" pt_clust_6="13000.00000" pt_clust_7="13000.00000" pt_clust_8="13000.00000" pt_clust_9="35.54542"></scales>
<clustering>
<clus scale="   35.545">  2  9  1 -1</clus>
<clus scale="   89.480">  5  6 -1 -1</clus>
<clus scale="   90.503">  1  5  2 -1</clus>
<clus scale="   91.768">  7  8 -1 -1</clus>
<clus scale="   35.545">  2  5  1 -1</clus>
</clustering>
</event>
<event>
 9    1  0.1612788E-005  0.1007159E+03  0.7546771E-02  0.1279151E+00
         -1   -1    0    0    0  501 -0.00000000000E+00  0.00000000000E+00  0.13291743964E+03  0.13291743964E+03  0.00000000000E+00 0.  1.
          1   -1    0    0  502    0  0.00000000000E+00 -0.00000000000E+00 -0.20678406032E+03  0.20678406032E+03  0.00000000000E+00 0. -1.
         23    2    1    2    0    0  0.26054822451E+02  0.17738467882E+02 -0.24786643501E+02  0.99384372839E+02  0.90936070142E+02 0.  0.
         23    2    1    2    0    0 -0.49140405989E+02  0.74734051422E+00 -0.12277045210E+03  0.16091337801E+03  0.91679841257E+02 0.  0.
        -13    1    3    3    0    0  0.43806176777E+02 -0.24567035205E+02 -0.15631720958E+02  0.52601055528E+02  0.00000000000E+00 0.  1.
         13    1    3    3    0    0 -0.17751354326E+02  0.42305503087E+02 -0.91549225430E+01  0.46783317311E+02  0.00000000000E+00 0. -1.
        -13    1    4    4    0    0 -0.24023643562E+02 -0.39212255689E+02 -0.24989603596E+02  0.52337527015E+02  0.00000000000E+00 0.  1.
         13    1    4    4    0    0 -0.25116762428E+02  0.39959596203E+02 -0.97780848508E+02  0.10857585099E+03  0.00000000000E+00 0. -1.
         21    1    1    2  502  501  0.23085583538E+02 -0.18485808396E+02  0.73690474923E+02  0.79403749117E+02  0.00000000000E+00 0.  1.
<scales pt_clust_5="13000.00000" pt_clust_6="13000.00000" pt_clust_7="13000.00000" pt_clust_8="13000.00000" pt_clust_9="29.57481"></scales>
<clustering>
<clus scale="   29.575">  1  9  2 -1</clus>
<clus scale="   90.936">  5  6 -1 -1</clus>
<clus scale="   91.680">  7  8 -1 -1</clus>
<clus scale="  100.039">  1  5  2 -1</clus>
<clus scale="  100.716">  2  5  1 -1</clus>
</clustering>
</event>
<event>
 9    1  0.1612788E-005  0.1573477E+03  0.7546771E-02  0.1191747E+00
         -2   -1    0    0    0  501 -0.00000000000E+00  0.00000000000E+00  0.64010704423E+02  0.64010704423E+02  0.00000000000E+00 0.  1.
          2   -1    0    0  502    0  0.00000000000E+00 -0.00000000000E+00 -0.77149111543E+03  0.77149111543E+03  0.00000000000E+00 0. -1.
         23    2    1    2    0    0 -0.27915695853E+02  0.12542913363E+03 -0.24278398263E+03  0.28957861375E+03  0.91651283004E+02 0.  0.
         23    2    1    2    0    0  0.69598960419E+02 -0.11015040946E+03 -0.47446255649E+03  0.50046651006E+03  0.91514382391E+02 0.  0.
        -13    1    3    3    0    0 -0.63883037500E+01  0.13080357378E+03 -0.22794263218E+03  0.26288444021E+03  0.00000000000E+00 0. -1.
         13    1    3    3    0    0 -0.21527392103E+02 -0.53744401427E+01 -0.14841350451E+02  0.26694173536E+02  0.00000000000E+00 0.  1.
        -13    1    4    4    0    0  0.76901647295E+01 -0.74098734793E+02 -0.34046431533E+03  0.34851931244E+03  0.00000000000E+00 0.  1.
         13    1    4    4    0    0  0.61908795689E+02 -0.36051674671E+02 -0.13399824116E+03  0.15194719762E+03  0.00000000000E+00 0. -1.
         21    1    1    2  502  501 -0.41683264566E+02 -0.15278724171E+02  0.97661281164E+01  0.45456696048E+02  0.00000000000E+00 0.  1.
<scales pt_clust_5="13000.00000" pt_clust_6="13000.00000" pt_clust_7="13000.00000" pt_clust_8="13000.00000" pt_clust_9="44.39520"></scales>
<clustering>
<clus scale="   44.395">  1  9  2 -1</clus>
<clus scale="   91.514">  7  8 -1 -1</clus>
<clus scale="   91.651">  5  6 -1 -1</clus>
<clus scale="  157.268">  2  7  1 -1</clus>
<clus scale="  157.268">  2  5  1 -1</clus>
</clustering>
</event>
<event>
 9    1  0.1612788E-005  0.1059365E+03  0.7546771E-02  0.1280238E+00
          1   -1    0    0  502    0  0.00000000000E+00  0.00000000000E+00  0.21095343708E+03  0.21095343708E+03  0.00000000000E+00 0. -1.
         -1   -1    0    0    0  501 -0.00000000000E+00 -0.00000000000E+00 -0.67891887264E+02  0.67891887264E+02  0.00000000000E+00 0.  1.
         23    2    1    2    0    0  0.42037618541E+01  0.35919028404E+02  0.44374136311E+02  0.10618220961E+03  0.89430137254E+02 0.  0.
         23    2    1    2    0    0  0.88473443389E+01 -0.68910463378E+02  0.10056400736E+03  0.13713442549E+03  0.62175586957E+02 0.  0.
        -11    1    3    3    0    0  0.39903963134E+02  0.43660897505E+02  0.20769677076E+02  0.62689550410E+02  0.00000000000E+00 0.  1.
         11    1    3    3    0    0 -0.35700201280E+02 -0.77418691011E+01  0.23604459235E+02  0.43492659201E+02  0.00000000000E+00 0. -1.
        -13    1    4    4    0    0  0.33030015808E+02 -0.31532505766E+02  0.33483242443E+02  0.56625156853E+02  0.00000000000E+00 0.  1.
         13    1    4    4    0    0 -0.24182671469E+02 -0.37377957612E+02  0.67080764919E+02  0.80509268639E+02  0.00000000000E+00 0. -1.
         21    1    1    2  502  501 -0.13051106193E+02  0.32991434974E+02 -0.18765938597E+01  0.35528689238E+02  0.00000000000E+00 0. -1.
<scales pt_clust_5="13000.00000" pt_clust_6="13000.00000" pt_clust_7="13000.00000" pt_clust_8="13000.00000" pt_clust_9="35.47909"></scales>
<clustering>
<clus scale="   35.479">  2  9  1 -1</clus>
<clus scale="   62.176">  7  8 -1 -1</clus>
<clus scale="   84.206">  1  7  2 -1</clus>
<clus scale="   89.430">  5  6 -1 -1</clus>
<clus scale="   84.206">  1  5  2 -1</clus>
</clustering>
</event>
<event>
 9    1  0.1612788E-005  0.1731796E+03  0.7546771E-02  0.1175152E+00
          2   -1    0    0  502    0  0.00000000000E+00  0.00000000000E+00  0.95690370799E+03  0.95690370799E+03  0.00000000000E+00 0. -1.
         -2   -1    0    0    0  501 -0.00000000000E+00 -0.00000000000E+00 -0.43775135190E+02  0.43775135190E+02  0.00000000000E+00 0.  1.
         23    2    1    2    0    0  0.13270799565E+03  0.82869392993E+02  0.43712683883E+03  0.47315352573E+03  0.91190116173E+02 0.  0.
         23    2    1    2    0    0 -0.10934154741E+03 -0.79991154643E+02  0.47597212823E+03  0.50398224977E+03  0.95364995744E+02 0.  0.
        -11    1    4    4    0    0 -0.90548426782E+02 -0.91830644450E+02  0.45675112696E+03  0.47460876186E+03  0.00000000000E+00 0.  1.
         11    1    4    4    0    0 -0.18793120632E+02  0.11839489807E+02  0.19221001271E+02  0.29373487907E+02  0.00000000000E+00 0. -1.
        -11    1    3    3    0    0  0.82460175946E+02  0.98118174163E+02  0.29513583963E+03  0.32176392053E+03  0.00000000000E+00 0. -1.
         11    1    3    3    0    0  0.50247819707E+02 -0.15248781170E+02  0.14199099920E+03  0.15138960521E+03  0.00000000000E+00 0.  1.
         21    1    1    2  502  501 -0.23366448238E+02 -0.28782383502E+01  0.29605742296E-01  0.23543067680E+02  0.00000000000E+00 0.  1.
<scales pt_clust_5="13000.00000" pt_clust_6="13000.00000" pt_clust_7="13000.00000" pt_clust_8="13000.00000" pt_clust_9="23.54305"></scales>
<clustering>
<clus scale="   23.543">  2  9  1 -1</clus>
<clus scale="   91.190">  7  8 -1 -1</clus>
<clus scale="   95.365">  5  6 -1 -1</clus>
<clus scale="  170.916">  2  7  1 -1</clus>
<clus scale="  173.180">  1  5  2 -1</clus>
</clustering>
</event>
<event>
 9    1  0.1612788E-005  0.1180046E+03  0.7546771E-02  0.1252447E+00
          1   -1    0    0  502    0  0.00000000000E+00  0.00000000000E+00  0.44533750273E+03  0.44533750273E+03  0.00000000000E+00 0. -1.
         -1   -1    0    0    0  501 -0.00000000000E+00 -0.00000000000E+00 -0.46957384605E+02  0.46957384605E+02  0.00000000000E+00 0.  1.
         23    2    1    2    0    0 -0.24405764298E+02  0.58773733743E+02  0.21371667709E+03  0.24719673174E+03  0.10668370545E+03 0.  0.
         23    2    1    2    0    0  0.32243580368E+02 -0.28102630673E+02  0.18778043889E+03  0.21328835208E+03  0.91657086897E+02 0.  0.
        -11    1    4    4    0    0 -0.58413560017E+00  0.32302583510E+02  0.55930917608E+02  0.64591529323E+02  0.00000000000E+00 0.  1.
         11    1    4    4    0    0  0.32827715968E+02 -0.60405214184E+02  0.13184952128E+03  0.14869682276E+03  0.00000000000E+00 0. -1.
        -13    1    3    3    0    0  0.14793382490E+02  0.54257296938E+02  0.39892060407E+02  0.68949800000E+02  0.00000000000E+00 0.  1.
         13    1    3    3    0    0 -0.39199146788E+02  0.45164368058E+01  0.17382461668E+03  0.17824693174E+03  0.00000000000E+00 0. -1.
         21    1    1    2  502  501 -0.78378160696E+01 -0.30671103070E+02 -0.31169978492E+01  0.31809803518E+02  0.00000000000E+00 0. -1.
<scales pt_clust_5="13000.00000" pt_clust_6="13000.00000" pt_clust_7="13000.00000" pt_clust_8="13000.00000" pt_clust_9="31.65672"></scales>
<clustering>
<clus scale="   31.657">  2  9  1 -1</clus>
<clus scale="   91.657">  5  6 -1 -1</clus>
<clus scale="  104.617">  1  5  2 -1</clus>
<clus scale="  106.684">  7  8 -1 -1</clus>
<clus scale="  104.617">  1  5  2 -1</clus>
</clustering>
</event>
<event>
 9    1  0.1612788E-005  0.9290310E+02  0.7546771E-02  0.1296020E+00
         -2   -1    0    0    0  501 -0.00000000000E+00  0.00000000000E+00  0.18892140252E+02  0.18892140252E+02  0.00000000000E+00 0.  1.
          2   -1    0    0  502    0  0.00000000000E+00 -0.00000000000E+00 -0.74417294856E+03  0.74417294856E+03  0.00000000000E+00 0. -1.
         23    2    1    2    0    0  0.79510597707E+00  0.14071789447E+01 -0.26894127841E+03  0.28382153600E+03  0.90678777640E+02 0.  0.
         23    2    1    2    0    0  0.35422535618E+02 -0.47240320604E+01 -0.40331898025E+03  0.41494815825E+03  0.90767294223E+02 0.  0.
        -11    1    3    3    0    0 -0.34888147807E+02 -0.26192912910E+02 -0.16162032670E+03  0.16740484325E+03  0.00000000000E+00 0. -1.
         11    1    3    3    0    0  0.35683253784E+02  0.27600091855E+02 -0.10732095172E+03  0.11641669274E+03  0.00000000000E+00 0.  1.
        -11    1    4    4    0    0 -0.83270278298E+01  0.36400041098E+02 -0.14307321575E+03  0.14786563986E+03  0.00000000000E+00 0.  1.
         11    1    4    4    0    0  0.43749563448E+02 -0.41124073159E+02 -0.26024576449E+03  0.26708251839E+03  0.00000000000E+00 0. -1.
         21    1    1    2  502  501 -0.36217641595E+02  0.33168531157E+01 -0.53020549646E+02  0.64295394564E+02  0.00000000000E+00 0.  1.
<scales pt_clust_5="13000.00000" pt_clust_6="13000.00000" pt_clust_7="13000.00000" pt_clust_8="13000.00000" pt_clust_9="36.36921"></scales>
<clustering>
<clus scale="   36.369">  1  9  2 -1</clus>
<clus scale="   90.679">  5  6 -1 -1</clus>
<clus scale="   90.767">  7  8 -1 -1</clus>
<clus scale="   92.817">  1  5  2 -1</clus>
<clus scale="   92.903">  2  5  1 -1</clus>
</clustering>
</event>
<event>
 9    1  0.1612788E-005  0.9851696E+02  0.7546771E-02  0.1293215E+00
          1   -1    0    0  502    0  0.00000000000E+00  0.00000000000E+00  0.71340405334E+03  0.71340405334E+03  0.00000000000E+00 0. -1.
         -1   -1    0    0    0  501 -0.00000000000E+00 -0.00000000000E+00 -0.20824701328E+02  0.20824701328E+02  0.00000000000E+00 0.  1.
         23    2    1    2    0    0  0.40503585076E+02 -0.37894292449E+02  0.38320116766E+03  0.39764735758E+03  0.90574655867E+02 0.  0.
         23    2    1    2    0    0 -0.19133688709E+02  0.19413174221E+02  0.29487590043E+03  0.30482387136E+03  0.72269125625E+02 0.  0.
        -13    1    3    3    0    0 -0.21902029060E+02 -0.36126452159E+02  0.18873769058E+03  0.19340820890E+03  0.00000000000E+00 0. -1.
         13    1    3    3    0    0  0.62405614136E+02 -0.17678402904E+01  0.19446347708E+03  0.20423914868E+03  0.00000000000E+00 0.  1.
        -13    1    4    4    0    0  0.12302379460E+02  0.37264621576E+02  0.12011487960E+03  0.12636290937E+03  0.00000000000E+00 0.  1.
         13    1    4    4    0    0 -0.31436068168E+02 -0.17851447355E+02  0.17476102083E+03  0.17846096199E+03  0.00000000000E+00 0. -1.
         21    1    1    2  502  501 -0.21369896368E+02  0.18481118228E+02  0.14502283917E+02  0.31757525731E+02  0.00000000000E+00 0. -1.
<scales pt_clust_5="13000.00000" pt_clust_6="13000.00000" pt_clust_7="13000.00000" pt_clust_8="13000.00000" pt_clust_9="28.25286"></scales>
<clustering>
<clus scale="   28.253">  2  9  1 -1</clus>
<clus scale="   72.269">  7  8 -1 -1</clus>
<clus scale="   82.004">  1  7  2 -1</clus>
<clus scale="   90.575">  5  6 -1 -1</clus>
<clus scale="   82.004">  1  5  2 -1</clus>
</clustering>
</event>
<event>
 9    1  0.1612788E-005  0.1238886E+03  0.7546771E-02  0.1256449E+00
         -2   -1    0    0    0  501 -0.00000000000E+00  0.00000000000E+00  0.41845499077E+03  0.41845499077E+03  0.00000000000E+00 0.  1.
          2   -1    0    0  502    0  0.00000000000E+00 -0.00000000000E+00 -0.10993081987E+03  0.10993081987E+03  0.00000000000E+00 0. -1.
         23    2    1    2    0    0 -0.50682324880E+02 -0.59071432541E+02  0.11764107946E+03  0.16726760151E+03  0.89893796995E+02 0.  0.
         23    2    1    2    0    0  0.33256208798E+02 -0.29461535964E+02 -0.54467086257E+02  0.99701940072E+02  0.70709658773E+02 0.  0.
        -11    1    3    3    0    0 -0.45109044683E+02  0.88767455746E+01  0.25269488407E+02  0.52461124355E+02  0.00000000000E+00 0.  1.
         11    1    3    3    0    0 -0.55732801973E+01 -0.67948178116E+02  0.92371591057E+02  0.11480647715E+03  0.00000000000E+00 0. -1.
        -13    1    4    4    0    0 -0.13892804454E+01  0.21223670271E+02 -0.80745679713E+01  0.22750229182E+02  0.00000000000E+00 0.  1.
         13    1    4    4    0    0  0.34645489243E+02 -0.50685206234E+02 -0.46392518286E+02  0.76951710889E+02  0.00000000000E+00 0. -1.
         21    1    1    2  502  501  0.17426116082E+02  0.88532968505E+02  0.24535017770E+03  0.26141626906E+03  0.00000000000E+00 0.  1.
<scales pt_clust_5="13000.00000" pt_clust_6="13000.00000" pt_clust_7="13000.00000" pt_clust_8="13000.00000" pt_clust_9="85.24952"></scales>
<clustering>
<clus scale="   70.710">  7  8 -1 -1</clus>
<clus scale="   83.509">  2  7  1 -1</clus>
<clus scale="   85.250">  1  9  2 -1</clus>
<clus scale="   89.894">  5  6 -1 -1</clus>
<clus scale="   83.509">  2  5  1 -1</clus>
</clustering>
</event>
<event>
 9    1  0.1612788E-005  0.1263754E+03  0.7546771E-02  0.1236950E+00
          1   -1    0    0  502    0  0.00000000000E+00  0.00000000000E+00  0.18881690192E+03  0.18881690192E+03  0.00000000000E+00 0. -1.
         -1   -1    0    0    0  501 -0.00000000000E+00 -0.00000000000E+00 -0.12501856829E+03  0.12501856829E+03  0.00000000000E+00 0.  1.
         23    2    1    2    0    0  0.33298585483E+02  0.99518310784E+02  0.18036767647E+02  0.14047355718E+03  0.91623170123E+02 0.  0.
         23    2    1    2    0    0 -0.43585555813E+02 -0.66111922060E+02  0.69902551961E+02  0.13088137902E+03  0.77285714654E+02 0.  0.
        -13    1    3    3    0    0  0.47729867942E+02  0.17245350500E+02 -0.11208446555E+02  0.51972797517E+02  0.00000000000E+00 0.  1.
         13    1    3    3    0    0 -0.14431282459E+02  0.82272960284E+02  0.29245214202E+02  0.88500759663E+02  0.00000000000E+00 0. -1.
        -13    1    4    4    0    0  0.90249588655E+01 -0.32241270677E+02 -0.43710073565E+01  0.33764702319E+02  0.00000000000E+00 0.  1.
         13    1    4    4    0    0 -0.52610514679E+02 -0.33870651384E+02  0.74273559318E+02  0.97116676702E+02  0.00000000000E+00 0. -1.
         21    1    1    2  502  501  0.10286970330E+02 -0.33406388724E+02 -0.24140985980E+02  0.42480534015E+02  0.00000000000E+00 0. -1.
<scales pt_clust_5="13000.00000" pt_clust_6="13000.00000" pt_clust_7="13000.00000" pt_clust_8="13000.00000" pt_clust_9="34.95438"></scales>
<clustering>
<clus scale="   34.954">  2  9  1 -1</clus>
<clus scale="   77.286">  7  8 -1 -1</clus>
<clus scale="   91.623">  5  6 -1 -1</clus>
<clus scale="  116.400">  1  7  2 -1</clus>
<clus scale="  116.400">  1  5  2 -1</clus>
</clustering>
</event>
<event>
 9    1  0.1612788E-005  0.1789775E+03  0.7546771E-02  0.1169526E+00
         -1   -1    0    0    0  501 -0.00000000000E+00  0.00000000000E+00  0.16502751865E+03  0.16502751865E+03  0.00000000000E+00 0.  1.
          1   -1    0    0  502    0  0.00000000000E+00 -0.00000000000E+00 -0.29694701699E+03  0.29694701699E+03  0.00000000000E+00 0. -1.
         23    2    1    2    0    0  0.10773736836E+03  0.13566815296E+03  0.19738512223E+02  0.19872256879E+03  0.95330279616E+02 0.  0.
         23    2    1    2    0    0 -0.85461642048E+02 -0.11611516621E+03 -0.15912602871E+03  0.23268566893E+03  0.89638738425E+02 0.  0.
        -11    1    4    4    0    0 -0.56626192510E+02 -0.14529954675E+02 -0.29471349788E+02  0.65469120349E+02  0.00000000000E+00 0.  1.
         11    1    4    4    0    0 -0.28835449538E+02 -0.10158521153E+03 -0.12965467892E+03  0.16721654858E+03  0.00000000000E+00 0. -1.
        -13    1    3    3    0    0  0.11793365861E+03  0.10286106644E+03 -0.47043773965E+01  0.15655950303E+03  0.00000000000E+00 0.  1.
         13    1    3    3    0    0 -0.10196290253E+02  0.32807086521E+02  0.24442889619E+02  0.42163065755E+02  0.00000000000E+00 0. -1.
         21    1    1    2  502  501 -0.22275726313E+02 -0.19552986753E+02  0.74680181532E+01  0.30566297926E+02  0.00000000000E+00 0.  1.
<scales pt_clust_5="13000.00000" pt_clust_6="13000.00000" pt_clust_7="13000.00000" pt_clust_8="13000.00000" pt_clust_9="29.63996"></scales>
<clustering>
<clus scale="   29.640">  1  9  2 -1</clus>
<clus scale="   89.639">  5  6 -1 -1</clus>
<clus scale="   95.330">  7  8 -1 -1</clus>
<clus scale="  176.012">  2  5  1 -1</clus>
<clus scale="  176.012">  2  5  1 -1</clus>
</clustering>
</event>
<event>
 9    1  0.1612788E-005  0.9194646E+02  0.7546771E-02  0.1298255E+00
         -2   -1    0    0    0  501 -0.00000000000E+00  0.00000000000E+00  0.89591097298E+03  0.89591097298E+03  0.00000000000E+00 0.  1.
          2   -1    0    0  502    0  0.00000000000E+00 -0.00000000000E+00 -0.35796173907E+02  0.35796173907E+02  0.00000000000E+00 0. -1.
         23    2    1    2    0    0 -0.60323453718E+02 -0.58818213868E+02  0.54907737069E+03  0.56294554703E+03  0.91231730027E+02 0.  0.
         23    2    1    2    0    0  0.22809938819E+01 -0.10211527050E+02  0.83703560040E+02  0.12419111928E+03  0.91146420263E+02 0.  0.
        -13    1    4    4    0    0  0.42261931491E+02  0.41369345706E+01  0.18379753201E+02  0.46270945622E+02  0.00000000000E+00 0.  1.
         13    1    4    4    0    0 -0.39980937609E+02 -0.14348461621E+02  0.65323806839E+02  0.77920173658E+02  0.00000000000E+00 0. -1.
        -13    1    3    3    0    0  0.22177910193E+02 -0.11776556143E+02  0.65874953395E+02  0.70498627362E+02  0.00000000000E+00 0. -1.
         13    1    3    3    0    0 -0.82501363912E+02 -0.47041657726E+02  0.48320241730E+03  0.49244691967E+03  0.00000000000E+00 0.  1.
         21    1    1    2  502  501  0.58042459836E+02  0.69029740919E+02  0.22733386834E+03  0.24457048057E+03  0.00000000000E+00 0. -1.
<scales pt_clust_5="13000.00000" pt_clust_6="13000.00000" pt_clust_7="13000.00000" pt_clust_8="13000.00000" pt_clust_9="90.18887"></scales>
<clustering>
<clus scale="   90.189">  1  9  2 -1</clus>
<clus scale="   91.146">  5  6 -1 -1</clus>
<clus scale="   91.232">  7  8 -1 -1</clus>
<clus scale="   91.862">  2  5  1 -1</clus>
<clus scale="   91.862">  2  5  1 -1</clus>
</clustering>
</event>
<event>
 9    1  0.1612788E-005  0.1067168E+03  0.7546771E-02  0.1276090E+00
          2   -1    0    0  502    0  0.00000000000E+00  0.00000000000E+00  0.37398906848E+03  0.37398906848E+03  0.00000000000E+00 0. -1.
         -2   -1    0    0    0  501 -0.00000000000E+00 -0.00000000000E+00 -0.49089660710E+02  0.49089660710E+02  0.00000000000E+00 0.  1.
         23    2    1    2    0    0  0.45428187878E+02 -0.35639111942E+02  0.76120645053E+02  0.13815127206E+03  0.99787548400E+02 0.  0.
         23    2    1    2    0    0 -0.21206858684E+02  0.25500840454E+02  0.24278065743E+03  0.25799356391E+03  0.80735417748E+02 0.  0.
        -11    1    3    3    0    0 -0.24099538591E+02 -0.38555152265E+02  0.34397483798E+02  0.57012932025E+02  0.00000000000E+00 0.  1.
         11    1    3    3    0    0  0.69527726469E+02  0.29160403225E+01  0.41723161256E+02  0.81138340039E+02  0.00000000000E+00 0. -1.
        -13    1    4    4    0    0  0.30440090549E+02  0.21857226077E+01  0.79226541051E+02  0.84901244413E+02  0.00000000000E+00 0. -1.
         13    1    4    4    0    0 -0.51646949233E+02  0.23315117846E+02  0.16355411638E+03  0.17309231950E+03  0.00000000000E+00 0.  1.
         21    1    1    2  502  501 -0.24221329194E+02  0.10138271488E+02  0.59981052879E+01  0.26933893216E+02  0.00000000000E+00 0. -1.
<scales pt_clust_5="13000.00000" pt_clust_6="13000.00000" pt_clust_7="13000.00000" pt_clust_8="13000.00000" pt_clust_9="26.25752"></scales>
<clustering>
<clus scale="   26.258">  2  9  1 -1</clus>
<clus scale="   80.735">  7  8 -1 -1</clus>
<clus scale="   89.158">  1  7  2 -1</clus>
<clus scale="   99.788">  5  6 -1 -1</clus>
<clus scale="   89.158">  1  5  2 -1</clus>
</clustering>
</event>
<event>
 9    1  0.1612788E-005  0.9906574E+02  0.7546771E-02  0.1283494E+00
         -4   -1    0    0    0  501 -0.00000000000E+00  0.00000000000E+00  0.15352430475E+03  0.15352430475E+03  0.00000000000E+00 0.  1.
          4   -1    0    0  502    0  0.00000000000E+00 -0.00000000000E+00 -0.17202619576E+03  0.17202619576E+03  0.00000000000E+00 0. -1.
         23    2    1    2    0    0  0.13231644851E+02 -0.40021899470E+02  0.68417676945E+01  0.10147291103E+03  0.92049513982E+02 0.  0.
         23    2    1    2    0    0  0.28471723735E+02  0.29534976312E+02 -0.98424731476E+02  0.13928378248E+03  0.89607981888E+02 0.  0.
        -13    1    3    3    0    0  0.34128280267E+01  0.23619157173E+02 -0.20551873097E+02  0.31494308509E+02  0.00000000000E+00 0. -1.
         13    1    3    3    0    0  0.98188168238E+01 -0.63641056643E+02  0.27393640791E+02  0.69978602517E+02  0.00000000000E+00 0.  1.
        -13    1    4    4    0    0  0.60740828104E+02  0.25767230478E+02 -0.63224755007E+02  0.91382536685E+02  0.00000000000E+00 0.  1.
         13    1    4    4    0    0 -0.32269104369E+02  0.37677458341E+01 -0.35199976470E+02  0.47901245797E+02  0.00000000000E+00 0. -1.
         21    1    1    2  502  501 -0.41703368586E+02  0.10486923158E+02  0.73081072773E+02  0.84793807005E+02  0.00000000000E+00 0. -1.
<scales pt_clust_5="13000.00000" pt_clust_6="13000.00000" pt_clust_7="13000.00000" pt_clust_8="13000.00000" pt_clust_9="43.00170"></scales>
<clustering>
<clus scale="   43.002">  1  9  2 -1</clus>
<clus scale="   89.608">  7  8 -1 -1</clus>
<clus scale="   92.050">  5  6 -1 -1</clus>
<clus scale="   96.801">  2  7  1 -1</clus>
<clus scale="   96.801">  2  5  1 -1</clus>
</clustering>
</event>
<event>
 9    1  0.1612788E-005  0.1014432E+03  0.7546771E-02  0.1277919E+00
          2   -1    0    0  502    0  0.00000000000E+00  0.00000000000E+00  0.15559543910E+03  0.15559543910E+03  0.00000000000E+00 0.  1.
         -2   -1    0    0    0  501 -0.00000000000E+00 -0.00000000000E+00 -0.12625610917E+03  0.12625610917E+03  0.00000000000E+00 0. -1.
         23    2    1    2    0    0  0.14920260885E+02  0.93008202118E+01 -0.20523124792E+02  0.96047927263E+02  0.92167707137E+02 0.  0.
         23    2    1    2    0    0 -0.18510082780E+02 -0.46843054324E+02  0.83642037421E+02  0.13517392251E+03  0.93483174950E+02 0.  0.
        -11    1    3    3    0    0  0.29323127563E+02  0.44180176229E+02 -0.23895944936E+02  0.58161413034E+02  0.00000000000E+00 0.  1.
         11    1    3    3    0    0 -0.14402866678E+02 -0.34879356017E+02  0.33728201436E+01  0.37886514229E+02  0.00000000000E+00 0. -1.
        -11    1    4    4    0    0 -0.15833217466E+02  0.23075157182E+02  0.50537161236E+02  0.57768142778E+02  0.00000000000E+00 0.  1.
         11    1    4    4    0    0 -0.26768653141E+01 -0.69918211505E+02  0.33104876185E+02  0.77405779728E+02  0.00000000000E+00 0. -1.
         21    1    1    2  502  501  0.35898218954E+01  0.37542234112E+02 -0.33779582692E+02  0.50629698500E+02  0.00000000000E+00 0. -1.
<scales pt_clust_5="13000.00000" pt_clust_6="13000.00000" pt_clust_7="13000.00000" pt_clust_8="13000.00000" pt_clust_9="37.71347"></scales>
<clustering>
<clus scale="   37.713">  2  9  1 -1</clus>
<clus scale="   92.168">  5  6 -1 -1</clus>
<clus scale="   93.483">  7  8 -1 -1</clus>
<clus scale="  100.232">  2  5  1 -1</clus>
<clus scale="  101.443">  1  5  2 -1</clus>
</clustering>
</event>
<event>
 9    1  0.1612788E-005  0.9418811E+02  0.7546771E-02  0.1294579E+00
          1   -1    0    0  502    0  0.00000000000E+00  0.00000000000E+00  0.22425985501E+03  0.22425985501E+03  0.00000000000E+00 0. -1.
         -1   -1    0    0    0  501 -0.00000000000E+00 -0.00000000000E+00 -0.97070246834E+02  0.97070246834E+02  0.00000000000E+00 0.  1.
         23    2    1    2    0    0 -0.34156682505E+02 -0.58845248535E+01 -0.25419443391E+02  0.10022690110E+03  0.90542680595E+02 0.  0.
         23    2    1    2    0    0  0.54534460009E+01  0.19820021002E+02  0.30859861461E+02  0.95242408079E+02  0.87728056752E+02 0.  0.
        -11    1    4    4    0    0  0.27671521334E+01 -0.31884700251E+02  0.29382653341E+02  0.43446882033E+02  0.00000000000E+00 0. -1.
         11    1    4    4    0    0  0.26862938675E+01  0.51704721253E+02  0.14772081200E+01  0.51795526046E+02  0.00000000000E+00 0.  1.
        -13    1    3    3    0    0 -0.64988571114E+02 -0.97030445204E+01 -0.14443839569E+02  0.67277692810E+02  0.00000000000E+00 0. -1.
         13    1    3    3    0    0  0.30831888609E+02  0.38185196668E+01 -0.10975603823E+02  0.32949208290E+02  0.00000000000E+00 0.  1.
         21    1    1    2  502  501  0.28703236504E+02 -0.13935496149E+02  0.12174919011E+03  0.12586079267E+03  0.00000000000E+00 0. -1.
<scales pt_clust_5="13000.00000" pt_clust_6="13000.00000" pt_clust_7="13000.00000" pt_clust_8="13000.00000" pt_clust_9="31.90727"></scales>
<clustering>
<clus scale="   31.907">  1  9  2 -1</clus>
<clus scale="   87.728">  5  6 -1 -1</clus>
<clus scale="   90.543">  7  8 -1 -1</clus>
<clus scale="   91.486">  1  5  2 -1</clus>
<clus scale="   31.907">  1  5  2 -1</clus>
</clustering>
</event>
<event>
 9    1  0.1612788E-005  0.1096113E+03  0.7546771E-02  0.1261506E+00
         -1   -1    0    0    0  501 -0.00000000000E+00  0.00000000000E+00  0.64832507026E+02  0.64832507026E+02  0.00000000000E+00 0.  1.
          1   -1    0    0  502    0  0.00000000000E+00 -0.00000000000E+00 -0.67199117958E+03  0.67199117958E+03  0.00000000000E+00 0. -1.
         23    2    1    2    0    0 -0.51776219354E+02  0.49780440566E+02 -0.15120916899E+03  0.19063857398E+03  0.91213946021E+02 0.  0.
         23    2    1    2    0    0  0.51795067999E+02 -0.26505725110E+02 -0.49179022659E+03  0.50345023035E+03  0.90659941177E+02 0.  0.
        -11    1    4    4    0    0  0.30946351742E+02  0.31742692632E+02 -0.24808604485E+03  0.25201579489E+03  0.00000000000E+00 0.  1.
         11    1    4    4    0    0  0.20848716256E+02 -0.58248417742E+02 -0.24370418174E+03  0.25143443546E+03  0.00000000000E+00 0. -1.
        -11    1    3    3    0    0 -0.26741109281E+02  0.25084078954E+02 -0.15108696593E+03  0.15547208501E+03  0.00000000000E+00 0. -1.
         11    1    3    3    0    0 -0.25035110072E+02  0.24696361612E+02 -0.12220306298E+00  0.35166488975E+02  0.00000000000E+00 0.  1.
         21    1    1    2  502  501 -0.18848644998E-01 -0.23274715456E+02  0.35840723037E+02  0.42734882270E+02  0.00000000000E+00 0.  1.
<scales pt_clust_5="13000.00000" pt_clust_6="13000.00000" pt_clust_7="13000.00000" pt_clust_8="13000.00000" pt_clust_9="23.27472"></scales>
<clustering>
<clus scale="   23.275">  1  9  2 -1</clus>
<clus scale="   90.660">  5  6 -1 -1</clus>
<clus scale="   91.214">  7  8 -1 -1</clus>
<clus scale="  109.151">  2  5  1 -1</clus>
<clus scale="  109.151">  2  5  1 -1</clus>
</clustering>
</event>
<event>
 9    1  0.1612788E-005  0.1662352E+03  0.7546771E-02  0.1182436E+00
          1   -1    0    0  502    0  0.00000000000E+00  0.00000000000E+00  0.68485573788E+02  0.68485573788E+02  0.00000000000E+00 0. -1.
         -1   -1    0    0    0  501 -0.00000000000E+00 -0.00000000000E+00 -0.76376407237E+03  0.76376407237E+03  0.00000000000E+00 0.  1.
         23    2    1    2    0    0 -0.42170890666E+02  0.94084353246E+02 -0.50846967988E+03  0.52719415956E+03  0.93605646072E+02 0.  0.
         23    2    1    2    0    0  0.53673357308E+02 -0.13606332279E+03 -0.79090950061E+02  0.18887597098E+03  0.89580672793E+02 0.  0.
        -13    1    3    3    0    0 -0.20293927058E+02  0.90882356369E+02 -0.48883142594E+03  0.49762195406E+03  0.00000000000E+00 0.  1.
         13    1    3    3    0    0 -0.21876963608E+02  0.32019968773E+01 -0.19638253940E+02  0.29572205507E+02  0.00000000000E+00 0. -1.
        -13    1    4    4    0    0  0.72384603323E+02 -0.11273857883E+03 -0.84627171332E+02  0.15846537818E+03  0.00000000000E+00 0. -1.
         13    1    4    4    0    0 -0.18711246015E+02 -0.23324743963E+02  0.55362212712E+01  0.30410592798E+02  0.00000000000E+00 0.  1.
         21    1    1    2  502  501 -0.11502466642E+02  0.41978969547E+02 -0.10771786864E+03  0.11617951561E+03  0.00000000000E+00 0. -1.
<scales pt_clust_5="13000.00000" pt_clust_6="13000.00000" pt_clust_7="13000.00000" pt_clust_8="13000.00000" pt_clust_9="43.52632"></scales>
<clustering>
<clus scale="   43.526">  2  9  1 -1</clus>
<clus scale="   89.581">  7  8 -1 -1</clus>
<clus scale="   93.606">  5  6 -1 -1</clus>
<clus scale="  164.003">  1  7  2 -1</clus>
<clus scale="  164.003">  1  5  2 -1</clus>
</clustering>
</event>
<event>
 9    1  0.2159777E-005  0.1078241E+03  0.7546771E-02  0.1271588E+00
          1   -1    0    0  502    0  0.00000000000E+00  0.00000000000E+00  0.54586756456E+03  0.54586756456E+03  0.00000000000E+00 0. -1.
         -1   -1    0    0    0  501 -0.00000000000E+00 -0.00000000000E+00 -0.42769823316E+02  0.42769823316E+02  0.00000000000E+00 0.  1.
         23    2    1    2    0    0 -0.32661043435E+02 -0.11987060621E+02  0.47424815799E+02  0.10780805165E+03  0.90349485144E+02 0.  0.
         23    2    1    2    0    0  0.24858640607E+02 -0.94588820946E+01  0.44034268281E+03  0.45333711391E+03  0.10442910552E+03 0.  0.
        -11    1    4    4    0    0 -0.37223459786E+02 -0.22902477791E+02  0.20210537976E+03  0.20677691838E+03  0.00000000000E+00 0.  1.
         11    1    4    4    0    0  0.62082100393E+02  0.13443595697E+02  0.23823730305E+03  0.24656019553E+03  0.00000000000E+00 0. -1.
        -13    1    3    3    0    0 -0.12085594963E+02  0.37368580081E+02  0.50841389391E+01  0.39602030903E+02  0.00000000000E+00 0. -1.
         13    1    3    3    0    0 -0.20575448472E+02 -0.49355640702E+02  0.42340676860E+02  0.68206020745E+02  0.00000000000E+00 0.  1.
         21    1    1    2  502  501  0.78024028279E+01  0.21445942716E+02  0.15330242638E+02  0.27492222322E+02  0.00000000000E+00 0. -1.
<scales pt_clust_5="13000.00000" pt_clust_6="13000.00000" pt_clust_7="13000.00000" pt_clust_8="13000.00000" pt_clust_9="22.82117"></scales>
<clustering>
<clus scale="   22.821">  2  9  1 -1</clus>
<clus scale="   90.349">  7  8 -1 -1</clus>
<clus scale="   94.253">  2  7  1 -1</clus>
<clus scale="  104.429">  5  6 -1 -1</clus>
<clus scale="  107.824">  1  5  2 -1</clus>
</clustering>
</event>
<event>
 9    1  0.1612788E-005  0.9627934E+02  0.7546771E-02  0.1288480E+00
          1   -1    0    0  502    0  0.00000000000E+00  0.00000000000E+00  0.21415696295E+03  0.21415696295E+03  0.00000000000E+00 0. -1.
         -1   -1    0    0    0  501 -0.00000000000E+00 -0.00000000000E+00 -0.18396829610E+03  0.18396829610E+03  0.00000000000E+00 0.  1.
         23    2    1    2    0    0 -0.38192023292E+02 -0.53886865789E+02 -0.12330214104E+03  0.16731568920E+03  0.91807934953E+02 0.  0.
         23    2    1    2    0    0  0.24530804280E+02  0.98063956572E+01  0.15795238535E+03  0.18444554904E+03  0.91505621506E+02 0.  0.
        -11    1    3    3    0    0 -0.31153255182E+02 -0.15738325311E+02 -0.12369113738E+03  0.12852127317E+03  0.00000000000E+00 0.  1.
         11    1    3    3    0    0 -0.70387681096E+01 -0.38148540478E+02  0.38899633489E+00  0.38794416032E+02  0.00000000000E+00 0. -1.
        -13    1    4    4    0    0  0.54051869552E+02  0.24837877808E+02  0.12091002130E+03  0.13475072552E+03  0.00000000000E+00 0. -1.
         13    1    4    4    0    0 -0.29521065272E+02 -0.15031482151E+02  0.37042364052E+02  0.49694823523E+02  0.00000000000E+00 0.  1.
         21    1    1    2  502  501  0.13661219012E+02  0.44080470132E+02 -0.44615774610E+01  0.46364020807E+02  0.00000000000E+00 0. -1.
<scales pt_clust_5="13000.00000" pt_clust_6="13000.00000" pt_clust_7="13000.00000" pt_clust_8="13000.00000" pt_clust_9="46.14885"></scales>
<clustering>
<clus scale="   46.149">  2  9  1 -1</clus>
<clus scale="   91.506">  7  8 -1 -1</clus>
<clus scale="   91.808">  5  6 -1 -1</clus>
<clus scale="   95.991">  1  7  2 -1</clus>
<clus scale="   95.991">  1  5  2 -1</clus>
</clustering>
</event>
<event>
 9    1  0.1612788E-005  0.1037149E+03  0.7546771E-02  0.1276171E+00
         -2   -1    0    0    0  501 -0.00000000000E+00  0.00000000000E+00  0.85025979506E+02  0.85025979506E+02  0.00000000000E+00 0.  1.
          2   -1    0    0  502    0  0.00000000000E+00 -0.00000000000E+00 -0.39251799530E+03  0.39251799530E+03  0.00000000000E+00 0. -1.
         23    2    1    2    0    0  0.33658233892E+02  0.47510231519E+02 -0.11079161677E+03  0.15099852876E+03  0.84472921891E+02 0.  0.
         23    2    1    2    0    0 -0.24729340461E+01 -0.44971966262E+02 -0.24692432527E+03  0.26737274555E+03  0.92130176932E+02 0.  0.
        -13    1    3    3    0    0  0.13090901992E+02  0.67484139913E+02 -0.54128012108E+02  0.87494700123E+02  0.00000000000E+00 0.  1.
         13    1    3    3    0    0  0.20567331900E+02 -0.19973908395E+02 -0.56663604659E+02  0.63503828632E+02  0.00000000000E+00 0. -1.
        -13    1    4    4    0    0  0.39201085066E+02 -0.19075911802E+02 -0.17471074108E+03  0.18006792755E+03  0.00000000000E+00 0.  1.
         13    1    4    4    0    0 -0.41674019112E+02 -0.25896054460E+02 -0.72213584183E+02  0.87304818000E+02  0.00000000000E+00 0. -1.
         21    1    1    2  502  501 -0.31185299846E+02 -0.25382652568E+01  0.50223926243E+02  0.59172700498E+02  0.00000000000E+00 0.  1.
<scales pt_clust_5="13000.00000" pt_clust_6="13000.00000" pt_clust_7="13000.00000" pt_clust_8="13000.00000" pt_clust_9="31.28843"></scales>
<clustering>
<clus scale="   31.288">  1  9  2 -1</clus>
<clus scale="   84.473">  5  6 -1 -1</clus>
<clus scale="   92.130">  7  8 -1 -1</clus>
<clus scale="   96.977">  1  5  2 -1</clus>
<clus scale="  103.715">  2  5  1 -1</clus>
</clustering>
</event>
<event>
 9    1  0.1612788E-005  0.1057777E+03  0.7546771E-02  0.1268977E+00
         -1   -1    0    0    0  501 -0.00000000000E+00  0.00000000000E+00  0.21878619817E+03  0.21878619817E+03  0.00000000000E+00 0.  1.
          1   -1    0    0  502    0  0.00000000000E+00 -0.00000000000E+00 -0.78190552924E+02  0.78190552924E+02  0.00000000000E+00 0. -1.
         23    2    1    2    0    0  0.27036235384E+02 -0.40259180838E+02  0.62391523077E+02  0.12112779160E+03  0.91801307616E+02 0.  0.
         23    2    1    2    0    0  0.12121169846E+02  0.59502602392E+02  0.39856532274E+02  0.11776153135E+03  0.92691707569E+02 0.  0.
        -13    1    3    3    0    0  0.27950021185E+02  0.12404335712E+02  0.61232799237E+02  0.68443604019E+02  0.00000000000E+00 0.  1.
         13    1    3    3    0    0 -0.91378580082E+00 -0.52663516550E+02  0.11587238405E+01  0.52684187579E+02  0.00000000000E+00 0. -1.
        -13    1    4    4    0    0 -0.39855911179E+02  0.23590685066E+02  0.79735007727E+01  0.46995646525E+02  0.00000000000E+00 0.  1.
         13    1    4    4    0    0  0.51977081024E+02  0.35911917326E+02  0.31883031501E+02  0.70765884828E+02  0.00000000000E+00 0. -1.
         21    1    1    2  502  501 -0.39157405230E+02 -0.19243421554E+02  0.38347589895E+02  0.58087428142E+02  0.00000000000E+00 0.  1.
<scales pt_clust_5="13000.00000" pt_clust_6="13000.00000" pt_clust_7="13000.00000" pt_clust_8="13000.00000" pt_clust_9="43.63040"></scales>
<clustering>
<clus scale="   43.630">  1  9  2 -1</clus>
<clus scale="   91.801">  5  6 -1 -1</clus>
<clus scale="   92.692">  7  8 -1 -1</clus>
<clus scale="  104.998">  1  5  2 -1</clus>
<clus scale="  105.778">  2  5  1 -1</clus>
</clustering>
</event>
<event>
 9    1  0.1612788E-005  0.9211622E+02  0.7546771E-02  0.1300157E+00
          1   -1    0    0  502    0  0.00000000000E+00  0.00000000000E+00  0.70465298140E+02  0.70465298140E+02  0.00000000000E+00 0. -1.
         -1   -1    0    0    0  501 -0.00000000000E+00 -0.00000000000E+00 -0.37044797751E+03  0.37044797751E+03  0.00000000000E+00 0.  1.
         23    2    1    2    0    0 -0.20068469470E+01  0.95051135112E+01 -0.25879422318E+03  0.27320797817E+03  0.87027436875E+02 0.  0.
         23    2    1    2    0    0  0.41246704413E+02 -0.35591601580E+02 -0.14464526346E+01  0.10606360606E+03  0.90990898324E+02 0.  0.
        -13    1    4    4    0    0  0.53196343140E+02  0.14006558907E+02  0.44471876561E+00  0.55011202411E+02  0.00000000000E+00 0.  1.
         13    1    4    4    0    0 -0.11949638727E+02 -0.49598160487E+02 -0.18911714002E+01  0.51052403652E+02  0.00000000000E+00 0. -1.
        -13    1    3    3    0    0  0.41937831328E+02 -0.18155666332E+01 -0.11490196481E+03  0.12232963458E+03  0.00000000000E+00 0.  1.
         13    1    3    3    0    0 -0.43944678275E+02  0.11320680144E+02 -0.14389225837E+03  0.15087834360E+03  0.00000000000E+00 0. -1.
         21    1    1    2  502  501 -0.39239857466E+02  0.26086488069E+02 -0.39742003560E+02  0.61641691417E+02  0.00000000000E+00 0. -1.
<scales pt_clust_5="13000.00000" pt_clust_6="13000.00000" pt_clust_7="13000.00000" pt_clust_8="13000.00000" pt_clust_9="47.11975"></scales>
<clustering>
<clus scale="   47.120">  1  9  2 -1</clus>
<clus scale="   87.027">  7  8 -1 -1</clus>
<clus scale="   88.203">  2  7  1 -1</clus>
<clus scale="   90.991">  5  6 -1 -1</clus>
<clus scale="   47.120">  1  5  2 -1</clus>
</clustering>
</event>
<event>
 9    1  0.1612788E-005  0.1057613E+03  0.7546771E-02  0.1270720E+00
         -1   -1    0    0    0  501 -0.00000000000E+00  0.00000000000E+00  0.38162258077E+02  0.38162258077E+02  0.00000000000E+00 0.  1.
          1   -1    0    0  502    0  0.00000000000E+00 -0.00000000000E+00 -0.54266213240E+03  0.54266213240E+03  0.00000000000E+00 0. -1.
         23    2    1    2    0    0  0.15445369298E+02  0.85586724702E+02 -0.10152145587E+03  0.15596736230E+03  0.80346532113E+02 0.  0.
         23    2    1    2    0    0 -0.22429006114E+02 -0.60664594170E+02 -0.36978484577E+03  0.38276549648E+03  0.74735131164E+02 0.  0.
        -13    1    4    4    0    0  0.20060600970E+02 -0.50199746736E+02 -0.17672454726E+03  0.18480802983E+03  0.00000000000E+00 0.  1.
         13    1    4    4    0    0 -0.42489607084E+02 -0.10464847435E+02 -0.19306029851E+03  0.19795746665E+03  0.00000000000E+00 0. -1.
        -13    1    3    3    0    0 -0.53969159170E+01  0.62914164514E+02 -0.10742556929E+03  0.12460967753E+03  0.00000000000E+00 0. -1.
         13    1    3    3    0    0  0.20842285215E+02  0.22672560188E+02  0.59041134224E+01  0.31357684764E+02  0.00000000000E+00 0.  1.
         21    1    1    2  502  501  0.69836368159E+01 -0.24922130531E+02 -0.33193572682E+02  0.42091531700E+02  0.00000000000E+00 0.  1.
<scales pt_clust_5="13000.00000" pt_clust_6="13000.00000" pt_clust_7="13000.00000" pt_clust_8="13000.00000" pt_clust_9="25.88211"></scales>
<clustering>
<clus scale="   25.882">  1  9  2 -1</clus>
<clus scale="   74.735">  5  6 -1 -1</clus>
<clus scale="   80.347">  7  8 -1 -1</clus>
<clus scale="  101.564">  2  5  1 -1</clus>
<clus scale="  101.564">  2  5  1 -1</clus>
</clustering>
</event>
<event>
 9    1  0.1612788E-005  0.2219554E+03  0.7546771E-02  0.1132795E+00
          2   -1    0    0  502    0  0.00000000000E+00  0.00000000000E+00  0.20940680424E+03  0.20940680424E+03  0.00000000000E+00 0. -1.
         -2   -1    0    0    0  501 -0.00000000000E+00 -0.00000000000E+00 -0.52608434143E+03  0.52608434143E+03  0.00000000000E+00 0.  1.
         23    2    1    2    0    0  0.73018568491E+02 -0.15989877036E+03 -0.37471911301E+03  0.42521796371E+03  0.97450371484E+02 0.  0.
         23    2    1    2    0    0 -0.74201301168E+02  0.18955670525E+03  0.11083373932E+03  0.24970912921E+03  0.92913690278E+02 0.  0.
        -13    1    4    4    0    0 -0.29417404495E+02  0.17291623146E+03  0.94372232367E+02  0.19917711975E+03  0.00000000000E+00 0. -1.
         13    1    4    4    0    0 -0.44783896673E+02  0.16640473785E+02  0.16461506951E+02  0.50532009461E+02  0.00000000000E+00 0.  1.
        -13    1    3    3    0    0  0.22854859068E+02  0.90156586594E+01 -0.39735421026E+02  0.46717559527E+02  0.00000000000E+00 0. -1.
         13    1    3    3    0    0  0.50163709423E+02 -0.16891442902E+03 -0.33498369198E+03  0.37850040418E+03  0.00000000000E+00 0.  1.
         21    1    1    2  502  501  0.11827326772E+01 -0.29657934894E+02 -0.52792163501E+02  0.60564052753E+02  0.00000000000E+00 0. -1.
<scales pt_clust_5="13000.00000" pt_clust_6="13000.00000" pt_clust_7="13000.00000" pt_clust_8="13000.00000" pt_clust_9="29.68151"></scales>
<clustering>
<clus scale="   29.682">  2  9  1 -1</clus>
<clus scale="   92.914">  5  6 -1 -1</clus>
<clus scale="   97.450">  7  8 -1 -1</clus>
<clus scale="  220.001">  1  5  2 -1</clus>
<clus scale="  220.001">  1  5  2 -1</clus>
</clustering>
</event>
<event>
 9    1  0.1612788E-005  0.2470888E+03  0.7546771E-02  0.1115437E+00
         -1   -1    0    0    0  501 -0.00000000000E+00  0.00000000000E+00  0.13667730511E+03  0.13667730511E+03  0.00000000000E+00 0.  1.
          1   -1    0    0  502    0  0.00000000000E+00 -0.00000000000E+00 -0.62373778503E+03  0.62373778503E+03  0.00000000000E+00 0. -1.
         23    2    1    2    0    0  0.21754608349E+03 -0.91498649451E+02 -0.12156584969E+03  0.27907989859E+03  0.86075738143E+02 0.  0.
         23    2    1    2    0    0 -0.19393275257E+03  0.11935223467E+03 -0.37070067183E+03  0.44445003903E+03  0.90895438045E+02 0.  0.
        -11    1    3    3    0    0  0.75058519073E+02 -0.68610522180E+02 -0.78534681761E+02  0.12848689147E+03  0.00000000000E+00 0. -1.
         11    1    3    3    0    0  0.14248756441E+03 -0.22888127272E+02 -0.43031167926E+02  0.15059300713E+03  0.00000000000E+00 0.  1.
        -11    1    4    4    0    0 -0.98750629035E+02  0.29719051785E+02 -0.23175176511E+03  0.25366077624E+03  0.00000000000E+00 0.  1.
         11    1    4    4    0    0 -0.95182123535E+02  0.89633182890E+02 -0.13894890673E+03  0.19078926279E+03  0.00000000000E+00 0. -1.
         21    1    1    2  502  501 -0.23613330918E+02 -0.27853585224E+02  0.52060416000E+01  0.36885152514E+02  0.00000000000E+00 0. -1.
<scales pt_clust_5="13000.00000" pt_clust_6="13000.00000" pt_clust_7="13000.00000" pt_clust_8="13000.00000" pt_clust_9="36.51591"></scales>
<clustering>
<clus scale="   36.516">  1  9  2 -1</clus>
<clus scale="   86.076">  5  6 -1 -1</clus>
<clus scale="   90.895">  7  8 -1 -1</clus>
<clus scale="  245.357">  1  5  2 -1</clus>
<clus scale="  247.089">  2  5  1 -1</clus>
</clustering>
</event>
<event>
 9    1  0.1612788E-005  0.1993029E+03  0.7546771E-02  0.1151040E+00
         -2   -1    0    0    0  501 -0.00000000000E+00  0.00000000000E+00  0.91057924431E+02  0.91057924431E+02  0.00000000000E+00 0.  1.
          2   -1    0    0  502    0  0.00000000000E+00 -0.00000000000E+00 -0.87410869959E+03  0.87410869959E+03  0.00000000000E+00 0. -1.
         23    2    1    2    0    0  0.13891234464E+03  0.20003500968E+02 -0.53025860126E+02  0.17907180484E+03  0.97765995635E+02 0.  0.
         23    2    1    2    0    0 -0.17824743711E+03 -0.32330083734E+02 -0.71344793397E+03  0.74166520694E+03  0.90785139484E+02 0.  0.
        -11    1    3    3    0    0  0.33244739252E+02 -0.10433242842E+02 -0.59463145380E+02  0.68919742474E+02  0.00000000000E+00 0. -1.
         11    1    3    3    0    0  0.10566760539E+03  0.30436743810E+02  0.64372852539E+01  0.11015206237E+03  0.00000000000E+00 0.  1.
        -11    1    4    4    0    0 -0.63424489551E+02  0.13585124340E+02 -0.13032802012E+03  0.14557683300E+03  0.00000000000E+00 0.  1.
         11    1    4    4    0    0 -0.11482294756E+03 -0.45915208074E+02 -0.58311991386E+03  0.59608837395E+03  0.00000000000E+00 0. -1.
         21    1    1    2  502  501  0.39335092465E+02  0.12326582766E+02 -0.16576981058E+02  0.44429612230E+02  0.00000000000E+00 0.  1.
<scales pt_clust_5="13000.00000" pt_clust_6="13000.00000" pt_clust_7="13000.00000" pt_clust_8="13000.00000" pt_clust_9="41.22128"></scales>
<clustering>
<clus scale="   41.221">  1  9  2 -1</clus>
<clus scale="   90.785">  7  8 -1 -1</clus>
<clus scale="   97.766">  5  6 -1 -1</clus>
<clus scale="  195.973">  2  7  1 -1</clus>
<clus scale="  195.973">  2  5  1 -1</clus>
</clustering>
</event>
<event>
 9    1  0.1612788E-005  0.2197391E+03  0.7546771E-02  0.1134423E+00
         -1   -1    0    0    0  501 -0.00000000000E+00  0.00000000000E+00  0.15709768940E+03  0.15709768940E+03  0.00000000000E+00 0.  1.
          1   -1    0    0  502    0  0.00000000000E+00 -0.00000000000E+00 -0.45190380040E+03  0.45190380040E+03  0.00000000000E+00 0. -1.
         23    2    1    2    0    0 -0.15903895721E+03  0.19011309410E+02 -0.28539662669E+02  0.18905299136E+03  0.96289674424E+02 0.  0.
         23    2    1    2    0    0  0.21707909672E+03 -0.20802716391E+02 -0.27319992629E+03  0.36146824493E+03  0.92005462464E+02 0.  0.
        -11    1    4    4    0    0  0.32464220653E+02 -0.38085166871E+02 -0.43829035324E+02  0.66523604049E+02  0.00000000000E+00 0.  1.
         11    1    4    4    0    0  0.18461487607E+03  0.17282450480E+02 -0.22937089097E+03  0.29494464088E+03  0.00000000000E+00 0. -1.
        -13    1    3    3    0    0 -0.11944976304E+03 -0.30002097624E+02 -0.26701934704E+02  0.12602128816E+03  0.00000000000E+00 0.  1.
         13    1    3    3    0    0 -0.39589194161E+02  0.49013407033E+02 -0.18377279641E+01  0.63031703193E+02  0.00000000000E+00 0. -1.
         21    1    1    2  502  501 -0.58040139516E+02  0.17914069814E+01  0.69334779702E+01  0.58480253512E+02  0.00000000000E+00 0.  1.
<scales pt_clust_5="13000.00000" pt_clust_6="13000.00000" pt_clust_7="13000.00000" pt_clust_8="13000.00000" pt_clust_9="58.06778"></scales>
<clustering>
<clus scale="   58.068">  1  9  2 -1</clus>
<clus scale="   92.005">  5  6 -1 -1</clus>
<clus scale="   96.290">  7  8 -1 -1</clus>
<clus scale="  217.896">  2  5  1 -1</clus>
<clus scale="  217.896">  2  5  1 -1</clus>
</clustering>
</event>
<event>
 9    1  0.1612788E-005  0.1554015E+03  0.7546771E-02  0.1211269E+00
          1   -1    0    0  502    0  0.00000000000E+00  0.00000000000E+00  0.18390080240E+03  0.18390080240E+03  0.00000000000E+00 0. -1.
         -1   -1    0    0    0  501 -0.00000000000E+00 -0.00000000000E+00 -0.27565601049E+03  0.27565601049E+03  0.00000000000E+00 0.  1.
         23    2    1    2    0    0 -0.13745955105E+02  0.13566757352E+03  0.19034333917E+02  0.16529361541E+03  0.91460546916E+02 0.  0.
         23    2    1    2    0    0  0.54492202620E+02 -0.17085839882E+02  0.24588188928E+02  0.10973944760E+03  0.90425888189E+02 0.  0.
        -11    1    4    4    0    0  0.77630858033E+02 -0.96806528025E+01  0.47537408274E+01  0.78376419984E+02  0.00000000000E+00 0. -1.
         11    1    4    4    0    0 -0.23138655413E+02 -0.74051870794E+01  0.19834448101E+02  0.31363027620E+02  0.00000000000E+00 0.  1.
        -11    1    3    3    0    0  0.26375855608E+02  0.10822401879E+03 -0.40836366142E+01  0.11146658733E+03  0.00000000000E+00 0.  1.
         11    1    3    3    0    0 -0.40121810712E+02  0.27443554726E+02  0.23117970531E+02  0.53827028084E+02  0.00000000000E+00 0. -1.
         21    1    1    2  502  501 -0.40746247515E+02 -0.11858173363E+03 -0.13537773093E+03  0.18452374988E+03  0.00000000000E+00 0. -1.
<scales pt_clust_5="13000.00000" pt_clust_6="13000.00000" pt_clust_7="13000.00000" pt_clust_8="13000.00000" pt_clust_9="125.63678"></scales>
<clustering>
<clus scale="   90.426">  5  6 -1 -1</clus>
<clus scale="   91.461">  7  8 -1 -1</clus>
<clus scale="  106.949">  1  5  2 -1</clus>
<clus scale="  125.637">  2  9  1 -1</clus>
<clus scale="  106.949">  1  5  2 -1</clus>
</clustering>
</event>
<event>
 9    1  0.1612788E-005  0.9497511E+02  0.7546771E-02  0.1292144E+00
          2   -1    0    0  502    0  0.00000000000E+00  0.00000000000E+00  0.24690728717E+03  0.24690728717E+03  0.00000000000E+00 0. -1.
         -2   -1    0    0    0  501 -0.00000000000E+00 -0.00000000000E+00 -0.68945252765E+02  0.68945252765E+02  0.00000000000E+00 0.  1.
         23    2    1    2    0    0  0.20292063448E+02 -0.14331506804E+02  0.15564962460E+02  0.98524814682E+02  0.94062272594E+02 0.  0.
         23    2    1    2    0    0  0.47525483426E+01 -0.23113460575E+02  0.13244749843E+03  0.16323211438E+03  0.92442222761E+02 0.  0.
        -11    1    4    4    0    0 -0.23513464688E+02  0.23120487572E+02  0.20420765786E+02  0.38787209780E+02  0.00000000000E+00 0.  1.
         11    1    4    4    0    0  0.28266013031E+02 -0.46233948147E+02  0.11202673265E+03  0.12444490460E+03  0.00000000000E+00 0. -1.
        -11    1    3    3    0    0  0.30899948661E+02 -0.48383811045E+02 -0.45293359684E+01  0.57587454214E+02  0.00000000000E+00 0. -1.
         11    1    3    3    0    0 -0.10607885214E+02  0.34052304241E+02  0.20094298428E+02  0.40937360469E+02  0.00000000000E+00 0.  1.
         21    1    1    2  502  501 -0.25044611790E+02  0.37444967379E+02  0.29949573511E+02  0.54095610869E+02  0.00000000000E+00 0.  1.
<scales pt_clust_5="13000.00000" pt_clust_6="13000.00000" pt_clust_7="13000.00000" pt_clust_8="13000.00000" pt_clust_9="45.04840"></scales>
<clustering>
<clus scale="   45.048">  2  9  1 -1</clus>
<clus scale="   92.442">  5  6 -1 -1</clus>
<clus scale="   93.371">  1  5  2 -1</clus>
<clus scale="   94.062">  7  8 -1 -1</clus>
<clus scale="   93.371">  1  5  2 -1</clus>
</clustering>
</event>
<event>
 9    1  0.1612788E-005  0.1047341E+03  0.7546771E-02  0.1272111E+00
          1   -1    0    0  502    0  0.00000000000E+00  0.00000000000E+00  0.24051088655E+03  0.24051088655E+03  0.00000000000E+00 0. -1.
         -1   -1    0    0    0  501 -0.00000000000E+00 -0.00000000000E+00 -0.24219050347E+03  0.24219050347E+03  0.00000000000E+00 0.  1.
         23    2    1    2    0    0  0.57266855237E+02  0.11796039209E+02 -0.99791386588E+02  0.14614296924E+03  0.89335364617E+02 0.  0.
         23    2    1    2    0    0 -0.33516179494E+02 -0.35498404304E+02  0.20191934294E+03  0.22746255019E+03  0.92651603807E+02 0.  0.
        -11    1    4    4    0    0  0.31793866168E+02 -0.42177971842E+01  0.69261955873E+02  0.76327310121E+02  0.00000000000E+00 0.  1.
         11    1    4    4    0    0 -0.65310045662E+02 -0.31280607120E+02  0.13265738707E+03  0.15113524007E+03  0.00000000000E+00 0. -1.
        -13    1    3    3    0    0 -0.22546092783E+02  0.12300800766E+02 -0.15213012291E+02  0.29850824816E+02  0.00000000000E+00 0. -1.
         13    1    3    3    0    0  0.79812948020E+02 -0.50476155690E+00 -0.84578374297E+02  0.11629214442E+03  0.00000000000E+00 0.  1.
         21    1    1    2  502  501 -0.23750675743E+02  0.23702365095E+02 -0.10380757327E+03  0.10909587058E+03  0.00000000000E+00 0. -1.
<scales pt_clust_5="13000.00000" pt_clust_6="13000.00000" pt_clust_7="13000.00000" pt_clust_8="13000.00000" pt_clust_9="33.55438"></scales>
<clustering>
<clus scale="   33.554">  2  9  1 -1</clus>
<clus scale="   89.335">  7  8 -1 -1</clus>
<clus scale="   92.652">  5  6 -1 -1</clus>
<clus scale="  101.812">  2  7  1 -1</clus>
<clus scale="  104.734">  1  5  2 -1</clus>
</clustering>
</event>
<event>
 9    1  0.1612788E-005  0.9734674E+02  0.7546771E-02  0.1289076E+00
          1   -1    0    0  502    0  0.00000000000E+00  0.00000000000E+00  0.84129513846E+02  0.84129513846E+02  0.00000000000E+00 0. -1.
         -1   -1    0    0    0  501 -0.00000000000E+00 -0.00000000000E+00 -0.45991851942E+03  0.45991851942E+03  0.00000000000E+00 0.  1.
         23    2    1    2    0    0 -0.15596509700E+02  0.58315401309E+02 -0.22435925752E+03  0.25143941910E+03  0.96128912924E+02 0.  0.
         23    2    1    2    0    0  0.89000685585E+01  0.22304465590E+02  0.26332214018E+02  0.97304440057E+02  0.90543183919E+02 0.  0.
        -11    1    4    4    0    0 -0.28160328789E+02 -0.64098943435E+01  0.39197900318E+02  0.48688461183E+02  0.00000000000E+00 0. -1.
         11    1    4    4    0    0  0.37060397348E+02  0.28714359934E+02 -0.12865686300E+02  0.48615978875E+02  0.00000000000E+00 0.  1.
        -13    1    3    3    0    0 -0.48837996594E+02  0.46428582389E+01 -0.79462976790E+02  0.93386673162E+02  0.00000000000E+00 0. -1.
         13    1    3    3    0    0  0.33241486894E+02  0.53672543070E+02 -0.14489628073E+03  0.15805274594E+03  0.00000000000E+00 0.  1.
         21    1    1    2  502  501  0.66964411415E+01 -0.80619866899E+02 -0.17776196208E+03  0.19530417411E+03  0.00000000000E+00 0.  1.
<scales pt_clust_5="13000.00000" pt_clust_6="13000.00000" pt_clust_7="13000.00000" pt_clust_8="13000.00000" pt_clust_9="80.89750"></scales>
<clustering>
<clus scale="   80.897">  2  9  1 -1</clus>
<clus scale="   90.543">  5  6 -1 -1</clus>
<clus scale="   91.835">  1  5  2 -1</clus>
<clus scale="   96.129">  7  8 -1 -1</clus>
<clus scale="   91.835">  1  5  2 -1</clus>
</clustering>
</event>
<event>
 9    1  0.1612788E-005  0.1154651E+03  0.7546771E-02  0.1254138E+00
          2   -1    0    0  502    0  0.00000000000E+00  0.00000000000E+00  0.32071250487E+03  0.32071250487E+03  0.00000000000E+00 0. -1.
         -2   -1    0    0    0  501 -0.00000000000E+00 -0.00000000000E+00 -0.68289945479E+02  0.68289945479E+02  0.00000000000E+00 0.  1.
         23    2    1    2    0    0 -0.52745200148E+02 -0.64811126667E+02  0.11851488254E+03  0.17098083569E+03  0.90587695145E+02 0.  0.
         23    2    1    2    0    0  0.57513972643E+02  0.32592180795E+02  0.14914167885E+03  0.18206502303E+03  0.80835171436E+02 0.  0.
        -11    1    3    3    0    0  0.13277746347E+02 -0.43193816148E+02  0.17665375159E+02  0.48518757002E+02  0.00000000000E+00 0.  1.
         11    1    3    3    0    0 -0.66022946495E+02 -0.21617310519E+02  0.10084950738E+03  0.12246207869E+03  0.00000000000E+00 0. -1.
        -13    1    4    4    0    0 -0.91577574177E+01 -0.18193290205E+02  0.24419957877E+02  0.31799287289E+02  0.00000000000E+00 0. -1.
         13    1    4    4    0    0  0.66671730061E+02  0.50785471000E+02  0.12472172098E+03  0.15026573574E+03  0.00000000000E+00 0.  1.
         21    1    1    2  502  501 -0.47687724954E+01  0.32218945872E+02 -0.15234002005E+02  0.35956591625E+02  0.00000000000E+00 0.  1.
<scales pt_clust_5="13000.00000" pt_clust_6="13000.00000" pt_clust_7="13000.00000" pt_clust_8="13000.00000" pt_clust_9="32.56995"></scales>
<clustering>
<clus scale="   32.570">  2  9  1 -1</clus>
<clus scale="   80.835">  7  8 -1 -1</clus>
<clus scale="   90.588">  5  6 -1 -1</clus>
<clus scale="  107.983">  1  7  2 -1</clus>
<clus scale="  107.983">  1  5  2 -1</clus>
</clustering>
</event>
<event>
 9    1  0.1612788E-005  0.1508206E+03  0.7546771E-02  0.1203687E+00
          1   -1    0    0  502    0  0.00000000000E+00  0.00000000000E+00  0.65870254723E+03  0.65870254723E+03  0.00000000000E+00 0. -1.
         -1   -1    0    0    0  501 -0.00000000000E+00 -0.00000000000E+00 -0.65586272670E+02  0.65586272670E+02  0.00000000000E+00 0.  1.
         23    2    1    2    0    0 -0.24852032389E+02 -0.79662884421E+02  0.63183372307E+02  0.15171238019E+03  0.10982125978E+03 0.  0.
         23    2    1    2    0    0  0.72834166633E+02  0.81616108293E+02  0.48968147584E+03  0.50991642360E+03  0.90888977980E+02 0.  0.
        -13    1    3    3    0    0 -0.37847593440E+02  0.12191655321E+02  0.39324822895E+02  0.55924220910E+02  0.00000000000E+00 0.  1.
         13    1    3    3    0    0  0.12995561051E+02 -0.91854539742E+02  0.23858549412E+02  0.95788159280E+02  0.00000000000E+00 0. -1.
        -13    1    4    4    0    0 -0.20838211672E+02  0.25625591650E+02  0.10753836082E+03  0.11249622688E+03  0.00000000000E+00 0.  1.
         13    1    4    4    0    0  0.93672378306E+02  0.55990516643E+02  0.38214311501E+03  0.39742019672E+03  0.00000000000E+00 0. -1.
         21    1    1    2  502  501 -0.47982134244E+02 -0.19532238726E+01  0.40251426418E+02  0.62660016110E+02  0.00000000000E+00 0.  1.
<scales pt_clust_5="13000.00000" pt_clust_6="13000.00000" pt_clust_7="13000.00000" pt_clust_8="13000.00000" pt_clust_9="48.02187"></scales>
<clustering>
<clus scale="   48.022">  2  9  1 -1</clus>
<clus scale="   90.889">  7  8 -1 -1</clus>
<clus scale="  109.821">  5  6 -1 -1</clus>
<clus scale="  137.648">  1  7  2 -1</clus>
<clus scale="  137.648">  1  5  2 -1</clus>
</clustering>
</event>
<event>
 9    1  0.1612788E-005  0.1313462E+03  0.7546771E-02  0.1238239E+00
         -1   -1    0    0    0  501 -0.00000000000E+00  0.00000000000E+00  0.62532005539E+02  0.62532005539E+02  0.00000000000E+00 0.  1.
          1   -1    0    0  502    0  0.00000000000E+00 -0.00000000000E+00 -0.35183404269E+03  0.35183404269E+03  0.00000000000E+00 0. -1.
         23    2    1    2    0    0 -0.41416905285E+01 -0.41624854028E+02 -0.45431060932E+02  0.13913034454E+03  0.12467353127E+03 0.  0.
         23    2    1    2    0    0 -0.19959114775E+02  0.40271775072E+02 -0.20944275469E+03  0.23318832474E+03  0.92143069052E+02 0.  0.
        -11    1    3    3    0    0  0.29431009486E+02  0.30002734221E+02  0.91627904786E+01  0.43015173015E+02  0.00000000000E+00 0. -1.
         11    1    3    3    0    0 -0.33572700015E+02 -0.71627588249E+02 -0.54593851411E+02  0.96115171521E+02  0.00000000000E+00 0.  1.
        -13    1    4    4    0    0 -0.55854052780E+02  0.12826297441E+02 -0.11440322316E+03  0.12795423630E+03  0.00000000000E+00 0. -1.
         13    1    4    4    0    0  0.35894938005E+02  0.27445477631E+02 -0.95039531531E+02  0.10523408844E+03  0.00000000000E+00 0.  1.
         21    1    1    2  502  501  0.24100805304E+02  0.13530789555E+01 -0.34428221529E+02  0.42047378950E+02  0.00000000000E+00 0.  1.
<scales pt_clust_5="13000.00000" pt_clust_6="13000.00000" pt_clust_7="13000.00000" pt_clust_8="13000.00000" pt_clust_9="24.13876"></scales>
<clustering>
<clus scale="   24.139">  2  9  1 -1</clus>
<clus scale="   92.143">  7  8 -1 -1</clus>
<clus scale="  100.989">  2  7  1 -1</clus>
<clus scale="  124.674">  5  6 -1 -1</clus>
<clus scale="   24.139">  2  5  1 -1</clus>
</clustering>
</event>
<event>
 9    1  0.1612788E-005  0.9506556E+02  0.7546771E-02  0.1291116E+00
          2   -1    0    0  502    0  0.00000000000E+00  0.00000000000E+00  0.65685730226E+03  0.65685730226E+03  0.00000000000E+00 0. -1.
         -2   -1    0    0    0  501 -0.00000000000E+00 -0.00000000000E+00 -0.35826768772E+02  0.35826768772E+02  0.00000000000E+00 0.  1.
         23    2    1    2    0    0  0.25336551829E+02  0.19291271936E+01  0.79280343087E+02  0.12292796936E+03  0.90444737056E+02 0.  0.
         23    2    1    2    0    0 -0.30254573319E+02  0.60785208564E+02  0.36392917273E+03  0.38113587696E+03  0.90608681448E+02 0.  0.
        -11    1    3    3    0    0  0.32954283873E+02 -0.39306378227E+02  0.51116683008E+02  0.72414718647E+02  0.00000000000E+00 0.  1.
         11    1    3    3    0    0 -0.76177320441E+01  0.41235505421E+02  0.28163660079E+02  0.50513250716E+02  0.00000000000E+00 0. -1.
        -13    1    4    4    0    0 -0.47642885362E+02  0.72408259717E+02  0.33071684997E+03  0.34188658274E+03  0.00000000000E+00 0. -1.
         13    1    4    4    0    0  0.17388312043E+02 -0.11623051153E+02  0.33212322759E+02  0.39249294221E+02  0.00000000000E+00 0.  1.
         21    1    1    2  502  501  0.49180214902E+01 -0.62714335758E+02  0.17782101767E+03  0.18862022471E+03  0.00000000000E+00 0.  1.
<scales pt_clust_5="13000.00000" pt_clust_6="13000.00000" pt_clust_7="13000.00000" pt_clust_8="13000.00000" pt_clust_9="62.90687"></scales>
<clustering>
<clus scale="   62.907">  1  9  2 -1</clus>
<clus scale="   90.445">  5  6 -1 -1</clus>
<clus scale="   90.609">  7  8 -1 -1</clus>
<clus scale="   94.909">  2  5  1 -1</clus>
<clus scale="   62.907">  1  5  2 -1</clus>
</clustering>
</event>
<event>
 9    1  0.1612788E-005  0.2151807E+03  0.7546771E-02  0.1152596E+00
          1   -1    0    0  502    0  0.00000000000E+00  0.00000000000E+00  0.13177389190E+03  0.13177389190E+03  0.00000000000E+00 0. -1.
         -1   -1    0    0    0  501 -0.00000000000E+00 -0.00000000000E+00 -0.98952034119E+03  0.98952034119E+03  0.00000000000E+00 0.  1.
         23    2    1    2    0    0 -0.89263655257E+02 -0.19661106551E+03 -0.69800071867E+02  0.24720932913E+03  0.98063709625E+02 0.  0.
         23    2    1    2    0    0 -0.73158188076E+02  0.93371480553E+02 -0.16959624873E+03  0.22647688306E+03  0.91970305591E+02 0.  0.
        -11    1    3    3    0    0 -0.69767656641E+02 -0.20427470625E+03 -0.67323331616E+02  0.22611526376E+03  0.00000000000E+00 0. -1.
         11    1    3    3    0    0 -0.19495998616E+02  0.76636407405E+01 -0.24767402513E+01  0.21094065367E+02  0.00000000000E+00 0.  1.
        -11    1    4    4    0    0 -0.18744328583E+02  0.89932659770E+02 -0.81144091209E+02  0.12257078235E+03  0.00000000000E+00 0. -1.
         11    1    4    4    0    0 -0.54413859493E+02  0.34388207829E+01 -0.88452157525E+02  0.10390610071E+03  0.00000000000E+00 0.  1.
         21    1    1    2  502  501  0.16242184333E+03  0.10323958496E+03 -0.61835012869E+03  0.64760802091E+03  0.00000000000E+00 0.  1.
<scales pt_clust_5="13000.00000" pt_clust_6="13000.00000" pt_clust_7="13000.00000" pt_clust_8="13000.00000" pt_clust_9="191.53648"></scales>
<clustering>
<clus scale="   91.970">  7  8 -1 -1</clus>
<clus scale="   98.064">  5  6 -1 -1</clus>
<clus scale="  150.096">  1  7  2 -1</clus>
<clus scale="  191.536">  2  9  1 -1</clus>
<clus scale="  150.096">  1  5  2 -1</clus>
</clustering>
</event>
<event>
 9    1  0.1612788E-005  0.1210517E+03  0.7546771E-02  0.1244733E+00
         -1   -1    0    0    0  501 -0.00000000000E+00  0.00000000000E+00  0.37143374893E+02  0.37143374893E+02  0.00000000000E+00 0.  1.
          1   -1    0    0  502    0  0.00000000000E+00 -0.00000000000E+00 -0.61005323218E+03  0.61005323218E+03  0.00000000000E+00 0. -1.
         23    2    1    2    0    0 -0.72522154360E+02 -0.23173773204E+00 -0.17443736722E+03  0.21072344858E+03  0.93361984361E+02 0.  0.
         23    2    1    2    0    0  0.52094188419E+02 -0.36638709612E+02 -0.35858612318E+03  0.37844166753E+03  0.10284886230E+03 0.  0.
        -11    1    3    3    0    0 -0.54397019531E+02  0.43748945916E+02 -0.11585092339E+03  0.13525694974E+03  0.00000000000E+00 0.  1.
         11    1    3    3    0    0 -0.18125134829E+02 -0.43980683648E+02 -0.58586443836E+02  0.75466498846E+02  0.00000000000E+00 0. -1.
        -13    1    4    4    0    0 -0.71016258395E+01 -0.57015920176E+02 -0.19486501593E+03  0.20315910681E+03  0.00000000000E+00 0. -1.
         13    1    4    4    0    0  0.59195814259E+02  0.20377210564E+02 -0.16372110724E+03  0.17528256072E+03  0.00000000000E+00 0.  1.
         21    1    1    2  502  501  0.20427965940E+02  0.36870447345E+02 -0.39886366887E+02  0.58031490962E+02  0.00000000000E+00 0.  1.
<scales pt_clust_5="13000.00000" pt_clust_6="13000.00000" pt_clust_7="13000.00000" pt_clust_8="13000.00000" pt_clust_9="42.15130"></scales>
<clustering>
<clus scale="   42.151">  1  9  2 -1</clus>
<clus scale="   93.362">  5  6 -1 -1</clus>
<clus scale="  102.849">  7  8 -1 -1</clus>
<clus scale="  113.102">  1  5  2 -1</clus>
<clus scale="  121.052">  2  5  1 -1</clus>
</clustering>
</event>
<event>
 9    1  0.1612788E-005  0.9470878E+02  0.7546771E-02  0.1295882E+00
          1   -1    0    0  502    0  0.00000000000E+00  0.00000000000E+00  0.36550117192E+02  0.36550117192E+02  0.00000000000E+00 0. -1.
         -1   -1    0    0    0  501 -0.00000000000E+00 -0.00000000000E+00 -0.35272984653E+03  0.35272984653E+03  0.00000000000E+00 0.  1.
         23    2    1    2    0    0  0.33284512909E+02  0.29305901430E+02 -0.17125255122E+03  0.19576863170E+03  0.83852407257E+02 0.  0.
         23    2    1    2    0    0 -0.15972149866E+02 -0.53308663848E+01 -0.80729795312E+02  0.12283018758E+03  0.91029816116E+02 0.  0.
        -13    1    4    4    0    0 -0.16668212526E+02  0.41787539150E+02 -0.33317020504E+02  0.55982600800E+02  0.00000000000E+00 0. -1.
         13    1    4    4    0    0  0.69606265964E+00 -0.47118405535E+02 -0.47412774808E+02  0.66847586780E+02  0.00000000000E+00 0.  1.
        -13    1    3    3    0    0  0.43547131800E+02  0.69736571788E+01 -0.32314929350E+02  0.54673935667E+02  0.00000000000E+00 0. -1.
         13    1    3    3    0    0 -0.10262618891E+02  0.22332244251E+02 -0.13893762186E+03  0.14109469604E+03  0.00000000000E+00 0.  1.
         21    1    1    2  502  501 -0.17312363042E+02 -0.23975035045E+02 -0.64197382810E+02  0.70681144439E+02  0.00000000000E+00 0.  1.
<scales pt_clust_5="13000.00000" pt_clust_6="13000.00000" pt_clust_7="13000.00000" pt_clust_8="13000.00000" pt_clust_9="29.57229"></scales>
<clustering>
<clus scale="   29.572">  2  9  1 -1</clus>
<clus scale="   83.852">  7  8 -1 -1</clus>
<clus scale="   87.833">  2  7  1 -1</clus>
<clus scale="   91.030">  5  6 -1 -1</clus>
<clus scale="   94.709">  1  5  2 -1</clus>
</clustering>
</event>
<event>
 9    1  0.1612788E-005  0.1538431E+03  0.7546771E-02  0.1196167E+00
         -1   -1    0    0    0  501 -0.00000000000E+00  0.00000000000E+00  0.12189321014E+03  0.12189321014E+03  0.00000000000E+00 0.  1.
          1   -1    0    0  502    0  0.00000000000E+00 -0.00000000000E+00 -0.25151641141E+03  0.25151641141E+03  0.00000000000E+00 0. -1.
         23    2    1    2    0    0  0.15560199303E+02 -0.13747044360E+03 -0.60219668921E+02  0.17582353943E+03  0.90262205957E+02 0.  0.
         23    2    1    2    0    0 -0.36384601598E+02  0.10622882539E+03 -0.66958811482E+02  0.15996067713E+03  0.92171216861E+02 0.  0.
        -11    1    4    4    0    0 -0.65771346636E+02  0.53051573765E+02 -0.37835708169E+02  0.92584449720E+02  0.00000000000E+00 0.  1.
         11    1    4    4    0    0  0.29386745039E+02  0.53177251621E+02 -0.29123103313E+02  0.67376227414E+02  0.00000000000E+00 0. -1.
        -13    1    3    3    0    0  0.52690571284E+02 -0.64298128860E+02 -0.31033647687E+02  0.88733494048E+02  0.00000000000E+00 0. -1.
         13    1    3    3    0    0 -0.37130371981E+02 -0.73172314745E+02 -0.29186021235E+02  0.87090045379E+02  0.00000000000E+00 0.  1.
         21    1    1    2  502  501  0.20824402295E+02  0.31241618219E+02 -0.24447208672E+01  0.37625404981E+02  0.00000000000E+00 0. -1.
<scales pt_clust_5="13000.00000" pt_clust_6="13000.00000" pt_clust_7="13000.00000" pt_clust_8="13000.00000" pt_clust_9="37.54590"></scales>
<clustering>
<clus scale="   37.546">  1  9  2 -1</clus>
<clus scale="   90.262">  7  8 -1 -1</clus>
<clus scale="   92.171">  5  6 -1 -1</clus>
<clus scale="  152.707">  1  7  2 -1</clus>
<clus scale="  153.843">  2  5  1 -1</clus>
</clustering>
</event>
<event>
 9    1  0.1612788E-005  0.9217785E+02  0.7546771E-02  0.1297722E+00
          2   -1    0    0  502    0  0.00000000000E+00  0.00000000000E+00  0.30445509820E+03  0.30445509820E+03  0.00000000000E+00 0. -1.
         -2   -1    0    0    0  501 -0.00000000000E+00 -0.00000000000E+00 -0.11457687404E+03  0.11457687404E+03  0.00000000000E+00 0.  1.
         23    2    1    2    0    0  0.24794716378E+02  0.15990976302E+02 -0.56660834812E+02  0.11143612136E+03  0.91307555319E+02 0.  0.
         23    2    1    2    0    0 -0.73873957001E+01  0.10104769200E+02  0.25815343242E+03  0.27414594182E+03  0.91411830557E+02 0.  0.
        -11    1    3    3    0    0  0.41950290517E+02  0.43549108440E+02 -0.49617104312E+02  0.78218979542E+02  0.00000000000E+00 0. -1.
         11    1    3    3    0    0 -0.17155574139E+02 -0.27558132139E+02 -0.70437304998E+01  0.33217141815E+02  0.00000000000E+00 0.  1.
        -13    1    4    4    0    0 -0.48975883547E+02 -0.15419787917E+01  0.14275795897E+03  0.15093326246E+03  0.00000000000E+00 0.  1.
         13    1    4    4    0    0  0.41588487846E+02  0.11646747991E+02  0.11539547345E+03  0.12321267935E+03  0.00000000000E+00 0. -1.
         21    1    1    2  502  501 -0.17407320678E+02 -0.26095745501E+02 -0.11614373453E+02  0.33449909075E+02  0.00000000000E+00 0.  1.
<scales pt_clust_5="13000.00000" pt_clust_6="13000.00000" pt_clust_7="13000.00000" pt_clust_8="13000.00000" pt_clust_9="31.36882"></scales>
<clustering>
<clus scale="   31.369">  2  9  1 -1</clus>
<clus scale="   91.308">  5  6 -1 -1</clus>
<clus scale="   91.412">  7  8 -1 -1</clus>
<clus scale="   92.074">  2  5  1 -1</clus>
<clus scale="   92.178">  1  5  2 -1</clus>
</clustering>
</event>
<event>
 9    1  0.1612788E-005  0.1337514E+03  0.7546771E-02  0.1223070E+00
          1   -1    0    0  502    0  0.00000000000E+00  0.00000000000E+00  0.15590069520E+03  0.15590069520E+03  0.00000000000E+00 0. -1.
         -1   -1    0    0    0  501 -0.00000000000E+00 -0.00000000000E+00 -0.25282051832E+03  0.25282051832E+03  0.00000000000E+00 0.  1.
         23    2    1    2    0    0 -0.16014649514E+02 -0.32863197927E+02 -0.95787541021E+02  0.13797311158E+03  0.92330210270E+02 0.  0.
         23    2    1    2    0    0  0.42714590001E+02  0.11525683439E+03  0.62205216761E+02  0.16344834930E+03  0.87961354159E+02 0.  0.
        -11    1    3    3    0    0  0.10724894069E+01  0.32089681537E+02 -0.32675881110E+02  0.45810600313E+02  0.00000000000E+00 0. -1.
         11    1    3    3    0    0 -0.17087138921E+02 -0.64952879465E+02 -0.63111659911E+02  0.92162511272E+02  0.00000000000E+00 0.  1.
        -11    1    4    4    0    0  0.11260889412E+02  0.36662404237E+02  0.68556956234E+02  0.78555685745E+02  0.00000000000E+00 0.  1.
         11    1    4    4    0    0  0.31453700589E+02  0.78594430154E+02 -0.63517394734E+01  0.84892663560E+02  0.00000000000E+00 0. -1.
         21    1    1    2  502  501 -0.26699940487E+02 -0.82393636464E+02 -0.63337498860E+02  0.10729975263E+03  0.00000000000E+00 0.  1.
<scales pt_clust_5="13000.00000" pt_clust_6="13000.00000" pt_clust_7="13000.00000" pt_clust_8="13000.00000" pt_clust_9="86.61177"></scales>
<clustering>
<clus scale="   86.612">  2  9  1 -1</clus>
<clus scale="   87.961">  7  8 -1 -1</clus>
<clus scale="   92.330">  5  6 -1 -1</clus>
<clus scale="  130.774">  1  7  2 -1</clus>
<clus scale="  130.774">  1  5  2 -1</clus>
</clustering>
</event>
<event>
 9    1  0.1612788E-005  0.9518352E+02  0.7546771E-02  0.1292248E+00
         -1   -1    0    0    0  501 -0.00000000000E+00  0.00000000000E+00  0.25415577641E+03  0.25415577641E+03  0.00000000000E+00 0.  1.
          1   -1    0    0  502    0  0.00000000000E+00 -0.00000000000E+00 -0.54122800129E+02  0.54122800129E+02  0.00000000000E+00 0. -1.
         23    2    1    2    0    0 -0.29549725012E+02 -0.28336891977E+02  0.10775638788E+03  0.14805979453E+03  0.92919846827E+02 0.  0.
         23    2    1    2    0    0 -0.21304583339E+01  0.12480944002E+02  0.46432193259E+02  0.10228128405E+03  0.90250759997E+02 0.  0.
        -11    1    3    3    0    0 -0.12798481935E+02  0.18123650036E+02 -0.68864463409E+01  0.23231249938E+02  0.00000000000E+00 0. -1.
         11    1    3    3    0    0 -0.16751243077E+02 -0.46460542013E+02  0.11464283422E+03  0.12482854460E+03  0.00000000000E+00 0.  1.
        -11    1    4    4    0    0 -0.22672395987E+02  0.43665895069E+02  0.10194262298E+02  0.50246103489E+02  0.00000000000E+00 0.  1.
         11    1    4    4    0    0  0.20541937653E+02 -0.31184951067E+02  0.36237930960E+02  0.52035180560E+02  0.00000000000E+00 0. -1.
         21    1    1    2  502  501  0.31680183346E+02  0.15855947974E+02  0.45844395147E+02  0.57937497956E+02  0.00000000000E+00 0. -1.
<scales pt_clust_5="13000.00000" pt_clust_6="13000.00000" pt_clust_7="13000.00000" pt_clust_8="13000.00000" pt_clust_9="35.42662"></scales>
<clustering>
<clus scale="   35.427">  1  9  2 -1</clus>
<clus scale="   90.251">  7  8 -1 -1</clus>
<clus scale="   92.580">  2  7  1 -1</clus>
<clus scale="   92.920">  5  6 -1 -1</clus>
<clus scale="   92.580">  2  5  1 -1</clus>
</clustering>
</event>
<event>
 9    1  0.1612788E-005  0.1639240E+03  0.7546771E-02  0.1184914E+00
          2   -1    0    0  502    0  0.00000000000E+00  0.00000000000E+00  0.32716500765E+03  0.32716500765E+03  0.00000000000E+00 0. -1.
         -2   -1    0    0    0  501 -0.00000000000E+00 -0.00000000000E+00 -0.19803961293E+03  0.19803961293E+03  0.00000000000E+00 0.  1.
         23    2    1    2    0    0  0.10085189029E+03 -0.62715290067E+02 -0.16414156296E+02  0.15117196368E+03  0.92082716583E+02 0.  0.
         23    2    1    2    0    0 -0.80391911582E+02  0.11972208152E+03  0.22036645776E+03  0.27776505605E+03  0.88293909228E+02 0.  0.
        -11    1    4    4    0    0 -0.55676448124E+02  0.80958580016E+02  0.70300548819E+02  0.12081525449E+03  0.00000000000E+00 0.  1.
         11    1    4    4    0    0 -0.24715463458E+02  0.38763501500E+02  0.15006590894E+03  0.15694980156E+03  0.00000000000E+00 0. -1.
        -13    1    3    3    0    0  0.16221368765E+01  0.20456581008E+02  0.91492910928E+00  0.20541181316E+02  0.00000000000E+00 0. -1.
         13    1    3    3    0    0  0.99229753415E+02 -0.83171871075E+02 -0.17329085406E+02  0.13063078237E+03  0.00000000000E+00 0.  1.
         21    1    1    2  502  501 -0.20459978710E+02 -0.57006791449E+02 -0.74826906739E+02  0.96267600844E+02  0.00000000000E+00 0.  1.
<scales pt_clust_5="13000.00000" pt_clust_6="13000.00000" pt_clust_7="13000.00000" pt_clust_8="13000.00000" pt_clust_9="60.56719"></scales>
<clustering>
<clus scale="   60.567">  2  9  1 -1</clus>
<clus scale="   88.294">  5  6 -1 -1</clus>
<clus scale="   92.083">  7  8 -1 -1</clus>
<clus scale="  161.826">  1  5  2 -1</clus>
<clus scale="  161.826">  1  5  2 -1</clus>
</clustering>
</event>
<event>
 9    1  0.1612788E-005  0.1008800E+03  0.7546771E-02  0.1278987E+00
         -1   -1    0    0    0  501 -0.00000000000E+00  0.00000000000E+00  0.13787137099E+03  0.13787137099E+03  0.00000000000E+00 0.  1.
          1   -1    0    0  502    0  0.00000000000E+00 -0.00000000000E+00 -0.42733957203E+03  0.42733957203E+03  0.00000000000E+00 0. -1.
         23    2    1    2    0    0 -0.52600122151E+02  0.27204242577E+02  0.67095250240E+02  0.12748397040E+03  0.90793977990E+02 0.  0.
         23    2    1    2    0    0  0.38845843054E+02  0.21988299645E+02 -0.37129382781E+03  0.38456617507E+03  0.89663546649E+02 0.  0.
        -11    1    3    3    0    0 -0.58934148743E+02 -0.18630706603E+02  0.43184461846E+02  0.75400496428E+02  0.00000000000E+00 0.  1.
         11    1    3    3    0    0  0.63340265929E+01  0.45834949179E+02  0.23910788395E+02  0.52083473970E+02  0.00000000000E+00 0. -1.
        -11    1    4    4    0    0  0.58400824709E+02  0.83227265325E+01 -0.34070454703E+03  0.34577378800E+03  0.00000000000E+00 0. -1.
         11    1    4    4    0    0 -0.19554981655E+02  0.13665573113E+02 -0.30589280782E+02  0.38792387072E+02  0.00000000000E+00 0.  1.
         21    1    1    2  502  501  0.13754279097E+02 -0.49192542222E+02  0.14730376531E+02  0.53160797553E+02  0.00000000000E+00 0.  1.
<scales pt_clust_5="13000.00000" pt_clust_6="13000.00000" pt_clust_7="13000.00000" pt_clust_8="13000.00000" pt_clust_9="51.07922"></scales>
<clustering>
<clus scale="   51.079">  1  9  2 -1</clus>
<clus scale="   89.664">  7  8 -1 -1</clus>
<clus scale="   90.794">  5  6 -1 -1</clus>
<clus scale="   99.864">  2  7  1 -1</clus>
<clus scale="   99.864">  2  5  1 -1</clus>
</clustering>
</event>
<event>
 9    1  0.1612788E-005  0.1517477E+03  0.7546771E-02  0.1222228E+00
         -2   -1    0    0    0  501 -0.00000000000E+00  0.00000000000E+00  0.13817907520E+03  0.13817907520E+03  0.00000000000E+00 0.  1.
          2   -1    0    0  502    0  0.00000000000E+00 -0.00000000000E+00 -0.24888331516E+03  0.24888331516E+03  0.00000000000E+00 0. -1.
         23    2    1    2    0    0  0.10637665338E+03  0.41801951651E+02 -0.28256231479E+02  0.14914542469E+03  0.91556253432E+02 0.  0.
         23    2    1    2    0    0  0.15411160930E+02 -0.58631573754E+01 -0.59610768720E+02  0.10889988087E+03  0.89631801334E+02 0.  0.
        -11    1    4    4    0    0 -0.95627670326E+01  0.18766720038E+02  0.15400765277E+02  0.26092525087E+02  0.00000000000E+00 0.  1.
         11    1    4    4    0    0  0.24973927962E+02 -0.24629877413E+02 -0.75011533997E+02  0.82807355783E+02  0.00000000000E+00 0. -1.
        -11    1    3    3    0    0 -0.13693093564E+02  0.14867871589E+02  0.65783397263E+01  0.21256268969E+02  0.00000000000E+00 0.  1.
         11    1    3    3    0    0  0.12006974694E+03  0.26934080063E+02 -0.34834571205E+02  0.12788915572E+03  0.00000000000E+00 0. -1.
         21    1    1    2  502  501 -0.12178781431E+03 -0.35938794276E+02 -0.22837239765E+02  0.12901708479E+03  0.00000000000E+00 0.  1.
<scales pt_clust_5="13000.00000" pt_clust_6="13000.00000" pt_clust_7="13000.00000" pt_clust_8="13000.00000" pt_clust_9="121.01572"></scales>
<clustering>
<clus scale="   89.632">  5  6 -1 -1</clus>
<clus scale="   91.136">  2  5  1 -1</clus>
<clus scale="   91.556">  7  8 -1 -1</clus>
<clus scale="  121.016">  2  9  1 -1</clus>
<clus scale="   91.136">  2  5  1 -1</clus>
</clustering>
</event>
<event>
 9    1  0.1612788E-005  0.1697397E+03  0.7546771E-02  0.1178124E+00
         -1   -1    0    0    0  501 -0.00000000000E+00  0.00000000000E+00  0.29610164895E+02  0.29610164895E+02  0.00000000000E+00 0.  1.
          1   -1    0    0  502    0  0.00000000000E+00 -0.00000000000E+00 -0.14130802170E+04  0.14130802170E+04  0.00000000000E+00 0. -1.
         23    2    1    2    0    0 -0.15678737354E+03 -0.15330432084E+02 -0.63383695228E+03  0.65974676144E+03  0.93269526166E+02 0.  0.
         23    2    1    2    0    0  0.12862455627E+03  0.27082495378E+02 -0.72776159989E+03  0.74539874359E+03  0.93298459996E+02 0.  0.
        -11    1    3    3    0    0 -0.21221888560E+02 -0.35091338374E+01 -0.15246577276E+02  0.26365520912E+02  0.00000000000E+00 0.  1.
         11    1    3    3    0    0 -0.13556548498E+03 -0.11821298246E+02 -0.61859037500E+03  0.63338124053E+03  0.00000000000E+00 0. -1.
        -13    1    4    4    0    0  0.96247797265E+02 -0.19623154176E+02 -0.55218687194E+03  0.56085563936E+03  0.00000000000E+00 0.  1.
         13    1    4    4    0    0  0.32376759007E+02  0.46705649554E+02 -0.17557472795E+03  0.18454310423E+03  0.00000000000E+00 0. -1.
         21    1    1    2  502  501  0.28162817266E+02 -0.11752063294E+02 -0.21871499898E+02  0.37544876825E+02  0.00000000000E+00 0.  1.
<scales pt_clust_5="13000.00000" pt_clust_6="13000.00000" pt_clust_7="13000.00000" pt_clust_8="13000.00000" pt_clust_9="30.51648"></scales>
<clustering>
<clus scale="   30.516">  1  9  2 -1</clus>
<clus scale="   93.270">  5  6 -1 -1</clus>
<clus scale="   93.298">  7  8 -1 -1</clus>
<clus scale="  169.724">  1  5  2 -1</clus>
<clus scale="  169.740">  2  5  1 -1</clus>
</clustering>
</event>
<event>
 9    1  0.1612788E-005  0.1221549E+03  0.7546771E-02  0.1244351E+00
          1   -1    0    0  502    0  0.00000000000E+00  0.00000000000E+00  0.28672126174E+03  0.28672126174E+03  0.00000000000E+00 0. -1.
         -1   -1    0    0    0  501 -0.00000000000E+00 -0.00000000000E+00 -0.92716895771E+02  0.92716895771E+02  0.00000000000E+00 0.  1.
         23    2    1    2    0    0 -0.16331280260E+02 -0.64991394742E+02 -0.25920408432E+02  0.11458443173E+03  0.89258794049E+02 0.  0.
         23    2    1    2    0    0  0.38695402913E+02  0.51793621530E+02  0.18480047274E+03  0.22117247390E+03  0.10288894520E+03 0.  0.
        -13    1    3    3    0    0  0.31660733585E+02 -0.46706846065E+01 -0.18934964798E+02  0.37185349773E+02  0.00000000000E+00 0. -1.
         13    1    3    3    0    0 -0.47992013846E+02 -0.60320710135E+02 -0.69854436331E+01  0.77399081952E+02  0.00000000000E+00 0.  1.
        -13    1    4    4    0    0  0.19641171017E+02  0.61225758673E+02  0.18887925825E+03  0.19952379136E+03  0.00000000000E+00 0. -1.
         13    1    4    4    0    0  0.19054231896E+02 -0.94321371424E+01 -0.40787855033E+01  0.21648682532E+02  0.00000000000E+00 0.  1.
         21    1    1    2  502  501 -0.22364122653E+02  0.13197773212E+02  0.35124301657E+02  0.43681251889E+02  0.00000000000E+00 0. -1.
<scales pt_clust_5="13000.00000" pt_clust_6="13000.00000" pt_clust_7="13000.00000" pt_clust_8="13000.00000" pt_clust_9="25.96796"></scales>
<clustering>
<clus scale="   25.968">  1  9  2 -1</clus>
<clus scale="   89.259">  5  6 -1 -1</clus>
<clus scale="  102.889">  7  8 -1 -1</clus>
<clus scale="  110.918">  2  5  1 -1</clus>
<clus scale="   25.968">  1  5  2 -1</clus>
</clustering>
</event>
<event>
 9    1  0.1612788E-005  0.2486440E+03  0.7546771E-02  0.1115018E+00
         -2   -1    0    0    0  501 -0.00000000000E+00  0.00000000000E+00  0.43649091945E+03  0.43649091945E+03  0.00000000000E+00 0.  1.
          2   -1    0    0  502    0  0.00000000000E+00 -0.00000000000E+00 -0.22145045372E+03  0.22145045372E+03  0.00000000000E+00 0. -1.
         23    2    1    2    0    0 -0.21019852850E+03 -0.18162525945E+02  0.21636886849E+03  0.31912388355E+03  0.10252447058E+03 0.  0.
         23    2    1    2    0    0  0.23138913916E+03  0.14532888424E+02 -0.77145377902E+02  0.26001120835E+03  0.88894772439E+02 0.  0.
        -11    1    3    3    0    0 -0.83516312024E+02  0.22094293022E+01  0.15678295388E+03  0.17765345642E+03  0.00000000000E+00 0.  1.
         11    1    3    3    0    0 -0.12668221648E+03 -0.20371955247E+02  0.59585914613E+02  0.14147042713E+03  0.00000000000E+00 0. -1.
        -13    1    4    4    0    0  0.70679798684E+02  0.40880187076E+02 -0.47458820519E+01  0.81788428484E+02  0.00000000000E+00 0.  1.
         13    1    4    4    0    0  0.16070934048E+03 -0.26347298653E+02 -0.72399495850E+02  0.17822277986E+03  0.00000000000E+00 0. -1.
         21    1    1    2  502  501 -0.21190610661E+02  0.36296375213E+01  0.75816975142E+02  0.78806281275E+02  0.00000000000E+00 0.  1.
<scales pt_clust_5="13000.00000" pt_clust_6="13000.00000" pt_clust_7="13000.00000" pt_clust_8="13000.00000" pt_clust_9="21.49922"></scales>
<clustering>
<clus scale="   21.499">  1  9  2 -1</clus>
<clus scale="   88.895">  7  8 -1 -1</clus>
<clus scale="  102.524">  5  6 -1 -1</clus>
<clus scale="  243.341">  2  7  1 -1</clus>
<clus scale="  243.341">  2  5  1 -1</clus>
</clustering>
</event>
<event>
 9    1  0.2547409E-005  0.1135361E+03  0.7546771E-02  0.1254266E+00
          3   -1    0    0  502    0  0.00000000000E+00  0.00000000000E+00  0.24469028424E+03  0.24469028424E+03  0.00000000000E+00 0. -1.
         -3   -1    0    0    0  501 -0.00000000000E+00 -0.00000000000E+00 -0.19382407157E+03  0.19382407157E+03  0.00000000000E+00 0.  1.
         23    2    1    2    0    0  0.55874710186E+02 -0.40508558981E+02 -0.15155644862E+03  0.18975772721E+03  0.90970936732E+02 0.  0.
         23    2    1    2    0    0 -0.50898302931E+02  0.16642458141E+02  0.19723747911E+03  0.22383191170E+03  0.91271533751E+02 0.  0.
        -11    1    3    3    0    0 -0.24613087490E+02 -0.80124354838E+01 -0.48858462728E+02  0.55291523566E+02  0.00000000000E+00 0. -1.
         11    1    3    3    0    0  0.80487797676E+02 -0.32496123498E+02 -0.10269798589E+03  0.13446620364E+03  0.00000000000E+00 0.  1.
        -11    1    4    4    0    0 -0.59165184352E+02 -0.13744578910E+02  0.69648351086E+02  0.92413880439E+02  0.00000000000E+00 0. -1.
         11    1    4    4    0    0  0.82668814209E+01  0.30387037050E+02  0.12758912803E+03  0.13141803126E+03  0.00000000000E+00 0.  1.
         21    1    1    2  502  501 -0.49764072544E+01  0.23866100841E+02  0.51851821758E+01  0.24924716903E+02  0.00000000000E+00 0.  1.
<scales pt_clust_5="13000.00000" pt_clust_6="13000.00000" pt_clust_7="13000.00000" pt_clust_8="13000.00000" pt_clust_9="24.37941"></scales>
<clustering>
<clus scale="   24.379">  1  9  2 -1</clus>
<clus scale="   90.971">  5  6 -1 -1</clus>
<clus scale="   91.272">  7  8 -1 -1</clus>
<clus scale="  113.295">  2  5  1 -1</clus>
<clus scale="   24.379">  1  5  2 -1</clus>
</clustering>
</event>
<event>
 9    1  0.1612788E-005  0.1332886E+03  0.7546771E-02  0.1222977E+00
          1   -1    0    0  502    0  0.00000000000E+00  0.00000000000E+00  0.60235911973E+03  0.60235911973E+03  0.00000000000E+00 0. -1.
         -1   -1    0    0    0  501 -0.00000000000E+00 -0.00000000000E+00 -0.11968769576E+03  0.11968769576E+03  0.00000000000E+00 0.  1.
         23    2    1    2    0    0  0.61417574160E+02 -0.67825421650E+02 -0.17028277439E+00  0.12722529363E+03  0.88395928110E+02 0.  0.
         23    2    1    2    0    0 -0.33764242471E+02  0.94494837077E+02  0.52252663791E+03  0.53958694723E+03  0.89725626186E+02 0.  0.
        -11    1    4    4    0    0  0.91448357928E+01  0.84473646625E+02  0.41059713532E+03  0.41929635406E+03  0.00000000000E+00 0. -1.
         11    1    4    4    0    0 -0.42909078263E+02  0.10021190452E+02  0.11192950259E+03  0.12029059317E+03  0.00000000000E+00 0.  1.
        -13    1    3    3    0    0  0.35416112042E+02 -0.85926503187E+02  0.11098245698E+02  0.93599337603E+02  0.00000000000E+00 0.  1.
         13    1    3    3    0    0  0.26001462118E+02  0.18101081537E+02 -0.11268528472E+02  0.33625956031E+02  0.00000000000E+00 0. -1.
         21    1    1    2  502  501 -0.27653331689E+02 -0.26669415427E+02 -0.39684931162E+02  0.55234574625E+02  0.00000000000E+00 0. -1.
<scales pt_clust_5="13000.00000" pt_clust_6="13000.00000" pt_clust_7="13000.00000" pt_clust_8="13000.00000" pt_clust_9="38.41828"></scales>
<clustering>
<clus scale="   38.418">  2  9  1 -1</clus>
<clus scale="   88.396">  7  8 -1 -1</clus>
<clus scale="   89.726">  5  6 -1 -1</clus>
<clus scale="  132.397">  2  7  1 -1</clus>
<clus scale="  133.289">  1  5  2 -1</clus>
</clustering>
</event>
<event>
 9    1  0.1612788E-005  0.1207153E+03  0.7546771E-02  0.1250013E+00
         -1   -1    0    0    0  501 -0.00000000000E+00  0.00000000000E+00  0.15770758507E+03  0.15770758507E+03  0.00000000000E+00 0.  1.
          1   -1    0    0  502    0  0.00000000000E+00 -0.00000000000E+00 -0.14648883278E+03  0.14648883278E+03  0.00000000000E+00 0. -1.
         23    2    1    2    0    0  0.44687040386E+02 -0.42028615979E+02  0.12190390103E+02  0.11076740870E+03  0.91419238016E+02 0.  0.
         23    2    1    2    0    0 -0.69423759760E+02  0.54129765405E+02 -0.62261701505E+02  0.12623663600E+03  0.65646621179E+02 0.  0.
        -11    1    3    3    0    0  0.46130473183E+02  0.18368444863E+02  0.67260338440E+01  0.50106485149E+02  0.00000000000E+00 0. -1.
         11    1    3    3    0    0 -0.14434327962E+01 -0.60397060842E+02  0.54643562590E+01  0.60660923550E+02  0.00000000000E+00 0.  1.
        -13    1    4    4    0    0 -0.28204398862E+02 -0.95086540223E+01 -0.34324573394E+02  0.45432135710E+02  0.00000000000E+00 0.  1.
         13    1    4    4    0    0 -0.41219360898E+02  0.63638419427E+02 -0.27937128111E+02  0.80804500290E+02  0.00000000000E+00 0. -1.
         21    1    1    2  502  501  0.24736719374E+02 -0.12101149426E+02  0.61290063687E+02  0.67192373150E+02  0.00000000000E+00 0.  1.
<scales pt_clust_5="13000.00000" pt_clust_6="13000.00000" pt_clust_7="13000.00000" pt_clust_8="13000.00000" pt_clust_9="27.53803"></scales>
<clustering>
<clus scale="   27.538">  1  9  2 -1</clus>
<clus scale="   65.647">  7  8 -1 -1</clus>
<clus scale="   91.419">  5  6 -1 -1</clus>
<clus scale="  102.587">  2  7  1 -1</clus>
<clus scale="  102.587">  2  5  1 -1</clus>
</clustering>
</event>
<event>
 9    1  0.1612788E-005  0.1139220E+03  0.7546771E-02  0.1253566E+00
          1   -1    0    0  502    0  0.00000000000E+00  0.00000000000E+00  0.17604347363E+03  0.17604347363E+03  0.00000000000E+00 0. -1.
         -1   -1    0    0    0  501 -0.00000000000E+00 -0.00000000000E+00 -0.17139548897E+03  0.17139548897E+03  0.00000000000E+00 0.  1.
         23    2    1    2    0    0  0.11963002957E+02  0.48946502897E+02 -0.23592390313E+02  0.10662806172E+03  0.90961910051E+02 0.  0.
         23    2    1    2    0    0  0.21992068150E+02 -0.75101937614E+02  0.10058464762E+03  0.15672316453E+03  0.91219114590E+02 0.  0.
        -11    1    4    4    0    0  0.29236070296E+02  0.96974446778E+00  0.67281887756E+02  0.73365800144E+02  0.00000000000E+00 0.  1.
         11    1    4    4    0    0 -0.72440021464E+01 -0.76071682082E+02  0.33302759867E+02  0.83357364382E+02  0.00000000000E+00 0. -1.
        -11    1    3    3    0    0  0.84595128214E+01  0.75638883237E+02 -0.23671537708E+02  0.79706622761E+02  0.00000000000E+00 0.  1.
         11    1    3    3    0    0  0.35034901353E+01 -0.26692380340E+02  0.79147395558E-01  0.26921438960E+02  0.00000000000E+00 0. -1.
         21    1    1    2  502  501 -0.33955071107E+02  0.26155434718E+02 -0.72344272651E+02  0.84087736351E+02  0.00000000000E+00 0.  1.
<scales pt_clust_5="13000.00000" pt_clust_6="13000.00000" pt_clust_7="13000.00000" pt_clust_8="13000.00000" pt_clust_9="42.86086"></scales>
<clustering>
<clus scale="   42.861">  2  9  1 -1</clus>
<clus scale="   90.962">  7  8 -1 -1</clus>
<clus scale="   91.219">  5  6 -1 -1</clus>
<clus scale="  113.716">  2  7  1 -1</clus>
<clus scale="  113.922">  1  5  2 -1</clus>
</clustering>
</event>
<event>
 9    1  0.1612788E-005  0.1364353E+03  0.7546771E-02  0.1218851E+00
         -2   -1    0    0    0  501 -0.00000000000E+00  0.00000000000E+00  0.35146597314E+03  0.35146597314E+03  0.00000000000E+00 0.  1.
          2   -1    0    0  502    0  0.00000000000E+00 -0.00000000000E+00 -0.27959039300E+03  0.27959039300E+03  0.00000000000E+00 0. -1.
         23    2    1    2    0    0  0.10536061903E+03  0.50281584731E+02  0.31799381771E+02  0.15063268119E+03  0.89721269247E+02 0.  0.
         23    2    1    2    0    0 -0.76727639136E+02 -0.59548322257E+02 -0.19872538508E+03  0.23973318615E+03  0.92450465523E+02 0.  0.
        -13    1    3    3    0    0  0.10394777118E+03  0.82783513674E+01  0.30255010402E+02  0.10857732677E+03  0.00000000000E+00 0. -1.
         13    1    3    3    0    0  0.14128478504E+01  0.42003233364E+02  0.15443713693E+01  0.42055354415E+02  0.00000000000E+00 0.  1.
        -13    1    4    4    0    0 -0.64710791006E+02 -0.23918026476E+02 -0.47147772153E+02  0.83561180473E+02  0.00000000000E+00 0.  1.
         13    1    4    4    0    0 -0.12016848130E+02 -0.35630295781E+02 -0.15157761292E+03  0.15617200567E+03  0.00000000000E+00 0. -1.
         21    1    1    2  502  501 -0.28632979895E+02  0.92667375255E+01  0.23880158345E+03  0.24069049881E+03  0.00000000000E+00 0.  1.
<scales pt_clust_5="13000.00000" pt_clust_6="13000.00000" pt_clust_7="13000.00000" pt_clust_8="13000.00000" pt_clust_9="30.09518"></scales>
<clustering>
<clus scale="   30.095">  1  9  2 -1</clus>
<clus scale="   89.721">  5  6 -1 -1</clus>
<clus scale="   92.450">  7  8 -1 -1</clus>
<clus scale="  134.601">  1  5  2 -1</clus>
<clus scale="  136.435">  2  5  1 -1</clus>
</clustering>
</event>
<event>
 9    1  0.1612788E-005  0.9346033E+02  0.7546771E-02  0.1295307E+00
         -2   -1    0    0    0  501 -0.00000000000E+00  0.00000000000E+00  0.85475957716E+02  0.85475957716E+02  0.00000000000E+00 0.  1.
          2   -1    0    0  502    0  0.00000000000E+00 -0.00000000000E+00 -0.27460241106E+03  0.27460241106E+03  0.00000000000E+00 0. -1.
         23    2    1    2    0    0  0.47119865424E+02 -0.44140725951E+02 -0.83718195983E+02  0.14006455685E+03  0.91873055580E+02 0.  0.
         23    2    1    2    0    0  0.34933572889E+01 -0.14370094301E+02 -0.10893718916E+03  0.14256920102E+03  0.90774240518E+02 0.  0.
        -11    1    4    4    0    0 -0.39640349495E+02 -0.25522301431E+02 -0.61485648245E+02  0.77480514444E+02  0.00000000000E+00 0. -1.
         11    1    4    4    0    0  0.43133706784E+02  0.11152207130E+02 -0.47451540912E+02  0.65088686572E+02  0.00000000000E+00 0.  1.
        -13    1    3    3    0    0  0.25726844444E+02 -0.68493236164E+02 -0.33919778425E+02  0.80645801463E+02  0.00000000000E+00 0.  1.
         13    1    3    3    0    0  0.21393020980E+02  0.24352510213E+02 -0.49798417557E+02  0.59418755386E+02  0.00000000000E+00 0. -1.
         21    1    1    2  502  501 -0.50613222713E+02  0.58510820252E+02  0.35289317933E+01  0.77444610913E+02  0.00000000000E+00 0. -1.
<scales pt_clust_5="13000.00000" pt_clust_6="13000.00000" pt_clust_7="13000.00000" pt_clust_8="13000.00000" pt_clust_9="77.36417"></scales>
<clustering>
<clus scale="   77.364">  1  9  2 -1</clus>
<clus scale="   90.774">  5  6 -1 -1</clus>
<clus scale="   91.873">  7  8 -1 -1</clus>
<clus scale="   92.380">  2  5  1 -1</clus>
<clus scale="   92.380">  2  5  1 -1</clus>
</clustering>
</event>
<event>
 9    1  0.1612788E-005  0.1394934E+03  0.7546771E-02  0.1214388E+00
         -4   -1    0    0    0  501 -0.00000000000E+00  0.00000000000E+00  0.74392222977E+02  0.74392222977E+02  0.00000000000E+00 0.  1.
          4   -1    0    0  502    0  0.00000000000E+00 -0.00000000000E+00 -0.32275824884E+03  0.32275824884E+03  0.00000000000E+00 0. -1.
         23    2    1    2    0    0  0.52338563666E+02  0.10522763996E+03 -0.11472111806E+03  0.18840406246E+03  0.92319956482E+02 0.  0.
         23    2    1    2    0    0 -0.45381527168E+02 -0.83512840427E+02 -0.13148365527E+03  0.18584217638E+03  0.90639314829E+02 0.  0.
        -11    1    3    3    0    0  0.75557616784E+02  0.59079038672E+02 -0.88343810814E+02  0.13039906125E+03  0.00000000000E+00 0.  1.
         11    1    3    3    0    0 -0.23219053119E+02  0.46148601289E+02 -0.26377307251E+02  0.58005001219E+02  0.00000000000E+00 0. -1.
        -11    1    4    4    0    0 -0.94370150887E+01 -0.93421153922E+02 -0.89972251618E+02  0.13004451282E+03  0.00000000000E+00 0.  1.
         11    1    4    4    0    0 -0.35944512080E+02  0.99083134947E+01 -0.41511403652E+02  0.55797663554E+02  0.00000000000E+00 0. -1.
         21    1    1    2  502  501 -0.69570364973E+01 -0.21714799534E+02 -0.21612525253E+01  0.22904232973E+02  0.00000000000E+00 0. -1.
<scales pt_clust_5="13000.00000" pt_clust_6="13000.00000" pt_clust_7="13000.00000" pt_clust_8="13000.00000" pt_clust_9="22.80204"></scales>
<clustering>
<clus scale="   22.802">  1  9  2 -1</clus>
<clus scale="   90.639">  7  8 -1 -1</clus>
<clus scale="   92.320">  5  6 -1 -1</clus>
<clus scale="  138.387">  2  7  1 -1</clus>
<clus scale="  138.387">  2  5  1 -1</clus>
</clustering>
</event>
<event>
 9    1  0.1612788E-005  0.1086405E+03  0.7546771E-02  0.1263297E+00
          1   -1    0    0  502    0  0.00000000000E+00  0.00000000000E+00  0.42997301337E+02  0.42997301337E+02  0.00000000000E+00 0. -1.
         -1   -1    0    0    0  501 -0.00000000000E+00 -0.00000000000E+00 -0.52351482601E+03  0.52351482601E+03  0.00000000000E+00 0.  1.
         23    2    1    2    0    0 -0.44251653921E+02  0.32607148137E+01 -0.25713991932E+03  0.27670903541E+03  0.92076658446E+02 0.  0.
         23    2    1    2    0    0  0.81751199558E+02 -0.42585988037E+02 -0.16533517866E+03  0.21029449911E+03  0.91603657401E+02 0.  0.
        -11    1    3    3    0    0  0.39537503437E+01  0.40820534157E+02 -0.10894384994E+03  0.11640751948E+03  0.00000000000E+00 0. -1.
         11    1    3    3    0    0 -0.48205404265E+02 -0.37559819343E+02 -0.14819606938E+03  0.16030151593E+03  0.00000000000E+00 0.  1.
        -11    1    4    4    0    0 -0.12144569893E+02 -0.16802783086E+02 -0.29330548269E+01  0.20938646278E+02  0.00000000000E+00 0. -1.
         11    1    4    4    0    0  0.93895769451E+02 -0.25783204951E+02 -0.16240212383E+03  0.18935585283E+03  0.00000000000E+00 0.  1.
         21    1    1    2  502  501 -0.37499545637E+02  0.39325273223E+02 -0.58042426693E+02  0.79508592827E+02  0.00000000000E+00 0. -1.
<scales pt_clust_5="13000.00000" pt_clust_6="13000.00000" pt_clust_7="13000.00000" pt_clust_8="13000.00000" pt_clust_9="54.33869"></scales>
<clustering>
<clus scale="   54.339">  1  9  2 -1</clus>
<clus scale="   91.604">  7  8 -1 -1</clus>
<clus scale="   92.077">  5  6 -1 -1</clus>
<clus scale="  108.240">  1  7  2 -1</clus>
<clus scale="   54.339">  1  5  2 -1</clus>
</clustering>
</event>
<event>
 9    1  0.1612788E-005  0.1025654E+03  0.7546771E-02  0.1283363E+00
          1   -1    0    0  502    0  0.00000000000E+00  0.00000000000E+00  0.45263492375E+03  0.45263492375E+03  0.00000000000E+00 0. -1.
         -1   -1    0    0    0  501 -0.00000000000E+00 -0.00000000000E+00 -0.38258732533E+02  0.38258732533E+02  0.00000000000E+00 0.  1.
         23    2    1    2    0    0  0.65198477370E+01  0.11158636602E+02  0.10190101632E+03  0.13878020322E+03  0.93322580839E+02 0.  0.
         23    2    1    2    0    0 -0.29005648972E+02 -0.46053421724E+02  0.29024315069E+03  0.30502290001E+03  0.76391345621E+02 0.  0.
        -11    1    3    3    0    0 -0.52326082114E+01  0.37257514633E+02  0.10348651521E+03  0.11011340253E+03  0.00000000000E+00 0.  1.
         11    1    3    3    0    0  0.11752455948E+02 -0.26098878031E+02 -0.15854988951E+01  0.28666800694E+02  0.00000000000E+00 0. -1.
        -11    1    4    4    0    0  0.78654402159E+01 -0.53659143722E+02  0.14006356369E+03  0.15019644046E+03  0.00000000000E+00 0. -1.
         11    1    4    4    0    0 -0.36871089188E+02  0.76057219980E+01  0.15017958700E+03  0.15482645955E+03  0.00000000000E+00 0.  1.
         21    1    1    2  502  501  0.22485801235E+02  0.34894785123E+02  0.22232024212E+02  0.47090553050E+02  0.00000000000E+00 0.  1.
<scales pt_clust_5="13000.00000" pt_clust_6="13000.00000" pt_clust_7="13000.00000" pt_clust_8="13000.00000" pt_clust_9="41.51213"></scales>
<clustering>
<clus scale="   41.512">  2  9  1 -1</clus>
<clus scale="   76.391">  7  8 -1 -1</clus>
<clus scale="   87.443">  1  7  2 -1</clus>
<clus scale="   93.323">  5  6 -1 -1</clus>
<clus scale="   87.443">  1  5  2 -1</clus>
</clustering>
</event>
<event>
 9    1  0.1612788E-005  0.1670224E+03  0.7546771E-02  0.1181096E+00
         -2   -1    0    0    0  501 -0.00000000000E+00  0.00000000000E+00  0.93398504533E+02  0.93398504533E+02  0.00000000000E+00 0.  1.
          2   -1    0    0  502    0  0.00000000000E+00 -0.00000000000E+00 -0.42635205338E+03  0.42635205338E+03  0.00000000000E+00 0. -1.
         23    2    1    2    0    0 -0.71168024847E+02  0.11336058954E+03 -0.12298019730E+03  0.20214705326E+03  0.88452197196E+02 0.  0.
         23    2    1    2    0    0  0.38201096671E+02 -0.14501115117E+03 -0.20850211508E+03  0.27187888393E+03  0.89204471759E+02 0.  0.
        -11    1    4    4    0    0 -0.12508773692E+02 -0.11465063789E+03 -0.13474889984E+03  0.17736545378E+03  0.00000000000E+00 0. -1.
         11    1    4    4    0    0  0.50709870363E+02 -0.30360513275E+02 -0.73753215245E+02  0.94513430144E+02  0.00000000000E+00 0.  1.
        -13    1    3    3    0    0 -0.19317340718E+02 -0.58366935938E+01 -0.48037662828E+02  0.52104161969E+02  0.00000000000E+00 0. -1.
         13    1    3    3    0    0 -0.51850684129E+02  0.11919728314E+03 -0.74942534476E+02  0.15004289129E+03  0.00000000000E+00 0.  1.
         21    1    1    2  502  501  0.32966928176E+02  0.31650561624E+02 -0.14712364622E+01  0.45724620733E+02  0.00000000000E+00 0.  1.
<scales pt_clust_5="13000.00000" pt_clust_6="13000.00000" pt_clust_7="13000.00000" pt_clust_8="13000.00000" pt_clust_9="45.70095"></scales>
<clustering>
<clus scale="   45.701">  1  9  2 -1</clus>
<clus scale="   88.452">  7  8 -1 -1</clus>
<clus scale="   89.204">  5  6 -1 -1</clus>
<clus scale="  166.622">  1  7  2 -1</clus>
<clus scale="  167.022">  2  5  1 -1</clus>
</clustering>
</event>
<event>
 9    1  0.1612788E-005  0.9693440E+02  0.7546771E-02  0.1300704E+00
         -1   -1    0    0    0  501 -0.00000000000E+00  0.00000000000E+00  0.23147469227E+03  0.23147469227E+03  0.00000000000E+00 0.  1.
          1   -1    0    0  502    0  0.00000000000E+00 -0.00000000000E+00 -0.47995672436E+02  0.47995672436E+02  0.00000000000E+00 0. -1.
         23    2    1    2    0    0 -0.19712986654E+02  0.44530265960E+02  0.10529080330E+03  0.14770926063E+03  0.91434818243E+02 0.  0.
         23    2    1    2    0    0  0.81112469266E+01 -0.23801291801E+02  0.30276097534E+02  0.78283427598E+02  0.67670962284E+02 0.  0.
        -13    1    3    3    0    0 -0.36350101993E+02  0.66584434317E+02  0.74140918948E+02  0.10607399620E+03  0.00000000000E+00 0.  1.
         13    1    3    3    0    0  0.16637115339E+02 -0.22054168357E+02  0.31149884349E+02  0.41635264424E+02  0.00000000000E+00 0. -1.
        -13    1    4    4    0    0 -0.70716543323E+01 -0.39753549123E+02  0.37500915217E+02  0.55106003348E+02  0.00000000000E+00 0.  1.
         13    1    4    4    0    0  0.15182901259E+02  0.15952257322E+02 -0.72248176828E+01  0.23177424250E+02  0.00000000000E+00 0. -1.
         21    1    1    2  502  501  0.11601739728E+02 -0.20728974159E+02  0.47912119004E+02  0.53477676481E+02  0.00000000000E+00 0. -1.
<scales pt_clust_5="13000.00000" pt_clust_6="13000.00000" pt_clust_7="13000.00000" pt_clust_8="13000.00000" pt_clust_9="23.75480"></scales>
<clustering>
<clus scale="   23.755">  1  9  2 -1</clus>
<clus scale="   67.671">  7  8 -1 -1</clus>
<clus scale="   74.935">  2  7  1 -1</clus>
<clus scale="   91.435">  5  6 -1 -1</clus>
<clus scale="   74.935">  2  5  1 -1</clus>
</clustering>
</event>
<event>
 9    1  0.1612788E-005  0.1450705E+03  0.7546771E-02  0.1206847E+00
         -2   -1    0    0    0  501 -0.00000000000E+00  0.00000000000E+00  0.45789763756E+02  0.45789763756E+02  0.00000000000E+00 0.  1.
          2   -1    0    0  502    0  0.00000000000E+00 -0.00000000000E+00 -0.61595835385E+03  0.61595835385E+03  0.00000000000E+00 0. -1.
         23    2    1    2    0    0 -0.30140533069E+02 -0.11004902760E+03 -0.27206179651E+03  0.30831893594E+03  0.89575135649E+02 0.  0.
         23    2    1    2    0    0  0.80183515789E+01  0.11350650378E+03 -0.29739300062E+03  0.33102707115E+03  0.90489251579E+02 0.  0.
        -11    1    4    4    0    0 -0.14080813420E+02  0.43933923616E+02 -0.21941486247E+03  0.22421271334E+03  0.00000000000E+00 0. -1.
         11    1    4    4    0    0  0.22099164999E+02  0.69572580163E+02 -0.77978138155E+02  0.10681435781E+03  0.00000000000E+00 0.  1.
        -13    1    3    3    0    0  0.24883654027E+02 -0.66619646909E+02 -0.10168676231E+03  0.12408695024E+03  0.00000000000E+00 0.  1.
         13    1    3    3    0    0 -0.55024187096E+02 -0.43429380695E+02 -0.17037503420E+03  0.18423198569E+03  0.00000000000E+00 0. -1.
         21    1    1    2  502  501  0.22122181490E+02 -0.34574761747E+01 -0.71379296084E+00  0.22402110521E+02  0.00000000000E+00 0.  1.
<scales pt_clust_5="13000.00000" pt_clust_6="13000.00000" pt_clust_7="13000.00000" pt_clust_8="13000.00000" pt_clust_9="22.39074"></scales>
<clustering>
<clus scale="   22.391">  1  9  2 -1</clus>
<clus scale="   89.575">  7  8 -1 -1</clus>
<clus scale="   90.489">  5  6 -1 -1</clus>
<clus scale="  144.502">  1  7  2 -1</clus>
<clus scale="  145.070">  2  5  1 -1</clus>
</clustering>
</event>
<event>
 9    1  0.1612788E-005  0.1007640E+03  0.7546771E-02  0.1280114E+00
         -2   -1    0    0    0  501 -0.00000000000E+00  0.00000000000E+00  0.99285421075E+02  0.99285421075E+02  0.00000000000E+00 0.  1.
          2   -1    0    0  502    0  0.00000000000E+00 -0.00000000000E+00 -0.35645273011E+03  0.35645273011E+03  0.00000000000E+00 0. -1.
         23    2    1    2    0    0  0.17395175655E+02  0.56466972148E+02  0.26343862718E+02  0.11281352898E+03  0.92421762260E+02 0.  0.
         23    2    1    2    0    0  0.96276693932E+01 -0.89940649671E+01 -0.50498653603E+02  0.10359483992E+03  0.89488499933E+02 0.  0.
        -13    1    4    4    0    0  0.34478259859E+02  0.27537735397E+02 -0.14021385915E+02  0.46299854607E+02  0.00000000000E+00 0. -1.
         13    1    4    4    0    0 -0.24850590466E+02 -0.36531800364E+02 -0.36477267688E+02  0.57294985316E+02  0.00000000000E+00 0.  1.
        -13    1    3    3    0    0 -0.20988960301E+02  0.65939536358E+02  0.23869447843E+02  0.73200474383E+02  0.00000000000E+00 0.  1.
         13    1    3    3    0    0  0.38384135956E+02 -0.94725642101E+01  0.24744148752E+01  0.39613054600E+02  0.00000000000E+00 0. -1.
         21    1    1    2  502  501 -0.27022845048E+02 -0.47472907180E+02 -0.23301251815E+03  0.23932978227E+03  0.00000000000E+00 0. -1.
<scales pt_clust_5="13000.00000" pt_clust_6="13000.00000" pt_clust_7="13000.00000" pt_clust_8="13000.00000" pt_clust_9="54.62519"></scales>
<clustering>
<clus scale="   54.625">  2  9  1 -1</clus>
<clus scale="   89.488">  5  6 -1 -1</clus>
<clus scale="   92.422">  7  8 -1 -1</clus>
<clus scale="   98.081">  2  5  1 -1</clus>
<clus scale="   54.625">  2  5  1 -1</clus>
</clustering>
</event>
<event>
 9    1  0.1612788E-005  0.1017227E+03  0.7546771E-02  0.1276917E+00
          3   -1    0    0  502    0  0.00000000000E+00  0.00000000000E+00  0.37312667581E+03  0.37312667581E+03  0.00000000000E+00 0. -1.
         -3   -1    0    0    0  501 -0.00000000000E+00 -0.00000000000E+00 -0.54557768368E+02  0.54557768368E+02  0.00000000000E+00 0.  1.
         23    2    1    2    0    0  0.49903322418E+02 -0.41220659986E+02  0.65452131193E+02  0.12954665696E+03  0.91153005734E+02 0.  0.
         23    2    1    2    0    0 -0.26376050082E+02  0.27816708264E+02  0.25220418118E+03  0.27104477529E+03  0.91590697836E+02 0.  0.
        -11    1    4    4    0    0  0.20076194245E+02 -0.15362216187E+02  0.13905073079E+03  0.14132995789E+03  0.00000000000E+00 0. -1.
         11    1    4    4    0    0 -0.46452244327E+02  0.43178924451E+02  0.11315345039E+03  0.12971481741E+03  0.00000000000E+00 0.  1.
        -11    1    3    3    0    0  0.25216274581E+02 -0.67810491377E+02  0.28497465150E+02  0.77757499732E+02  0.00000000000E+00 0.  1.
         11    1    3    3    0    0  0.24687047837E+02  0.26589831391E+02  0.36954666043E+02  0.51789157231E+02  0.00000000000E+00 0. -1.
         21    1    1    2  502  501 -0.23527272336E+02  0.13403951722E+02  0.91259506620E+00  0.27093011924E+02  0.00000000000E+00 0. -1.
<scales pt_clust_5="13000.00000" pt_clust_6="13000.00000" pt_clust_7="13000.00000" pt_clust_8="13000.00000" pt_clust_9="27.07764"></scales>
<clustering>
<clus scale="   27.078">  2  9  1 -1</clus>
<clus scale="   91.153">  7  8 -1 -1</clus>
<clus scale="   91.591">  5  6 -1 -1</clus>
<clus scale="  101.329">  2  7  1 -1</clus>
<clus scale="  101.723">  1  5  2 -1</clus>
</clustering>
</event>
<event>
 9    1  0.1612788E-005  0.1408977E+03  0.7546771E-02  0.1212457E+00
          2   -1    0    0  502    0  0.00000000000E+00  0.00000000000E+00  0.41863311766E+03  0.41863311766E+03  0.00000000000E+00 0. -1.
         -2   -1    0    0    0  501 -0.00000000000E+00 -0.00000000000E+00 -0.25395648383E+03  0.25395648383E+03  0.00000000000E+00 0.  1.
         23    2    1    2    0    0  0.13280724742E+02  0.69604450098E+02 -0.15210614702E+03  0.19096858659E+03  0.91167779280E+02 0.  0.
         23    2    1    2    0    0  0.80572103193E+02 -0.79165506642E+02  0.35241694906E+03  0.38077677334E+03  0.89633720646E+02 0.  0.
        -11    1    3    3    0    0  0.37034565631E+02  0.79853218983E+02 -0.10319209978E+03  0.13563445392E+03  0.00000000000E+00 0.  1.
         11    1    3    3    0    0 -0.23753840889E+02 -0.10248768885E+02 -0.48914047235E+02  0.55334132663E+02  0.00000000000E+00 0. -1.
        -13    1    4    4    0    0  0.14043839379E+01 -0.63157121007E+02  0.16599528245E+03  0.17760976332E+03  0.00000000000E+00 0.  1.
         13    1    4    4    0    0  0.79167719255E+02 -0.16008385635E+02  0.18642166661E+03  0.20316701003E+03  0.00000000000E+00 0. -1.
         21    1    1    2  502  501 -0.93852827935E+02  0.95610565437E+01 -0.35634168207E+02  0.10084424157E+03  0.00000000000E+00 0.  1.
<scales pt_clust_5="13000.00000" pt_clust_6="13000.00000" pt_clust_7="13000.00000" pt_clust_8="13000.00000" pt_clust_9="94.33858"></scales>
<clustering>
<clus scale="   89.634">  7  8 -1 -1</clus>
<clus scale="   91.168">  5  6 -1 -1</clus>
<clus scale="   94.339">  2  9  1 -1</clus>
<clus scale="  139.910">  1  7  2 -1</clus>
<clus scale="  139.910">  1  5  2 -1</clus>
</clustering>
</event>
<event>
 9    1  0.1612788E-005  0.1004961E+03  0.7546771E-02  0.1279356E+00
          2   -1    0    0  502    0  0.00000000000E+00  0.00000000000E+00  0.74294215546E+02  0.74294215546E+02  0.00000000000E+00 0. -1.
         -2   -1    0    0    0  501 -0.00000000000E+00 -0.00000000000E+00 -0.30067376592E+03  0.30067376592E+03  0.00000000000E+00 0.  1.
         23    2    1    2    0    0  0.23507579711E+02  0.21135963035E+01 -0.93169700495E+02  0.13252678667E+03  0.91245177964E+02 0.  0.
         23    2    1    2    0    0 -0.47557384371E+02  0.18025627921E+02  0.96380058999E+00  0.10464950442E+03  0.91454698040E+02 0.  0.
        -11    1    3    3    0    0  0.49117569050E+02  0.82291902412E+01 -0.93786748822E+02  0.10618949767E+03  0.00000000000E+00 0.  1.
         11    1    3    3    0    0 -0.25609989339E+02 -0.61155939377E+01  0.61704832654E+00  0.26337288998E+02  0.00000000000E+00 0. -1.
        -11    1    4    4    0    0  0.20067465824E+02 -0.15091300410E+02  0.13194072820E+02  0.28364310149E+02  0.00000000000E+00 0.  1.
         11    1    4    4    0    0 -0.67624850195E+02  0.33116928331E+02 -0.12230272230E+02  0.76285194270E+02  0.00000000000E+00 0. -1.
         21    1    1    2  502  501  0.24049804660E+02 -0.20139224224E+02 -0.13417365047E+03  0.13779169038E+03  0.00000000000E+00 0.  1.
<scales pt_clust_5="13000.00000" pt_clust_6="13000.00000" pt_clust_7="13000.00000" pt_clust_8="13000.00000" pt_clust_9="31.36848"></scales>
<clustering>
<clus scale="   31.368">  2  9  1 -1</clus>
<clus scale="   91.245">  5  6 -1 -1</clus>
<clus scale="   91.455">  7  8 -1 -1</clus>
<clus scale="  100.305">  2  5  1 -1</clus>
<clus scale="  100.496">  1  5  2 -1</clus>
</clustering>
</event>
<event>
 9    1  0.1612788E-005  0.1410556E+03  0.7546771E-02  0.1212117E+00
         -1   -1    0    0    0  501 -0.00000000000E+00  0.00000000000E+00  0.19068261659E+03  0.19068261659E+03  0.00000000000E+00 0.  1.
          1   -1    0    0  502    0  0.00000000000E+00 -0.00000000000E+00 -0.23817119499E+03  0.23817119499E+03  0.00000000000E+00 0. -1.
         23    2    1    2    0    0 -0.23917890211E+02  0.11953237447E+03  0.80964360260E+02  0.17315389780E+03  0.92558039478E+02 0.  0.
         23    2    1    2    0    0  0.62317063574E+02 -0.84582710231E+02 -0.14505660111E+03  0.20118700565E+03  0.91635923274E+02 0.  0.
        -11    1    4    4    0    0  0.70516736600E+02 -0.29580594373E+02 -0.11463471799E+03  0.13779963815E+03  0.00000000000E+00 0.  1.
         11    1    4    4    0    0 -0.81996730260E+01 -0.55002115858E+02 -0.30421883119E+02  0.63387367504E+02  0.00000000000E+00 0. -1.
        -13    1    3    3    0    0  0.18958800279E+02 -0.63778388653E+01  0.91761653847E+01  0.22007156740E+02  0.00000000000E+00 0.  1.
         13    1    3    3    0    0 -0.42876690490E+02  0.12591021333E+03  0.71788194875E+02  0.15114674106E+03  0.00000000000E+00 0. -1.
         21    1    1    2  502  501 -0.38399173363E+02 -0.34949664237E+02  0.16603662452E+02  0.54512908123E+02  0.00000000000E+00 0. -1.
<scales pt_clust_5="13000.00000" pt_clust_6="13000.00000" pt_clust_7="13000.00000" pt_clust_8="13000.00000" pt_clust_9="51.92278"></scales>
<clustering>
<clus scale="   51.923">  1  9  2 -1</clus>
<clus scale="   91.636">  5  6 -1 -1</clus>
<clus scale="   92.558">  7  8 -1 -1</clus>
<clus scale="  140.452">  2  5  1 -1</clus>
<clus scale="  140.452">  2  5  1 -1</clus>
</clustering>
</event>
<event>
 9    1  0.1612788E-005  0.9818922E+02  0.7546771E-02  0.1285368E+00
          2   -1    0    0  502    0  0.00000000000E+00  0.00000000000E+00  0.52456179711E+03  0.52456179711E+03  0.00000000000E+00 0. -1.
         -2   -1    0    0    0  501 -0.00000000000E+00 -0.00000000000E+00 -0.25130479077E+02  0.25130479077E+02  0.00000000000E+00 0.  1.
         23    2    1    2    0    0  0.47993762843E+01  0.27549703668E+02  0.17438444730E+03  0.19855310105E+03  0.90726943579E+02 0.  0.
         23    2    1    2    0    0  0.19831323448E+02 -0.31059084866E+02  0.29810689700E+03  0.31446835144E+03  0.93084230023E+02 0.  0.
        -11    1    3    3    0    0  0.23087031329E+02  0.55355914441E+02  0.93430063443E+02  0.11102461454E+03  0.00000000000E+00 0.  1.
         11    1    3    3    0    0 -0.18287655044E+02 -0.27806210773E+02  0.80954383857E+02  0.87528486507E+02  0.00000000000E+00 0. -1.
        -11    1    4    4    0    0  0.17871439898E+02 -0.55523487484E+02  0.27373403355E+03  0.27987955829E+03  0.00000000000E+00 0. -1.
         11    1    4    4    0    0  0.19598835498E+01  0.24464402617E+02  0.24372863448E+02  0.34588793151E+02  0.00000000000E+00 0.  1.
         21    1    1    2  502  501 -0.24630699732E+02  0.35093811989E+01  0.26939973734E+02  0.36670823695E+02  0.00000000000E+00 0.  1.
<scales pt_clust_5="13000.00000" pt_clust_6="13000.00000" pt_clust_7="13000.00000" pt_clust_8="13000.00000" pt_clust_9="24.87945"></scales>
<clustering>
<clus scale="   24.879">  2  9  1 -1</clus>
<clus scale="   90.727">  5  6 -1 -1</clus>
<clus scale="   93.084">  7  8 -1 -1</clus>
<clus scale="   95.957">  2  5  1 -1</clus>
<clus scale="   98.189">  1  5  2 -1</clus>
</clustering>
</event>
<event>
 9    1  0.2833644E-005  0.9099559E+02  0.7546771E-02  0.1302199E+00
          1   -1    0    0  502    0  0.00000000000E+00  0.00000000000E+00  0.42938058185E+03  0.42938058185E+03  0.00000000000E+00 0. -1.
         -1   -1    0    0    0  501 -0.00000000000E+00 -0.00000000000E+00 -0.68155117189E+02  0.68155117189E+02  0.00000000000E+00 0.  1.
         23    2    1    2    0    0  0.23889884924E+02 -0.83197403278E+01 -0.17548893594E+02  0.95895798422E+02  0.90819027784E+02 0.  0.
         23    2    1    2    0    0 -0.13594571684E+01 -0.58226673577E+01  0.35559161158E+03  0.36635438498E+03  0.87945378471E+02 0.  0.
        -11    1    3    3    0    0 -0.24128019194E+02 -0.12757109656E+00 -0.36394043805E+02  0.43665821979E+02  0.00000000000E+00 0.  1.
         11    1    3    3    0    0  0.48017904119E+02 -0.81921692313E+01  0.18845150211E+02  0.52229976442E+02  0.00000000000E+00 0. -1.
        -13    1    4    4    0    0 -0.20517602887E+02  0.35821949595E+02  0.19654640866E+03  0.20083494431E+03  0.00000000000E+00 0.  1.
         13    1    4    4    0    0  0.19158145719E+02 -0.41644616952E+02  0.15904520292E+03  0.16551944067E+03  0.00000000000E+00 0. -1.
         21    1    1    2  502  501 -0.22530427756E+02  0.14142407686E+02  0.23182746681E+02  0.35285515636E+02  0.00000000000E+00 0.  1.
<scales pt_clust_5="13000.00000" pt_clust_6="13000.00000" pt_clust_7="13000.00000" pt_clust_8="13000.00000" pt_clust_9="26.60128"></scales>
<clustering>
<clus scale="   26.601">  2  9  1 -1</clus>
<clus scale="   87.945">  7  8 -1 -1</clus>
<clus scale="   88.128">  1  7  2 -1</clus>
<clus scale="   90.819">  5  6 -1 -1</clus>
<clus scale="   88.128">  1  5  2 -1</clus>
</clustering>
</event>
<event>
 9    1  0.1612788E-005  0.1050331E+03  0.7546771E-02  0.1271555E+00
         -2   -1    0    0    0  501 -0.00000000000E+00  0.00000000000E+00  0.35910223389E+02  0.35910223389E+02  0.00000000000E+00 0.  1.
          2   -1    0    0  502    0  0.00000000000E+00 -0.00000000000E+00 -0.52350745336E+03  0.52350745336E+03  0.00000000000E+00 0. -1.
         23    2    1    2    0    0 -0.55010464020E+02 -0.48822538397E+02 -0.24034023846E+03  0.26691612384E+03  0.89838719583E+02 0.  0.
         23    2    1    2    0    0  0.22892824401E+02  0.34991699227E+02 -0.23759589253E+03  0.25622247187E+03  0.86311334842E+02 0.  0.
        -13    1    3    3    0    0 -0.74011734335E+02 -0.16963075779E+02 -0.18807749219E+03  0.20282659053E+03  0.00000000000E+00 0. -1.
         13    1    3    3    0    0  0.19001270315E+02 -0.31859462618E+02 -0.52262746271E+02  0.64089533309E+02  0.00000000000E+00 0.  1.
        -13    1    4    4    0    0  0.51438857457E+02  0.20046368600E+02 -0.19588161142E+03  0.20351269898E+03  0.00000000000E+00 0.  1.
         13    1    4    4    0    0 -0.28546033056E+02  0.14945330627E+02 -0.41714281107E+02  0.52709772899E+02  0.00000000000E+00 0. -1.
         21    1    1    2  502  501  0.32117639619E+02  0.13830839170E+02 -0.96610989767E+01  0.36279081028E+02  0.00000000000E+00 0.  1.
<scales pt_clust_5="13000.00000" pt_clust_6="13000.00000" pt_clust_7="13000.00000" pt_clust_8="13000.00000" pt_clust_9="34.96906"></scales>
<clustering>
<clus scale="   34.969">  1  9  2 -1</clus>
<clus scale="   86.311">  7  8 -1 -1</clus>
<clus scale="   89.839">  5  6 -1 -1</clus>
<clus scale="  102.032">  2  7  1 -1</clus>
<clus scale="  102.032">  2  5  1 -1</clus>
</clustering>
</event>
<event>
 9    1  0.1612788E-005  0.1006148E+03  0.7546771E-02  0.1281396E+00
         -2   -1    0    0    0  501 -0.00000000000E+00  0.00000000000E+00  0.16789984083E+03  0.16789984083E+03  0.00000000000E+00 0.  1.
          2   -1    0    0  502    0  0.00000000000E+00 -0.00000000000E+00 -0.92044059461E+02  0.92044059461E+02  0.00000000000E+00 0. -1.
         23    2    1    2    0    0 -0.35073241016E+02  0.15606079407E+02  0.45945383043E+02  0.10794749713E+03  0.89822057226E+02 0.  0.
         23    2    1    2    0    0  0.32934028689E+02  0.28852366917E+02  0.16644723351E+02  0.10555172842E+03  0.94588642210E+02 0.  0.
        -11    1    4    4    0    0 -0.85488506141E+01  0.53340690263E+02  0.19149381343E+02  0.57315014529E+02  0.00000000000E+00 0.  1.
         11    1    4    4    0    0  0.41482879303E+02 -0.24488323347E+02 -0.25046579922E+01  0.48236713893E+02  0.00000000000E+00 0. -1.
        -13    1    3    3    0    0  0.22791135419E+02 -0.19504031190E+02  0.13881212349E+02  0.33053458860E+02  0.00000000000E+00 0.  1.
         13    1    3    3    0    0 -0.57864376436E+02  0.35110110596E+02  0.32064170694E+02  0.74894038272E+02  0.00000000000E+00 0. -1.
         21    1    1    2  502  501  0.21392123278E+01 -0.44458446323E+02  0.13265674977E+02  0.46444674737E+02  0.00000000000E+00 0. -1.
<scales pt_clust_5="13000.00000" pt_clust_6="13000.00000" pt_clust_7="13000.00000" pt_clust_8="13000.00000" pt_clust_9="44.50988"></scales>
<clustering>
<clus scale="   44.510">  2  9  1 -1</clus>
<clus scale="   89.822">  7  8 -1 -1</clus>
<clus scale="   94.589">  5  6 -1 -1</clus>
<clus scale="   96.147">  1  7  2 -1</clus>
<clus scale="   44.510">  2  5  1 -1</clus>
</clustering>
</event>
<event>
 9    1  0.1612788E-005  0.1439940E+03  0.7546771E-02  0.1208368E+00
         -1   -1    0    0    0  501 -0.00000000000E+00  0.00000000000E+00  0.29975473349E+03  0.29975473349E+03  0.00000000000E+00 0.  1.
          1   -1    0    0  502    0  0.00000000000E+00 -0.00000000000E+00 -0.14581977712E+03  0.14581977712E+03  0.00000000000E+00 0. -1.
         23    2    1    2    0    0  0.68396565985E+02  0.50681421883E+02  0.12890699534E+03  0.17912444899E+03  0.90674461769E+02 0.  0.
         23    2    1    2    0    0 -0.10111111220E+03 -0.62051024155E+02 -0.69675355338E+02  0.16561243212E+03  0.92190215982E+02 0.  0.
        -11    1    3    3    0    0  0.87011606081E+02  0.33818916145E+02  0.12093148105E+03  0.15277160008E+03  0.00000000000E+00 0.  1.
         11    1    3    3    0    0 -0.18615040096E+02  0.16862505737E+02  0.79755142833E+01  0.26352848908E+02  0.00000000000E+00 0. -1.
        -13    1    4    4    0    0 -0.76652848034E+02 -0.65664328891E+02 -0.10497286915E+02  0.10147736808E+03  0.00000000000E+00 0. -1.
         13    1    4    4    0    0 -0.24458264170E+02  0.36133047359E+01 -0.59178068423E+02  0.64135064042E+02  0.00000000000E+00 0.  1.
         21    1    1    2  502  501  0.32714546219E+02  0.11369602272E+02  0.94703316374E+02  0.10083762950E+03  0.00000000000E+00 0. -1.
<scales pt_clust_5="13000.00000" pt_clust_6="13000.00000" pt_clust_7="13000.00000" pt_clust_8="13000.00000" pt_clust_9="34.63393"></scales>
<clustering>
<clus scale="   34.634">  1  9  2 -1</clus>
<clus scale="   90.674">  5  6 -1 -1</clus>
<clus scale="   92.190">  7  8 -1 -1</clus>
<clus scale="  143.028">  1  5  2 -1</clus>
<clus scale="  143.994">  2  5  1 -1</clus>
</clustering>
</event>
<event>
 9    1  0.1612788E-005  0.9823219E+02  0.7546771E-02  0.1285849E+00
         -4   -1    0    0    0  501 -0.00000000000E+00  0.00000000000E+00  0.53126746531E+03  0.53126746531E+03  0.00000000000E+00 0.  1.
          4   -1    0    0  502    0  0.00000000000E+00 -0.00000000000E+00 -0.35804745082E+02  0.35804745082E+02  0.00000000000E+00 0. -1.
         23    2    1    2    0    0 -0.53585055421E+02 -0.17043685714E+02  0.15177863405E+03  0.18694832676E+03  0.93547195246E+02 0.  0.
         23    2    1    2    0    0  0.10075534790E+02 -0.15670701057E+02  0.12778854318E+03  0.15747125065E+03  0.90112128702E+02 0.  0.
        -13    1    3    3    0    0  0.13559501133E+02  0.25726145231E+02  0.48470757250E+02  0.56525294584E+02  0.00000000000E+00 0. -1.
         13    1    3    3    0    0 -0.67144556554E+02 -0.42769830945E+02  0.10330787680E+03  0.13042303218E+03  0.00000000000E+00 0.  1.
        -13    1    4    4    0    0  0.42668625928E+02 -0.29771817995E+02  0.98669681068E+02  0.11154675588E+03  0.00000000000E+00 0.  1.
         13    1    4    4    0    0 -0.32593091138E+02  0.14101116938E+02  0.29118862111E+02  0.45924494766E+02  0.00000000000E+00 0. -1.
         21    1    1    2  502  501  0.43509520631E+02  0.32714386771E+02  0.21589554300E+03  0.22265263299E+03  0.00000000000E+00 0.  1.
<scales pt_clust_5="13000.00000" pt_clust_6="13000.00000" pt_clust_7="13000.00000" pt_clust_8="13000.00000" pt_clust_9="54.43629"></scales>
<clustering>
<clus scale="   54.436">  1  9  2 -1</clus>
<clus scale="   90.112">  7  8 -1 -1</clus>
<clus scale="   93.547">  5  6 -1 -1</clus>
<clus scale="   94.967">  2  7  1 -1</clus>
<clus scale="   94.967">  2  5  1 -1</clus>
</clustering>
</event>
<event>
 9    1  0.1612788E-005  0.1044174E+03  0.7546771E-02  0.1272846E+00
          1   -1    0    0  502    0  0.00000000000E+00  0.00000000000E+00  0.16743979022E+03  0.16743979022E+03  0.00000000000E+00 0. -1.
         -1   -1    0    0    0  501 -0.00000000000E+00 -0.00000000000E+00 -0.33250573099E+03  0.33250573099E+03  0.00000000000E+00 0.  1.
         23    2    1    2    0    0  0.55707233987E+02  0.19534531750E+02 -0.86123207850E+00  0.11348291690E+03  0.96916133118E+02 0.  0.
         23    2    1    2    0    0 -0.19011507281E+01  0.61060850027E+02  0.70794481669E+02  0.13226714875E+03  0.93545166750E+02 0.  0.
        -11    1    4    4    0    0  0.44102861712E+02  0.17658895047E+02  0.39076283525E+02  0.61513046743E+02  0.00000000000E+00 0. -1.
         11    1    4    4    0    0 -0.46004012440E+02  0.43401954980E+02  0.31718198144E+02  0.70754102002E+02  0.00000000000E+00 0.  1.
        -13    1    3    3    0    0  0.44233531923E+02 -0.34864491437E+02 -0.98153384266E+01  0.57170612888E+02  0.00000000000E+00 0. -1.
         13    1    3    3    0    0  0.11473702064E+02  0.54399023187E+02  0.89541063481E+01  0.56312304013E+02  0.00000000000E+00 0.  1.
         21    1    1    2  502  501 -0.53806083259E+02 -0.80595381777E+02 -0.23499919036E+03  0.25419545556E+03  0.00000000000E+00 0. -1.
<scales pt_clust_5="13000.00000" pt_clust_6="13000.00000" pt_clust_7="13000.00000" pt_clust_8="13000.00000" pt_clust_9="96.90568"></scales>
<clustering>
<clus scale="   93.545">  5  6 -1 -1</clus>
<clus scale="   96.906">  2  9  1 -1</clus>
<clus scale="   96.916">  7  8 -1 -1</clus>
<clus scale="  101.296">  1  5  2 -1</clus>
<clus scale="  101.296">  1  5  2 -1</clus>
</clustering>
</event>
<event>
 9    1  0.1612788E-005  0.1434457E+03  0.7546771E-02  0.1209731E+00
          1   -1    0    0  502    0  0.00000000000E+00  0.00000000000E+00  0.98493742025E+02  0.98493742025E+02  0.00000000000E+00 0. -1.
         -1   -1    0    0    0  501 -0.00000000000E+00 -0.00000000000E+00 -0.30653574705E+03  0.30653574705E+03  0.00000000000E+00 0.  1.
         23    2    1    2    0    0 -0.90896428285E+02  0.53721673388E+02 -0.13988538595E+03  0.19557297787E+03  0.86791068672E+02 0.  0.
         23    2    1    2    0    0  0.79649203714E+02 -0.81665456599E+02 -0.13224021771E+02  0.14680712712E+03  0.91456084367E+02 0.  0.
        -11    1    4    4    0    0  0.53447224704E+02 -0.90795448509E+02 -0.35548633364E+02  0.11119408542E+03  0.00000000000E+00 0.  1.
         11    1    4    4    0    0  0.26201979011E+02  0.91299919100E+01  0.22324611593E+02  0.35613041700E+02  0.00000000000E+00 0. -1.
        -11    1    3    3    0    0 -0.89840290986E+02  0.10180530347E+02 -0.75250460871E+02  0.11763312860E+03  0.00000000000E+00 0. -1.
         11    1    3    3    0    0 -0.10561372989E+01  0.43541143041E+02 -0.64634925083E+02  0.77939849267E+02  0.00000000000E+00 0.  1.
         21    1    1    2  502  501  0.11247224571E+02  0.27943783211E+02 -0.54932597297E+02  0.62649384087E+02  0.00000000000E+00 0. -1.
<scales pt_clust_5="13000.00000" pt_clust_6="13000.00000" pt_clust_7="13000.00000" pt_clust_8="13000.00000" pt_clust_9="30.12234"></scales>
<clustering>
<clus scale="   30.122">  2  9  1 -1</clus>
<clus scale="   86.791">  7  8 -1 -1</clus>
<clus scale="   91.456">  5  6 -1 -1</clus>
<clus scale="  140.517">  2  7  1 -1</clus>
<clus scale="  143.446">  1  5  2 -1</clus>
</clustering>
</event>
<event>
 9    1  0.1612788E-005  0.9227428E+02  0.7546771E-02  0.1299378E+00
         -1   -1    0    0    0  501 -0.00000000000E+00  0.00000000000E+00  0.47428394786E+02  0.47428394786E+02  0.00000000000E+00 0.  1.
          1   -1    0    0  502    0  0.00000000000E+00 -0.00000000000E+00 -0.25855765485E+03  0.25855765485E+03  0.00000000000E+00 0. -1.
         23    2    1    2    0    0 -0.74163658727E+01  0.11404810862E+02 -0.35558630041E+02  0.96051411135E+02  0.88183814938E+02 0.  0.
         23    2    1    2    0    0 -0.13248470256E+02 -0.13763454735E+02 -0.15269649917E+03  0.17901822675E+03  0.91467753885E+02 0.  0.
        -11    1    4    4    0    0 -0.50102695224E+02  0.59111015976E+01 -0.69021980704E+02  0.85494181154E+02  0.00000000000E+00 0.  1.
         11    1    4    4    0    0  0.36854224968E+02 -0.19674556333E+02 -0.83674518461E+02  0.93524045596E+02  0.00000000000E+00 0. -1.
        -13    1    3    3    0    0 -0.45378485605E+02  0.13116844084E+02 -0.54124604630E+01  0.47545276136E+02  0.00000000000E+00 0.  1.
         13    1    3    3    0    0  0.37962119732E+02 -0.17120332225E+01 -0.30146169578E+02  0.48506134999E+02  0.00000000000E+00 0. -1.
         21    1    1    2  502  501  0.20664836129E+02  0.23586438733E+01 -0.22874130858E+02  0.30916411752E+02  0.00000000000E+00 0.  1.
<scales pt_clust_5="13000.00000" pt_clust_6="13000.00000" pt_clust_7="13000.00000" pt_clust_8="13000.00000" pt_clust_9="20.79901"></scales>
<clustering>
<clus scale="   20.799">  2  9  1 -1</clus>
<clus scale="   88.184">  7  8 -1 -1</clus>
<clus scale="   89.020">  1  7  2 -1</clus>
<clus scale="   91.468">  5  6 -1 -1</clus>
<clus scale="   20.799">  2  5  1 -1</clus>
</clustering>
</event>
<event>
 9    1  0.1612788E-005  0.2056179E+03  0.7546771E-02  0.1145313E+00
         -1   -1    0    0    0  501 -0.00000000000E+00  0.00000000000E+00  0.48237350491E+03  0.48237350491E+03  0.00000000000E+00 0.  1.
          1   -1    0    0  502    0  0.00000000000E+00 -0.00000000000E+00 -0.16531480364E+03  0.16531480364E+03  0.00000000000E+00 0. -1.
         23    2    1    2    0    0 -0.11179268556E+03 -0.14278850544E+03  0.22477493766E+03  0.30299383367E+03  0.91626026908E+02 0.  0.
         23    2    1    2    0    0  0.94280817428E+02  0.15758728431E+03 -0.40212143185E+02  0.21022948056E+03  0.94110537816E+02 0.  0.
        -11    1    3    3    0    0  0.15257853877E+02 -0.21238243624E+02  0.41186210435E+02  0.48786976000E+02  0.00000000000E+00 0. -1.
         11    1    3    3    0    0 -0.12705053944E+03 -0.12155026182E+03  0.18358872723E+03  0.25420685767E+03  0.00000000000E+00 0.  1.
        -13    1    4    4    0    0  0.76997950073E+02  0.10990745467E+03 -0.70059821955E+02  0.15138266598E+03  0.00000000000E+00 0. -1.
         13    1    4    4    0    0  0.17282867355E+02  0.47679829643E+02  0.29847678770E+02  0.58846814585E+02  0.00000000000E+00 0.  1.
         21    1    1    2  502  501  0.17511868134E+02 -0.14798778866E+02  0.13249590678E+03  0.13446499432E+03  0.00000000000E+00 0. -1.
<scales pt_clust_5="13000.00000" pt_clust_6="13000.00000" pt_clust_7="13000.00000" pt_clust_8="13000.00000" pt_clust_9="22.92748"></scales>
<clustering>
<clus scale="   22.927">  1  9  2 -1</clus>
<clus scale="   91.626">  5  6 -1 -1</clus>
<clus scale="   94.111">  7  8 -1 -1</clus>
<clus scale="  204.493">  1  5  2 -1</clus>
<clus scale="  205.618">  2  5  1 -1</clus>
</clustering>
</event>
<event>
 9    1  0.1612788E-005  0.1270635E+03  0.7546771E-02  0.1234049E+00
          1   -1    0    0  502    0  0.00000000000E+00  0.00000000000E+00  0.96194542580E+03  0.96194542580E+03  0.00000000000E+00 0. -1.
         -1   -1    0    0    0  501 -0.00000000000E+00 -0.00000000000E+00 -0.43657729704E+02  0.43657729704E+02  0.00000000000E+00 0.  1.
         23    2    1    2    0    0  0.16479329664E+02 -0.13408247541E+03  0.43565045223E+03  0.46519570491E+03  0.91466107502E+02 0.  0.
         23    2    1    2    0    0 -0.50409821278E+01  0.52794313505E+02  0.42646193566E+03  0.44093752392E+03  0.98708998523E+02 0.  0.
        -11    1    3    3    0    0 -0.32074533878E+02 -0.52877256385E+02  0.24042202871E+03  0.24824893123E+03  0.00000000000E+00 0. -1.
         11    1    3    3    0    0  0.48553863542E+02 -0.81205219029E+02  0.19522842352E+03  0.21694677368E+03  0.00000000000E+00 0.  1.
        -13    1    4    4    0    0 -0.80455773181E+01 -0.27915627751E+02  0.15566713000E+03  0.15835488294E+03  0.00000000000E+00 0.  1.
         13    1    4    4    0    0  0.30045951903E+01  0.80709941256E+02  0.27079480566E+03  0.28258264098E+03  0.00000000000E+00 0. -1.
         21    1    1    2  502  501 -0.11438347536E+02  0.81288161910E+02  0.56175308203E+02  0.99469926675E+02  0.00000000000E+00 0.  1.
<scales pt_clust_5="13000.00000" pt_clust_6="13000.00000" pt_clust_7="13000.00000" pt_clust_8="13000.00000" pt_clust_9="82.08898"></scales>
<clustering>
<clus scale="   82.089">  2  9  1 -1</clus>
<clus scale="   91.466">  5  6 -1 -1</clus>
<clus scale="   98.709">  7  8 -1 -1</clus>
<clus scale="  121.522">  2  5  1 -1</clus>
<clus scale="  127.063">  1  5  2 -1</clus>
</clustering>
</event>
<event>
 9    1  0.1612788E-005  0.1106237E+03  0.7546771E-02  0.1259492E+00
         -1   -1    0    0    0  501 -0.00000000000E+00  0.00000000000E+00  0.10834075767E+03  0.10834075767E+03  0.00000000000E+00 0.  1.
          1   -1    0    0  502    0  0.00000000000E+00 -0.00000000000E+00 -0.29446353658E+03  0.29446353658E+03  0.00000000000E+00 0. -1.
         23    2    1    2    0    0 -0.10835916110E+02  0.69131926560E+02 -0.10032760252E+03  0.15324436185E+03  0.92312329965E+02 0.  0.
         23    2    1    2    0    0  0.33772886956E+02 -0.46759749182E+02 -0.14561077498E+03  0.18170328360E+03  0.92122220142E+02 0.  0.
        -13    1    4    4    0    0  0.37237496112E+02 -0.18640954587E+01 -0.96970796673E+01  0.38524528844E+02  0.00000000000E+00 0.  1.
         13    1    4    4    0    0 -0.34646091565E+01 -0.44895653724E+02 -0.13591369532E+03  0.14317875476E+03  0.00000000000E+00 0. -1.
        -13    1    3    3    0    0  0.38900566596E+02  0.18502437297E+02 -0.51286200073E+02  0.66976627158E+02  0.00000000000E+00 0. -1.
         13    1    3    3    0    0 -0.49736482706E+02  0.50629489263E+02 -0.49041402446E+02  0.86267734692E+02  0.00000000000E+00 0.  1.
         21    1    1    2  502  501 -0.22936970846E+02 -0.22372177378E+02  0.59815598589E+02  0.67856648803E+02  0.00000000000E+00 0.  1.
<scales pt_clust_5="13000.00000" pt_clust_6="13000.00000" pt_clust_7="13000.00000" pt_clust_8="13000.00000" pt_clust_9="32.04089"></scales>
<clustering>
<clus scale="   32.041">  1  9  2 -1</clus>
<clus scale="   92.122">  5  6 -1 -1</clus>
<clus scale="   92.312">  7  8 -1 -1</clus>
<clus scale="  110.465">  2  5  1 -1</clus>
<clus scale="  110.465">  2  5  1 -1</clus>
</clustering>
</event>
<event>
 9    1  0.1612788E-005  0.9256063E+02  0.7546771E-02  0.1296812E+00
         -1   -1    0    0    0  501 -0.00000000000E+00  0.00000000000E+00  0.18791785637E+03  0.18791785637E+03  0.00000000000E+00 0.  1.
          1   -1    0    0  502    0  0.00000000000E+00 -0.00000000000E+00 -0.35544831315E+03  0.35544831315E+03  0.00000000000E+00 0. -1.
         23    2    1    2    0    0 -0.58218086765E+00  0.40159241504E+02 -0.14926513693E+03  0.17969832650E+03  0.91642260070E+02 0.  0.
         23    2    1    2    0    0  0.73065395903E+01  0.98374814793E+01 -0.17557466001E+03  0.19846760752E+03  0.91721144984E+02 0.  0.
        -11    1    3    3    0    0 -0.32050527776E+02 -0.12298318937E+02 -0.29701629063E+02  0.45394622461E+02  0.00000000000E+00 0.  1.
         11    1    3    3    0    0  0.31468346908E+02  0.52457560441E+02 -0.11956350787E+03  0.13430370404E+03  0.00000000000E+00 0. -1.
        -13    1    4    4    0    0 -0.15511340199E+02  0.46086278862E+02 -0.10828566322E+03  0.11870270272E+03  0.00000000000E+00 0.  1.
         13    1    4    4    0    0  0.22817879789E+02 -0.36248797383E+02 -0.67288996785E+02  0.79764904802E+02  0.00000000000E+00 0. -1.
         21    1    1    2  502  501 -0.67243587227E+01 -0.49996722983E+02  0.15730934015E+03  0.16520023550E+03  0.00000000000E+00 0.  1.
<scales pt_clust_5="13000.00000" pt_clust_6="13000.00000" pt_clust_7="13000.00000" pt_clust_8="13000.00000" pt_clust_9="50.44690"></scales>
<clustering>
<clus scale="   50.447">  1  9  2 -1</clus>
<clus scale="   91.642">  5  6 -1 -1</clus>
<clus scale="   91.721">  7  8 -1 -1</clus>
<clus scale="   92.482">  1  5  2 -1</clus>
<clus scale="   92.561">  2  5  1 -1</clus>
</clustering>
</event>
<event>
 9    1  0.1612788E-005  0.1185033E+03  0.7546771E-02  0.1247857E+00
         -3   -1    0    0    0  501 -0.00000000000E+00  0.00000000000E+00  0.38892830133E+03  0.38892830133E+03  0.00000000000E+00 0.  1.
          3   -1    0    0  502    0  0.00000000000E+00 -0.00000000000E+00 -0.12779219562E+03  0.12779219562E+03  0.00000000000E+00 0. -1.
         23    2    1    2    0    0  0.74034913962E+02 -0.59279482129E+02  0.50637339587E+02  0.14168571103E+03  0.92279331726E+02 0.  0.
         23    2    1    2    0    0 -0.27325722524E+02  0.47827874171E+02 -0.40054135121E+02  0.11990806406E+03  0.98688446265E+02 0.  0.
        -11    1    4    4    0    0 -0.57451527867E+02  0.30392961375E+02 -0.51863740087E+02  0.83152015558E+02  0.00000000000E+00 0.  1.
         11    1    4    4    0    0  0.30125805343E+02  0.17434912796E+02  0.11809604966E+02  0.36756048499E+02  0.00000000000E+00 0. -1.
        -13    1    3    3    0    0  0.27211140506E+02 -0.71470703738E+02  0.74629426914E+01  0.76838812940E+02  0.00000000000E+00 0. -1.
         13    1    3    3    0    0  0.46823773456E+02  0.12191221609E+02  0.43174396896E+02  0.64846898093E+02  0.00000000000E+00 0.  1.
         21    1    1    2  502  501 -0.46709191437E+02  0.11451607958E+02  0.25055290124E+03  0.25512672186E+03  0.00000000000E+00 0.  1.
<scales pt_clust_5="13000.00000" pt_clust_6="13000.00000" pt_clust_7="13000.00000" pt_clust_8="13000.00000" pt_clust_9="48.09249"></scales>
<clustering>
<clus scale="   48.092">  1  9  2 -1</clus>
<clus scale="   92.279">  7  8 -1 -1</clus>
<clus scale="   98.688">  5  6 -1 -1</clus>
<clus scale="  113.221">  1  7  2 -1</clus>
<clus scale="  118.503">  2  5  1 -1</clus>
</clustering>
</event>
<event>
 9    1  0.1612788E-005  0.1071321E+03  0.7546771E-02  0.1266413E+00
          1   -1    0    0  502    0  0.00000000000E+00  0.00000000000E+00  0.39612911675E+03  0.39612911675E+03  0.00000000000E+00 0. -1.
         -1   -1    0    0    0  501 -0.00000000000E+00 -0.00000000000E+00 -0.10599388589E+03  0.10599388589E+03  0.00000000000E+00 0.  1.
         23    2    1    2    0    0 -0.31137014033E+02 -0.19723889611E+02  0.85317908571E+02  0.12947583539E+03  0.90145998045E+02 0.  0.
         23    2    1    2    0    0  0.65161923828E+01  0.76241365367E+02  0.26291074490E+03  0.28794028632E+03  0.89063697147E+02 0.  0.
        -13    1    4    4    0    0 -0.34981591550E+02  0.55868824646E+01  0.75333281621E+02  0.83246791667E+02  0.00000000000E+00 0. -1.
         13    1    4    4    0    0  0.41497783933E+02  0.70654482903E+02  0.18757746328E+03  0.20469349466E+03  0.00000000000E+00 0.  1.
        -13    1    3    3    0    0 -0.42399873281E+01 -0.30562848515E+02 -0.79005562513E+01  0.31850965306E+02  0.00000000000E+00 0.  1.
         13    1    3    3    0    0 -0.26897026705E+02  0.10838958904E+02  0.93218464822E+02  0.97624870087E+02  0.00000000000E+00 0. -1.
         21    1    1    2  502  501  0.24620821650E+02 -0.56517475756E+02 -0.58093422615E+02  0.84706880923E+02  0.00000000000E+00 0.  1.
<scales pt_clust_5="13000.00000" pt_clust_6="13000.00000" pt_clust_7="13000.00000" pt_clust_8="13000.00000" pt_clust_9="61.64746"></scales>
<clustering>
<clus scale="   61.647">  2  9  1 -1</clus>
<clus scale="   89.064">  5  6 -1 -1</clus>
<clus scale="   90.146">  7  8 -1 -1</clus>
<clus scale="  106.223">  1  5  2 -1</clus>
<clus scale="  106.223">  1  5  2 -1</clus>
</clustering>
</event>
<event>
 9    1  0.1612788E-005  0.1153606E+03  0.7546771E-02  0.1250992E+00
         -3   -1    0    0    0  501 -0.00000000000E+00  0.00000000000E+00  0.37142680433E+03  0.37142680433E+03  0.00000000000E+00 0.  1.
          3   -1    0    0  502    0  0.00000000000E+00 -0.00000000000E+00 -0.87020901386E+02  0.87020901386E+02  0.00000000000E+00 0. -1.
         23    2    1    2    0    0 -0.19977881919E+02  0.90087276934E+02  0.21247563197E+03  0.24881053622E+03  0.90807243762E+02 0.  0.
         23    2    1    2    0    0  0.17678014703E+02 -0.64263331777E+02 -0.19670942719E+02  0.11443765331E+03  0.90921628302E+02 0.  0.
        -11    1    4    4    0    0 -0.20192722134E+02 -0.35943534123E+01  0.23269447761E+02  0.31018262406E+02  0.00000000000E+00 0.  1.
         11    1    4    4    0    0  0.37870736837E+02 -0.60668978364E+02 -0.42940390479E+02  0.83419390905E+02  0.00000000000E+00 0. -1.
        -13    1    3    3    0    0 -0.41106840413E+02  0.58239665205E+02  0.19335122074E+03  0.20607359242E+03  0.00000000000E+00 0.  1.
         13    1    3    3    0    0  0.21128958494E+02  0.31847611729E+02  0.19124411227E+02  0.42736943792E+02  0.00000000000E+00 0. -1.
         21    1    1    2  502  501  0.22998672156E+01 -0.25823945157E+02  0.91601213695E+02  0.95199516191E+02  0.00000000000E+00 0.  1.
<scales pt_clust_5="13000.00000" pt_clust_6="13000.00000" pt_clust_7="13000.00000" pt_clust_8="13000.00000" pt_clust_9="25.92616"></scales>
<clustering>
<clus scale="   25.926">  1  9  2 -1</clus>
<clus scale="   90.807">  7  8 -1 -1</clus>
<clus scale="   90.922">  5  6 -1 -1</clus>
<clus scale="  115.270">  1  7  2 -1</clus>
<clus scale="  115.361">  2  5  1 -1</clus>
</clustering>
</event>
<event>
 9    1  0.1612788E-005  0.1600404E+03  0.7546771E-02  0.1191506E+00
         -2   -1    0    0    0  501 -0.00000000000E+00  0.00000000000E+00  0.16729835258E+03  0.16729835258E+03  0.00000000000E+00 0.  1.
          2   -1    0    0  502    0  0.00000000000E+00 -0.00000000000E+00 -0.78202411289E+03  0.78202411289E+03  0.00000000000E+00 0. -1.
         23    2    1    2    0    0 -0.79622755019E+02  0.45703101442E+02  0.68822159030E+02  0.14709632072E+03  0.92044996594E+02 0.  0.
         23    2    1    2    0    0  0.11407975914E+02 -0.13683817321E+03 -0.66964459318E+03  0.68754327823E+03  0.73736359485E+02 0.  0.
        -11    1    3    3    0    0 -0.24109490577E+02  0.15610658633E+01  0.72156497397E+02  0.76093788046E+02  0.00000000000E+00 0.  1.
         11    1    3    3    0    0 -0.55513264442E+02  0.44142035578E+02 -0.33343383675E+01  0.71002532675E+02  0.00000000000E+00 0. -1.
        -13    1    4    4    0    0  0.32292328325E+02 -0.12989620617E+03 -0.57577535446E+03  0.59112864729E+03  0.00000000000E+00 0. -1.
         13    1    4    4    0    0 -0.20884352411E+02 -0.69419670351E+01 -0.93869238721E+02  0.96414630944E+02  0.00000000000E+00 0.  1.
         21    1    1    2  502  501  0.68214779105E+02  0.91135071765E+02 -0.13903326157E+02  0.11468286652E+03  0.00000000000E+00 0.  1.
<scales pt_clust_5="13000.00000" pt_clust_6="13000.00000" pt_clust_7="13000.00000" pt_clust_8="13000.00000" pt_clust_9="113.83698"></scales>
<clustering>
<clus scale="   73.736">  7  8 -1 -1</clus>
<clus scale="   92.045">  5  6 -1 -1</clus>
<clus scale="  113.837">  1  9  2 -1</clus>
<clus scale="  150.259">  2  7  1 -1</clus>
<clus scale="  150.259">  2  5  1 -1</clus>
</clustering>
</event>
<event>
 9    1  0.1612788E-005  0.9734229E+02  0.7546771E-02  0.1286188E+00
         -1   -1    0    0    0  501 -0.00000000000E+00  0.00000000000E+00  0.20819491862E+03  0.20819491862E+03  0.00000000000E+00 0.  1.
          1   -1    0    0  502    0  0.00000000000E+00 -0.00000000000E+00 -0.10194481973E+03  0.10194481973E+03  0.00000000000E+00 0. -1.
         23    2    1    2    0    0 -0.43432697822E+02  0.14103718865E+02  0.12655238638E+03  0.16254994316E+03  0.91223151652E+02 0.  0.
         23    2    1    2    0    0  0.29711524166E+02  0.16385556217E+02 -0.44134243193E+02  0.10653095188E+03  0.90828140828E+02 0.  0.
        -11    1    3    3    0    0 -0.41236355381E+02 -0.19907853094E+02  0.18736699464E+02  0.49475484098E+02  0.00000000000E+00 0.  1.
         11    1    3    3    0    0 -0.21963424414E+01  0.34011571958E+02  0.10781568692E+03  0.11307445907E+03  0.00000000000E+00 0. -1.
        -13    1    4    4    0    0 -0.21104243822E+02  0.23340633045E+02  0.89515694607E+01  0.32715513966E+02  0.00000000000E+00 0.  1.
         13    1    4    4    0    0  0.50815767988E+02 -0.69550768276E+01 -0.53085812654E+02  0.73815437918E+02  0.00000000000E+00 0. -1.
         21    1    1    2  502  501  0.13721173657E+02 -0.30489275082E+02  0.23831955699E+02  0.41058843310E+02  0.00000000000E+00 0.  1.
<scales pt_clust_5="13000.00000" pt_clust_6="13000.00000" pt_clust_7="13000.00000" pt_clust_8="13000.00000" pt_clust_9="33.43451"></scales>
<clustering>
<clus scale="   33.435">  1  9  2 -1</clus>
<clus scale="   90.828">  7  8 -1 -1</clus>
<clus scale="   91.223">  5  6 -1 -1</clus>
<clus scale="   96.972">  2  7  1 -1</clus>
<clus scale="   96.972">  2  5  1 -1</clus>
</clustering>
</event>
<event>
 9    1  0.1612788E-005  0.9611452E+02  0.7546771E-02  0.1292059E+00
         -3   -1    0    0    0  501 -0.00000000000E+00  0.00000000000E+00  0.18477825226E+03  0.18477825226E+03  0.00000000000E+00 0.  1.
          3   -1    0    0  502    0  0.00000000000E+00 -0.00000000000E+00 -0.21294454396E+03  0.21294454396E+03  0.00000000000E+00 0. -1.
         23    2    1    2    0    0 -0.51613964104E+02 -0.16052736672E+02  0.95787863613E+02  0.14470587876E+03  0.94036082903E+02 0.  0.
         23    2    1    2    0    0  0.15181163692E+02 -0.99883799939E+01 -0.16779470855E+03  0.19034728518E+03  0.88015846814E+02 0.  0.
        -11    1    3    3    0    0 -0.19810848804E+02 -0.53357274379E+02  0.35813942788E+02  0.67246612982E+02  0.00000000000E+00 0. -1.
         11    1    3    3    0    0 -0.31803115299E+02  0.37304537706E+02  0.59973920825E+02  0.77459265781E+02  0.00000000000E+00 0.  1.
        -13    1    4    4    0    0  0.26539580421E+02  0.82506614449E+01 -0.16651943403E+03  0.16882282030E+03  0.00000000000E+00 0. -1.
         13    1    4    4    0    0 -0.11358416729E+02 -0.18239041439E+02 -0.12752745191E+01  0.21524464878E+02  0.00000000000E+00 0.  1.
         21    1    1    2  502  501  0.36432800411E+02  0.26041116666E+02  0.43840553238E+02  0.62669632289E+02  0.00000000000E+00 0. -1.
<scales pt_clust_5="13000.00000" pt_clust_6="13000.00000" pt_clust_7="13000.00000" pt_clust_8="13000.00000" pt_clust_9="44.78268"></scales>
<clustering>
<clus scale="   44.783">  1  9  2 -1</clus>
<clus scale="   88.016">  7  8 -1 -1</clus>
<clus scale="   90.233">  2  7  1 -1</clus>
<clus scale="   94.036">  5  6 -1 -1</clus>
<clus scale="   90.233">  2  5  1 -1</clus>
</clustering>
</event>
<event>
 9    1  0.1612788E-005  0.1078012E+03  0.7546771E-02  0.1264940E+00
         -1   -1    0    0    0  501 -0.00000000000E+00  0.00000000000E+00  0.94745907125E+02  0.94745907125E+02  0.00000000000E+00 0.  1.
          1   -1    0    0  502    0  0.00000000000E+00 -0.00000000000E+00 -0.38265052190E+03  0.38265052190E+03  0.00000000000E+00 0. -1.
         23    2    1    2    0    0  0.12046825151E+02  0.31533922082E+00 -0.91190577342E+01  0.92207459796E+02  0.90960612316E+02 0.  0.
         23    2    1    2    0    0 -0.67654331180E+02  0.81471702099E+01 -0.30312489950E+03  0.32390102275E+03  0.91562453718E+02 0.  0.
        -11    1    3    3    0    0 -0.23782926909E+02  0.33711100599E+02  0.41432407519E+01  0.41463626950E+02  0.00000000000E+00 0.  1.
         11    1    3    3    0    0  0.35829752060E+02 -0.33395761378E+02 -0.13262298486E+02  0.50743832846E+02  0.00000000000E+00 0. -1.
        -11    1    4    4    0    0  0.13228543363E+02  0.23862918180E+02 -0.41993944807E+02  0.50079183540E+02  0.00000000000E+00 0.  1.
         11    1    4    4    0    0 -0.80882874544E+02 -0.15715747970E+02 -0.26113095470E+03  0.27382183921E+03  0.00000000000E+00 0. -1.
         21    1    1    2  502  501  0.55607506029E+02 -0.84625094307E+01  0.24339342458E+02  0.61287946481E+02  0.00000000000E+00 0.  1.
<scales pt_clust_5="13000.00000" pt_clust_6="13000.00000" pt_clust_7="13000.00000" pt_clust_8="13000.00000" pt_clust_9="56.24774"></scales>
<clustering>
<clus scale="   56.248">  1  9  2 -1</clus>
<clus scale="   90.961">  5  6 -1 -1</clus>
<clus scale="   91.562">  7  8 -1 -1</clus>
<clus scale="  107.291">  1  5  2 -1</clus>
<clus scale="  107.801">  2  5  1 -1</clus>
</clustering>
</event>
<event>
 9    1  0.1612788E-005  0.1015424E+03  0.7546771E-02  0.1283455E+00
          1   -1    0    0  502    0  0.00000000000E+00  0.00000000000E+00  0.11689846954E+03  0.11689846954E+03  0.00000000000E+00 0. -1.
         -1   -1    0    0    0  501 -0.00000000000E+00 -0.00000000000E+00 -0.54677370432E+03  0.54677370432E+03  0.00000000000E+00 0.  1.
         23    2    1    2    0    0 -0.13295385378E+02 -0.52755663943E+01 -0.12586419827E+03  0.14888207770E+03  0.78227091097E+02 0.  0.
         23    2    1    2    0    0  0.24448233141E+02 -0.46717460857E+02  0.76695959860E+02  0.13038734125E+03  0.91314573027E+02 0.  0.
        -11    1    3    3    0    0 -0.37698589228E+02 -0.18670317475E+02 -0.37917465955E+02  0.56634782677E+02  0.00000000000E+00 0.  1.
         11    1    3    3    0    0  0.24403203850E+02  0.13394751080E+02 -0.87946732313E+02  0.92247295024E+02  0.00000000000E+00 0. -1.
        -13    1    4    4    0    0  0.24975121642E+02 -0.73353341098E+02  0.47617363804E+02  0.90949891076E+02  0.00000000000E+00 0. -1.
         13    1    4    4    0    0 -0.52688850105E+00  0.26635880241E+02  0.29078596056E+02  0.39437450175E+02  0.00000000000E+00 0.  1.
         21    1    1    2  502  501 -0.11152847763E+02  0.51993027251E+02 -0.38070699637E+03  0.38440275491E+03  0.00000000000E+00 0.  1.
<scales pt_clust_5="13000.00000" pt_clust_6="13000.00000" pt_clust_7="13000.00000" pt_clust_8="13000.00000" pt_clust_9="53.17575"></scales>
<clustering>
<clus scale="   53.176">  2  9  1 -1</clus>
<clus scale="   78.227">  5  6 -1 -1</clus>
<clus scale="   89.955">  2  5  1 -1</clus>
<clus scale="   91.315">  7  8 -1 -1</clus>
<clus scale="  101.542">  1  5  2 -1</clus>
</clustering>
</event>
<event>
 9    1  0.1612788E-005  0.1022194E+03  0.7546771E-02  0.1280664E+00
         -1   -1    0    0    0  501 -0.00000000000E+00  0.00000000000E+00  0.30419684105E+03  0.30419684105E+03  0.00000000000E+00 0.  1.
          1   -1    0    0  502    0  0.00000000000E+00 -0.00000000000E+00 -0.50168319876E+02  0.50168319876E+02  0.00000000000E+00 0. -1.
         23    2    1    2    0    0  0.13969601307E+02 -0.24432525288E+02  0.88310390946E+02  0.13184952889E+03  0.93773530732E+02 0.  0.
         23    2    1    2    0    0 -0.28465103079E+02  0.42022705813E+02  0.60819685737E+02  0.11516938069E+03  0.83598936464E+02 0.  0.
        -11    1    3    3    0    0  0.29826954359E+02  0.22830009480E-01  0.96962110050E+02  0.10144603744E+03  0.00000000000E+00 0.  1.
         11    1    3    3    0    0 -0.15857353051E+02 -0.24455355298E+02 -0.86517191037E+01  0.30403491444E+02  0.00000000000E+00 0. -1.
        -13    1    4    4    0    0  0.24944922006E+02  0.75854239384E+00  0.34823176880E+02  0.42842480886E+02  0.00000000000E+00 0.  1.
         13    1    4    4    0    0 -0.53410025085E+02  0.41264163419E+02  0.25996508857E+02  0.72326899802E+02  0.00000000000E+00 0. -1.
         21    1    1    2  502  501  0.14495501772E+02 -0.17590180524E+02  0.10489844449E+03  0.10734625135E+03  0.00000000000E+00 0.  1.
<scales pt_clust_5="13000.00000" pt_clust_6="13000.00000" pt_clust_7="13000.00000" pt_clust_8="13000.00000" pt_clust_9="22.79329"></scales>
<clustering>
<clus scale="   22.793">  1  9  2 -1</clus>
<clus scale="   83.599">  7  8 -1 -1</clus>
<clus scale="   92.974">  2  7  1 -1</clus>
<clus scale="   93.774">  5  6 -1 -1</clus>
<clus scale="   92.974">  2  5  1 -1</clus>
</clustering>
</event>
<event>
 9    1  0.1612788E-005  0.1101811E+03  0.7546771E-02  0.1260612E+00
         -1   -1    0    0    0  501 -0.00000000000E+00  0.00000000000E+00  0.18443863493E+03  0.18443863493E+03  0.00000000000E+00 0.  1.
          1   -1    0    0  502    0  0.00000000000E+00 -0.00000000000E+00 -0.95300270546E+02  0.95300270546E+02  0.00000000000E+00 0. -1.
         23    2    1    2    0    0 -0.14082580375E+02  0.70832797141E+02  0.79244989755E+02  0.13931232796E+03  0.88952527227E+02 0.  0.
         23    2    1    2    0    0 -0.71653100095E+01 -0.60382223464E+02 -0.10627268924E+02  0.10909314253E+03  0.89950099080E+02 0.  0.
        -13    1    4    4    0    0 -0.42355065913E+02 -0.15611527972E+02  0.13693649802E+02  0.47171892680E+02  0.00000000000E+00 0.  1.
         13    1    4    4    0    0  0.35189755904E+02 -0.44770695491E+02 -0.24320918726E+02  0.61921249850E+02  0.00000000000E+00 0. -1.
        -13    1    3    3    0    0  0.91616444751E+01  0.84318781629E+02  0.45742528494E+02  0.96363746180E+02  0.00000000000E+00 0.  1.
         13    1    3    3    0    0 -0.23244224850E+02 -0.13485984488E+02  0.33502461261E+02  0.42948581781E+02  0.00000000000E+00 0. -1.
         21    1    1    2  502  501  0.21247890384E+02 -0.10450573677E+02  0.20520643551E+02  0.31333434981E+02  0.00000000000E+00 0. -1.
<scales pt_clust_5="13000.00000" pt_clust_6="13000.00000" pt_clust_7="13000.00000" pt_clust_8="13000.00000" pt_clust_9="23.67884"></scales>
<clustering>
<clus scale="   23.679">  1  9  2 -1</clus>
<clus scale="   88.953">  7  8 -1 -1</clus>
<clus scale="   89.950">  5  6 -1 -1</clus>
<clus scale="  109.368">  1  7  2 -1</clus>
<clus scale="  110.181">  2  5  1 -1</clus>
</clustering>
</event>
<event>
 9    1  0.1612788E-005  0.1054865E+03  0.7546771E-02  0.1274845E+00
         -1   -1    0    0    0  501 -0.00000000000E+00  0.00000000000E+00  0.54109094950E+02  0.54109094950E+02  0.00000000000E+00 0.  1.
          1   -1    0    0  502    0  0.00000000000E+00 -0.00000000000E+00 -0.39949104645E+03  0.39949104645E+03  0.00000000000E+00 0. -1.
         23    2    1    2    0    0  0.20308162636E+02 -0.29009419705E+02 -0.61716339512E+02  0.11595332501E+03  0.91554896735E+02 0.  0.
         23    2    1    2    0    0  0.22835383107E+02  0.17754950204E+02 -0.27101142539E+03  0.29129860109E+03  0.10281531661E+03 0.  0.
        -13    1    3    3    0    0 -0.24153771250E+01 -0.43345544052E+02  0.53158101048E+01  0.43737033197E+02  0.00000000000E+00 0.  1.
         13    1    3    3    0    0  0.22723539760E+02  0.14336124347E+02 -0.67032149617E+02  0.72216291810E+02  0.00000000000E+00 0. -1.
        -13    1    4    4    0    0 -0.88961197156E+01 -0.33382854787E+02 -0.41351783884E+02  0.53884375937E+02  0.00000000000E+00 0.  1.
         13    1    4    4    0    0  0.31731502823E+02  0.51137804991E+02 -0.22965964150E+03  0.23741422515E+03  0.00000000000E+00 0. -1.
         21    1    1    2  502  501 -0.43143545743E+02  0.11254469501E+02 -0.12654186601E+02  0.46348215301E+02  0.00000000000E+00 0.  1.
<scales pt_clust_5="13000.00000" pt_clust_6="13000.00000" pt_clust_7="13000.00000" pt_clust_8="13000.00000" pt_clust_9="44.58731"></scales>
<clustering>
<clus scale="   44.587">  1  9  2 -1</clus>
<clus scale="   91.555">  5  6 -1 -1</clus>
<clus scale="   94.545">  1  5  2 -1</clus>
<clus scale="  102.815">  7  8 -1 -1</clus>
<clus scale="  105.487">  2  5  1 -1</clus>
</clustering>
</event>
<event>
 9    1  0.1612788E-005  0.1107244E+03  0.7546771E-02  0.1260370E+00
         -1   -1    0    0    0  501 -0.00000000000E+00  0.00000000000E+00  0.10763605564E+03  0.10763605564E+03  0.00000000000E+00 0.  1.
          1   -1    0    0  502    0  0.00000000000E+00 -0.00000000000E+00 -0.15935193556E+03  0.15935193556E+03  0.00000000000E+00 0. -1.
         23    2    1    2    0    0  0.39243652794E+02 -0.16267762064E+02 -0.15163113107E+02  0.10458886955E+03  0.94362107161E+02 0.  0.
         23    2    1    2    0    0 -0.54117065324E+02  0.50189379571E+02 -0.42289329142E+02  0.12491842420E+03  0.91480023849E+02 0.  0.
        -11    1    4    4    0    0 -0.39246941217E+02 -0.12028741543E+02  0.10054051676E+02  0.42262240512E+02  0.00000000000E+00 0.  1.
         11    1    4    4    0    0 -0.14870124107E+02  0.62218121114E+02 -0.52343380818E+02  0.82656183685E+02  0.00000000000E+00 0. -1.
        -13    1    3    3    0    0  0.47280437939E+02  0.96641046645E+01 -0.43769483498E+02  0.65150613323E+02  0.00000000000E+00 0. -1.
         13    1    3    3    0    0 -0.80367851445E+01 -0.25931866728E+02  0.28606370391E+02  0.39438256229E+02  0.00000000000E+00 0.  1.
         21    1    1    2  502  501  0.14873412530E+02 -0.33921617507E+02  0.57365623267E+01  0.37480697458E+02  0.00000000000E+00 0. -1.
<scales pt_clust_5="13000.00000" pt_clust_6="13000.00000" pt_clust_7="13000.00000" pt_clust_8="13000.00000" pt_clust_9="37.03909"></scales>
<clustering>
<clus scale="   37.039">  1  9  2 -1</clus>
<clus scale="   91.480">  5  6 -1 -1</clus>
<clus scale="   94.362">  7  8 -1 -1</clus>
<clus scale="  108.279">  2  5  1 -1</clus>
<clus scale="  108.279">  2  5  1 -1</clus>
</clustering>
</event>
<event>
 9    1  0.1612788E-005  0.1086810E+03  0.7546771E-02  0.1264890E+00
         -2   -1    0    0    0  501 -0.00000000000E+00  0.00000000000E+00  0.13273553232E+03  0.13273553232E+03  0.00000000000E+00 0. -1.
          2   -1    0    0  502    0  0.00000000000E+00 -0.00000000000E+00 -0.15283197087E+03  0.15283197087E+03  0.00000000000E+00 0.  1.
         23    2    1    2    0    0 -0.28528674453E+02  0.30904477834E+02  0.35091048782E+02  0.10997402794E+03  0.95362115641E+02 0.  0.
         23    2    1    2    0    0  0.28349770123E+01 -0.59046856964E+02 -0.75755376071E+02  0.13228992299E+03  0.90924024927E+02 0.  0.
        -11    1    3    3    0    0  0.55820076340E+01 -0.29976996832E+02 -0.27015778895E+01  0.30611724411E+02  0.00000000000E+00 0.  1.
         11    1    3    3    0    0 -0.34110682087E+02  0.60881474667E+02  0.37792626671E+02  0.79362303525E+02  0.00000000000E+00 0. -1.
        -11    1    4    4    0    0 -0.41979358214E+02 -0.31077770366E+02 -0.21257651096E+02  0.56391329627E+02  0.00000000000E+00 0.  1.
         11    1    4    4    0    0  0.44814335227E+02 -0.27969086598E+02 -0.54497724975E+02  0.75898593362E+02  0.00000000000E+00 0. -1.
         21    1    1    2  502  501  0.25693697441E+02  0.28142379130E+02  0.20567888736E+02  0.43303552260E+02  0.00000000000E+00 0. -1.
<scales pt_clust_5="13000.00000" pt_clust_6="13000.00000" pt_clust_7="13000.00000" pt_clust_8="13000.00000" pt_clust_9="38.10721"></scales>
<clustering>
<clus scale="   38.107">  1  9  2 -1</clus>
<clus scale="   90.924">  7  8 -1 -1</clus>
<clus scale="   95.362">  5  6 -1 -1</clus>
<clus scale="  104.808">  2  7  1 -1</clus>
<clus scale="  104.808">  2  5  1 -1</clus>
</clustering>
</event>
<event>
 9    1  0.1612788E-005  0.1061733E+03  0.7546771E-02  0.1269968E+00
         -1   -1    0    0    0  501 -0.00000000000E+00  0.00000000000E+00  0.11245894728E+03  0.11245894728E+03  0.00000000000E+00 0.  1.
          1   -1    0    0  502    0  0.00000000000E+00 -0.00000000000E+00 -0.35111601540E+03  0.35111601540E+03  0.00000000000E+00 0. -1.
         23    2    1    2    0    0 -0.46414068506E+02 -0.57342874153E+02 -0.16637727387E+03  0.20537663942E+03  0.95161419644E+02 0.  0.
         23    2    1    2    0    0  0.34015859842E+02  0.13636976966E+01 -0.13963268242E+03  0.16974610272E+03  0.90318962563E+02 0.  0.
        -11    1    4    4    0    0 -0.28415494051E+02  0.49826169496E+01 -0.72346890881E+02  0.77886708711E+02  0.00000000000E+00 0. -1.
         11    1    4    4    0    0  0.62431353893E+02 -0.36189192530E+01 -0.67285791536E+02  0.91859394011E+02  0.00000000000E+00 0.  1.
        -13    1    3    3    0    0 -0.64849323437E+02 -0.41895557303E+02 -0.16393014194E+03  0.18120089379E+03  0.00000000000E+00 0. -1.
         13    1    3    3    0    0  0.18435254931E+02 -0.15447316850E+02 -0.24471319244E+01  0.24175745633E+02  0.00000000000E+00 0.  1.
         21    1    1    2  502  501  0.12398208663E+02  0.55979176456E+02  0.67352888156E+02  0.88452220536E+02  0.00000000000E+00 0. -1.
<scales pt_clust_5="13000.00000" pt_clust_6="13000.00000" pt_clust_7="13000.00000" pt_clust_8="13000.00000" pt_clust_9="57.33571"></scales>
<clustering>
<clus scale="   57.336">  1  9  2 -1</clus>
<clus scale="   90.319">  5  6 -1 -1</clus>
<clus scale="   95.161">  7  8 -1 -1</clus>
<clus scale="  101.856">  2  5  1 -1</clus>
<clus scale="  101.856">  2  5  1 -1</clus>
</clustering>
</event>
<event>
 9    1  0.1612788E-005  0.1006720E+03  0.7546771E-02  0.1280386E+00
         -3   -1    0    0    0  501 -0.00000000000E+00  0.00000000000E+00  0.25050236072E+03  0.25050236072E+03  0.00000000000E+00 0.  1.
          3   -1    0    0  502    0  0.00000000000E+00 -0.00000000000E+00 -0.54615087342E+02  0.54615087342E+02  0.00000000000E+00 0. -1.
         23    2    1    2    0    0  0.39644082789E+02 -0.44273374977E+02  0.82738093261E+02  0.13654489245E+03  0.90923762273E+02 0.  0.
         23    2    1    2    0    0 -0.24040740467E+02  0.15707190962E+02  0.81626333639E+02  0.12326051515E+03  0.87781679188E+02 0.  0.
        -11    1    4    4    0    0 -0.27759633356E+01  0.47232145654E+02  0.68052925151E+02  0.82884149131E+02  0.00000000000E+00 0.  1.
         11    1    4    4    0    0 -0.21264777131E+02 -0.31524954692E+02  0.13573408489E+02  0.40376366018E+02  0.00000000000E+00 0. -1.
        -11    1    3    3    0    0  0.59065594453E+02 -0.56461943855E+02  0.78338496733E+02  0.11319724211E+03  0.00000000000E+00 0. -1.
         11    1    3    3    0    0 -0.19421511664E+02  0.12188568878E+02  0.43995965281E+01  0.23347650336E+02  0.00000000000E+00 0.  1.
         21    1    1    2  502  501 -0.15603342322E+02  0.28566184015E+02  0.31522846473E+02  0.45312040459E+02  0.00000000000E+00 0. -1.
<scales pt_clust_5="13000.00000" pt_clust_6="13000.00000" pt_clust_7="13000.00000" pt_clust_8="13000.00000" pt_clust_9="32.54983"></scales>
<clustering>
<clus scale="   32.550">  1  9  2 -1</clus>
<clus scale="   87.782">  5  6 -1 -1</clus>
<clus scale="   90.924">  7  8 -1 -1</clus>
<clus scale="   97.843">  2  5  1 -1</clus>
<clus scale="   97.843">  2  5  1 -1</clus>
</clustering>
</event>
<event>
 9    1  0.1612788E-005  0.9292742E+02  0.7546771E-02  0.1312786E+00
         -2   -1    0    0    0  501 -0.00000000000E+00  0.00000000000E+00  0.94985298534E+02  0.94985298534E+02  0.00000000000E+00 0.  1.
          2   -1    0    0  502    0  0.00000000000E+00 -0.00000000000E+00 -0.15997269584E+03  0.15997269584E+03  0.00000000000E+00 0. -1.
         23    2    1    2    0    0 -0.81613903218E+01  0.21383723782E+02  0.42511262954E+02  0.10419094651E+03  0.92329160737E+02 0.  0.
         23    2    1    2    0    0 -0.98231784709E+01 -0.52849483612E+01 -0.10659276150E+03  0.12661262928E+03  0.67411538882E+02 0.  0.
        -11    1    4    4    0    0 -0.36997861312E+02  0.83376116043E+01 -0.58444156076E+02  0.69671205590E+02  0.00000000000E+00 0. -1.
         11    1    4    4    0    0  0.27174682841E+02 -0.13622559965E+02 -0.48148605421E+02  0.56941423687E+02  0.00000000000E+00 0.  1.
        -13    1    3    3    0    0  0.33073305770E+02  0.10271592172E+02  0.50011367068E+02  0.60831620037E+02  0.00000000000E+00 0.  1.
         13    1    3    3    0    0 -0.41234696092E+02  0.11112131610E+02 -0.75001041138E+01  0.43359326476E+02  0.00000000000E+00 0. -1.
         21    1    1    2  502  501  0.17984568793E+02 -0.16098775420E+02 -0.90589876672E+00  0.24154418587E+02  0.00000000000E+00 0.  1.
<scales pt_clust_5="13000.00000" pt_clust_6="13000.00000" pt_clust_7="13000.00000" pt_clust_8="13000.00000" pt_clust_9="24.13742"></scales>
<clustering>
<clus scale="   24.137">  1  9  2 -1</clus>
<clus scale="   67.412">  5  6 -1 -1</clus>
<clus scale="   68.229">  2  5  1 -1</clus>
<clus scale="   92.329">  7  8 -1 -1</clus>
<clus scale="   68.229">  2  5  1 -1</clus>
</clustering>
</event>
<event>
 9    1  0.1612788E-005  0.1811901E+03  0.7546771E-02  0.1167468E+00
         -1   -1    0    0    0  501 -0.00000000000E+00  0.00000000000E+00  0.69096662672E+02  0.69096662672E+02  0.00000000000E+00 0.  1.
          1   -1    0    0  502    0  0.00000000000E+00 -0.00000000000E+00 -0.65247034850E+03  0.65247034850E+03  0.00000000000E+00 0. -1.
         23    2    1    2    0    0 -0.14189085205E+03 -0.62446663450E+02 -0.16807266825E+03  0.24764344837E+03  0.95111808079E+02 0.  0.
         23    2    1    2    0    0  0.12136498516E+03  0.97352565246E+02 -0.38057191895E+03  0.42057711509E+03  0.88561519071E+02 0.  0.
        -11    1    4    4    0    0  0.42812652628E+02 -0.38470116549E+01 -0.49361757203E+02  0.65454608683E+02  0.00000000000E+00 0.  1.
         11    1    4    4    0    0  0.78552332536E+02  0.10119957690E+03 -0.33121016175E+03  0.35512250641E+03  0.00000000000E+00 0. -1.
        -11    1    3    3    0    0 -0.15063669067E+02  0.22517000504E+02 -0.40361712041E+02  0.48610669984E+02  0.00000000000E+00 0. -1.
         11    1    3    3    0    0 -0.12682718299E+03 -0.84963663953E+02 -0.12771095621E+03  0.19903277838E+03  0.00000000000E+00 0.  1.
         21    1    1    2  502  501  0.20525866889E+02 -0.34905901796E+02 -0.34729098625E+02  0.53346447708E+02  0.00000000000E+00 0.  1.
<scales pt_clust_5="13000.00000" pt_clust_6="13000.00000" pt_clust_7="13000.00000" pt_clust_8="13000.00000" pt_clust_9="40.49362"></scales>
<clustering>
<clus scale="   40.494">  1  9  2 -1</clus>
<clus scale="   88.562">  5  6 -1 -1</clus>
<clus scale="   95.112">  7  8 -1 -1</clus>
<clus scale="  177.839">  2  5  1 -1</clus>
<clus scale="  177.839">  2  5  1 -1</clus>
</clustering>
</event>
<event>
 9    1  0.1612788E-005  0.9937216E+02  0.7546771E-02  0.1284237E+00
         -1   -1    0    0    0  501 -0.00000000000E+00  0.00000000000E+00  0.32117893711E+02  0.32117893711E+02  0.00000000000E+00 0.  1.
          1   -1    0    0  502    0  0.00000000000E+00 -0.00000000000E+00 -0.58758094689E+03  0.58758094689E+03  0.00000000000E+00 0. -1.
         23    2    1    2    0    0  0.20969339231E+02  0.35298069088E+02 -0.24392397275E+03  0.26590390439E+03  0.97572101645E+02 0.  0.
         23    2    1    2    0    0  0.45987941734E+01 -0.69565617948E+01 -0.29972706535E+03  0.31383878297E+03  0.92676455120E+02 0.  0.
        -11    1    3    3    0    0 -0.20014855431E+02 -0.25573994887E+02 -0.74897524891E+02  0.81634936683E+02  0.00000000000E+00 0.  1.
         11    1    3    3    0    0  0.40984194662E+02  0.60872063975E+02 -0.16902644785E+03  0.18426896770E+03  0.00000000000E+00 0. -1.
        -13    1    4    4    0    0 -0.35949424066E+02 -0.12549018345E+02 -0.63106143662E+02  0.73703624877E+02  0.00000000000E+00 0.  1.
         13    1    4    4    0    0  0.40548218239E+02  0.55924565497E+01 -0.23662092169E+03  0.24013515810E+03  0.00000000000E+00 0. -1.
         21    1    1    2  502  501 -0.25568133405E+02 -0.28341507294E+02 -0.11812015081E+02  0.39956153240E+02  0.00000000000E+00 0.  1.
<scales pt_clust_5="13000.00000" pt_clust_6="13000.00000" pt_clust_7="13000.00000" pt_clust_8="13000.00000" pt_clust_9="38.17028"></scales>
<clustering>
<clus scale="   38.170">  1  9  2 -1</clus>
<clus scale="   92.676">  7  8 -1 -1</clus>
<clus scale="   94.570">  2  7  1 -1</clus>
<clus scale="   97.572">  5  6 -1 -1</clus>
<clus scale="   94.570">  2  5  1 -1</clus>
</clustering>
</event>
<event>
 9    1  0.1612788E-005  0.1195587E+03  0.7546771E-02  0.1244359E+00
          2   -1    0    0  502    0  0.00000000000E+00  0.00000000000E+00  0.22568292064E+03  0.22568292064E+03  0.00000000000E+00 0. -1.
         -2   -1    0    0    0  501 -0.00000000000E+00 -0.00000000000E+00 -0.33301903431E+03  0.33301903431E+03  0.00000000000E+00 0.  1.
         23    2    1    2    0    0  0.31314511248E+02  0.81513972380E+02 -0.17573492061E+03  0.21601033428E+03  0.90291615817E+02 0.  0.
         23    2    1    2    0    0 -0.73770765634E+02 -0.25584144783E+02  0.17649952442E+03  0.21378683305E+03  0.91956802552E+02 0.  0.
        -13    1    4    4    0    0 -0.30981689437E+02 -0.42195036163E+02  0.15402938593E+03  0.16268170730E+03  0.00000000000E+00 0. -1.
         13    1    4    4    0    0 -0.42789076197E+02  0.16610891380E+02  0.22470138488E+02  0.51105125750E+02  0.00000000000E+00 0.  1.
        -13    1    3    3    0    0  0.52964620804E+02  0.39498482221E+02 -0.14577567037E+03  0.16004976484E+03  0.00000000000E+00 0. -1.
         13    1    3    3    0    0 -0.21650109555E+02  0.42015490160E+02 -0.29959250244E+02  0.55960569442E+02  0.00000000000E+00 0.  1.
         21    1    1    2  502  501  0.42456254386E+02 -0.55929827598E+02 -0.10810071748E+03  0.12890478762E+03  0.00000000000E+00 0. -1.
<scales pt_clust_5="13000.00000" pt_clust_6="13000.00000" pt_clust_7="13000.00000" pt_clust_8="13000.00000" pt_clust_9="70.21879"></scales>
<clustering>
<clus scale="   70.219">  2  9  1 -1</clus>
<clus scale="   90.292">  7  8 -1 -1</clus>
<clus scale="   91.957">  5  6 -1 -1</clus>
<clus scale="  118.283">  2  7  1 -1</clus>
<clus scale="  119.559">  1  5  2 -1</clus>
</clustering>
</event>
<event>
 9    1  0.1612788E-005  0.1047652E+03  0.7546771E-02  0.1271976E+00
         -1   -1    0    0    0  501 -0.00000000000E+00  0.00000000000E+00  0.23976914551E+03  0.23976914551E+03  0.00000000000E+00 0.  1.
          1   -1    0    0  502    0  0.00000000000E+00 -0.00000000000E+00 -0.46292259942E+03  0.46292259942E+03  0.00000000000E+00 0. -1.
         23    2    1    2    0    0 -0.14350814716E+02  0.51801511880E+02  0.19258916959E+03  0.21829458478E+03  0.87593350103E+02 0.  0.
         23    2    1    2    0    0 -0.72997732350E+01 -0.51808254489E+02 -0.43975119585E+03  0.45206823270E+03  0.90814045419E+02 0.  0.
        -11    1    4    4    0    0 -0.39798969207E+02  0.12678676988E+01 -0.12381168636E+03  0.13005729168E+03  0.00000000000E+00 0.  1.
         11    1    4    4    0    0  0.32499195972E+02 -0.53076122188E+02 -0.31593950949E+03  0.32201094103E+03  0.00000000000E+00 0. -1.
        -13    1    3    3    0    0 -0.12520254778E+02 -0.17819390655E+02  0.12278155247E+02  0.25000811173E+02  0.00000000000E+00 0. -1.
         13    1    3    3    0    0 -0.18305599372E+01  0.69620902535E+02  0.18031101435E+03  0.19329377360E+03  0.00000000000E+00 0.  1.
         21    1    1    2  502  501  0.21650587951E+02  0.67426090868E-02  0.24008572351E+02  0.32328927455E+02  0.00000000000E+00 0. -1.
<scales pt_clust_5="13000.00000" pt_clust_6="13000.00000" pt_clust_7="13000.00000" pt_clust_8="13000.00000" pt_clust_9="21.65059"></scales>
<clustering>
<clus scale="   21.651">  1  9  2 -1</clus>
<clus scale="   87.593">  7  8 -1 -1</clus>
<clus scale="   90.814">  5  6 -1 -1</clus>
<clus scale="  101.986">  1  7  2 -1</clus>
<clus scale="  104.765">  2  5  1 -1</clus>
</clustering>
</event>
<event>
 9    1  0.1612788E-005  0.3306220E+03  0.7546771E-02  0.1118282E+00
          2   -1    0    0  502    0  0.00000000000E+00  0.00000000000E+00  0.40138373868E+03  0.40138373868E+03  0.00000000000E+00 0. -1.
         -2   -1    0    0    0  501 -0.00000000000E+00 -0.00000000000E+00 -0.35809176193E+03  0.35809176193E+03  0.00000000000E+00 0.  1.
         23    2    1    2    0    0 -0.22432008406E+02 -0.75964096917E+01 -0.47346163556E+01  0.95461517803E+02  0.92355748862E+02 0.  0.
         23    2    1    2    0    0  0.58261900606E+02 -0.30987970322E+03 -0.44565069254E+02  0.33137592217E+03  0.91673752330E+02 0.  0.
        -13    1    4    4    0    0  0.15050180932E+02 -0.24090313021E+03 -0.59558577522E+02  0.24861224879E+03  0.00000000000E+00 0.  1.
         13    1    4    4    0    0  0.43211719674E+02 -0.68976573008E+02  0.14993508268E+02  0.82763673380E+02  0.00000000000E+00 0. -1.
        -13    1    3    3    0    0  0.29961707786E+02 -0.24880287434E+02 -0.94936693184E+01  0.40085688136E+02  0.00000000000E+00 0.  1.
         13    1    3    3    0    0 -0.52393716192E+02  0.17283877742E+02  0.47590529627E+01  0.55375829667E+02  0.00000000000E+00 0. -1.
         21    1    1    2  502  501 -0.35829892200E+02  0.31747611291E+03  0.92591662365E+02  0.33263806064E+03  0.00000000000E+00 0. -1.
<scales pt_clust_5="13000.00000" pt_clust_6="13000.00000" pt_clust_7="13000.00000" pt_clust_8="13000.00000" pt_clust_9="317.65836"></scales>
<clustering>
<clus scale="   91.674">  5  6 -1 -1</clus>
<clus scale="   92.356">  7  8 -1 -1</clus>
<clus scale="   95.344">  2  7  1 -1</clus>
<clus scale="  317.658">  1  9  2 -1</clus>
<clus scale="  317.658">  1  5  2 -1</clus>
</clustering>
</event>
<event>
 9    1  0.1612788E-005  0.9259367E+02  0.7546771E-02  0.1297779E+00
         -1   -1    0    0    0  501 -0.00000000000E+00  0.00000000000E+00  0.43757098827E+03  0.43757098827E+03  0.00000000000E+00 0.  1.
          1   -1    0    0  502    0  0.00000000000E+00 -0.00000000000E+00 -0.92712267439E+02  0.92712267439E+02  0.00000000000E+00 0. -1.
         23    2    1    2    0    0  0.30325404321E+02  0.17268722340E+02  0.28892679445E+03  0.30529519885E+03  0.92242219009E+02 0.  0.
         23    2    1    2    0    0 -0.60199653893E+01 -0.31755210291E+00 -0.57802068693E+02  0.10745713255E+03  0.90385924616E+02 0.  0.
        -11    1    4    4    0    0  0.42212550853E+02 -0.17529687854E+01 -0.29294188891E+02  0.51411300818E+02  0.00000000000E+00 0.  1.
         11    1    4    4    0    0 -0.48232516242E+02  0.14354166825E+01 -0.28507879802E+02  0.56045831735E+02  0.00000000000E+00 0. -1.
        -13    1    3    3    0    0  0.41460174417E+02  0.45252485769E+02  0.24099026847E+03  0.24868261505E+03  0.00000000000E+00 0.  1.
         13    1    3    3    0    0 -0.11134770096E+02 -0.27983763430E+02  0.47936525981E+02  0.56612583795E+02  0.00000000000E+00 0. -1.
         21    1    1    2  502  501 -0.24305438932E+02 -0.16951170237E+02  0.11373399507E+03  0.11753092431E+03  0.00000000000E+00 0. -1.
<scales pt_clust_5="13000.00000" pt_clust_6="13000.00000" pt_clust_7="13000.00000" pt_clust_8="13000.00000" pt_clust_9="29.63269"></scales>
<clustering>
<clus scale="   29.633">  1  9  2 -1</clus>
<clus scale="   90.386">  5  6 -1 -1</clus>
<clus scale="   90.745">  2  5  1 -1</clus>
<clus scale="   92.242">  7  8 -1 -1</clus>
<clus scale="   90.745">  2  5  1 -1</clus>
</clustering>
</event>
<event>
 9    1  0.1612788E-005  0.9985180E+02  0.7546771E-02  0.1281661E+00
         -1   -1    0    0    0  501 -0.00000000000E+00  0.00000000000E+00  0.18254459264E+03  0.18254459264E+03  0.00000000000E+00 0.  1.
          1   -1    0    0  502    0  0.00000000000E+00 -0.00000000000E+00 -0.95637280758E+02  0.95637280758E+02  0.00000000000E+00 0. -1.
         23    2    1    2    0    0 -0.32012550155E+02  0.34738096425E+02  0.68251392468E+02  0.12438695760E+03  0.92640832993E+02 0.  0.
         23    2    1    2    0    0  0.35894389779E+02 -0.48957408526E+01 -0.25120769719E+02  0.10067210171E+03  0.90506593655E+02 0.  0.
        -11    1    4    4    0    0  0.18510912200E+02 -0.39645687569E+02 -0.39788680065E+02  0.59140286393E+02  0.00000000000E+00 0. -1.
         11    1    4    4    0    0  0.17383477578E+02  0.34749946716E+02  0.14667910346E+02  0.41531815316E+02  0.00000000000E+00 0.  1.
        -11    1    3    3    0    0 -0.98182134330E+01  0.52492588068E+02  0.33182278573E+01  0.53505885220E+02  0.00000000000E+00 0. -1.
         11    1    3    3    0    0 -0.22194336722E+02 -0.17754491643E+02  0.64933164611E+02  0.70881072384E+02  0.00000000000E+00 0.  1.
         21    1    1    2  502  501 -0.38818396238E+01 -0.29842355572E+02  0.43776689131E+02  0.53122814084E+02  0.00000000000E+00 0.  1.
<scales pt_clust_5="13000.00000" pt_clust_6="13000.00000" pt_clust_7="13000.00000" pt_clust_8="13000.00000" pt_clust_9="30.09377"></scales>
<clustering>
<clus scale="   30.094">  1  9  2 -1</clus>
<clus scale="   90.507">  5  6 -1 -1</clus>
<clus scale="   92.641">  7  8 -1 -1</clus>
<clus scale="   97.875">  2  5  1 -1</clus>
<clus scale="   97.875">  2  5  1 -1</clus>
</clustering>
</event>
<event>
 9    1  0.1612788E-005  0.9324183E+02  0.7546771E-02  0.1295448E+00
          1   -1    0    0  502    0  0.00000000000E+00  0.00000000000E+00  0.38434722744E+03  0.38434722744E+03  0.00000000000E+00 0. -1.
         -1   -1    0    0    0  501 -0.00000000000E+00 -0.00000000000E+00 -0.87083495113E+02  0.87083495113E+02  0.00000000000E+00 0.  1.
         23    2    1    2    0    0 -0.73630858845E+00 -0.17570120664E+02  0.15130655384E+03  0.17800299208E+03  0.92098537798E+02 0.  0.
         23    2    1    2    0    0 -0.25049044267E+02 -0.49694608370E+01  0.20453323800E+03  0.22557441881E+03  0.91639635614E+02 0.  0.
        -11    1    3    3    0    0 -0.26910683523E+02 -0.44250036983E+01  0.37040465326E+01  0.27522454580E+02  0.00000000000E+00 0.  1.
         11    1    3    3    0    0  0.26174374934E+02 -0.13145116966E+02  0.14760250731E+03  0.15048053750E+03  0.00000000000E+00 0. -1.
        -13    1    4    4    0    0  0.30531399195E+02  0.15133228814E+02  0.53988375470E+02  0.63842976411E+02  0.00000000000E+00 0.  1.
         13    1    4    4    0    0 -0.55580443462E+02 -0.20102689651E+02  0.15054486253E+03  0.16173144240E+03  0.00000000000E+00 0. -1.
         21    1    1    2  502  501  0.25785352855E+02  0.22539581501E+02 -0.58576059510E+02  0.67853311664E+02  0.00000000000E+00 0.  1.
<scales pt_clust_5="13000.00000" pt_clust_6="13000.00000" pt_clust_7="13000.00000" pt_clust_8="13000.00000" pt_clust_9="34.24788"></scales>
<clustering>
<clus scale="   34.248">  2  9  1 -1</clus>
<clus scale="   91.640">  7  8 -1 -1</clus>
<clus scale="   92.099">  5  6 -1 -1</clus>
<clus scale="   92.789">  1  7  2 -1</clus>
<clus scale="   92.789">  1  5  2 -1</clus>
</clustering>
</event>
<event>
 9    1  0.1612788E-005  0.3296001E+03  0.7546771E-02  0.1072252E+00
         -2   -1    0    0    0  501 -0.00000000000E+00  0.00000000000E+00  0.35450582607E+03  0.35450582607E+03  0.00000000000E+00 0.  1.
          2   -1    0    0  502    0  0.00000000000E+00 -0.00000000000E+00 -0.65483372985E+03  0.65483372985E+03  0.00000000000E+00 0. -1.
         23    2    1    2    0    0  0.34018870950E+03  0.68718303827E+02 -0.37263243334E+02  0.36266610880E+03  0.98425575024E+02 0.  0.
         23    2    1    2    0    0 -0.28699448621E+03 -0.10201338416E+03 -0.39353799135E+03  0.50189265473E+03  0.65203685259E+02 0.  0.
        -11    1    4    4    0    0 -0.33743795841E+02 -0.35584871974E+01 -0.80617894947E+02  0.87467431507E+02  0.00000000000E+00 0.  1.
         11    1    4    4    0    0 -0.25325069037E+03 -0.98454896962E+02 -0.31292009641E+03  0.41442522322E+03  0.00000000000E+00 0. -1.
        -11    1    3    3    0    0  0.29499910850E+03  0.59401916992E+02  0.37341010102E+01  0.30094352505E+03  0.00000000000E+00 0.  1.
         11    1    3    3    0    0  0.45189601002E+02  0.93163868351E+01 -0.40997344344E+02  0.61722583757E+02  0.00000000000E+00 0. -1.
         21    1    1    2  502  501 -0.53194223289E+02  0.33295080332E+02  0.13047333091E+03  0.14478079238E+03  0.00000000000E+00 0.  1.
<scales pt_clust_5="13000.00000" pt_clust_6="13000.00000" pt_clust_7="13000.00000" pt_clust_8="13000.00000" pt_clust_9="62.75498"></scales>
<clustering>
<clus scale="   62.755">  1  9  2 -1</clus>
<clus scale="   65.204">  5  6 -1 -1</clus>
<clus scale="   98.426">  7  8 -1 -1</clus>
<clus scale="  321.248">  2  5  1 -1</clus>
<clus scale="  321.248">  2  5  1 -1</clus>
</clustering>
</event>
<event>
 9    1  0.1612788E-005  0.1418684E+03  0.7546771E-02  0.1222393E+00
          1   -1    0    0  502    0  0.00000000000E+00  0.00000000000E+00  0.63431609955E+03  0.63431609955E+03  0.00000000000E+00 0. -1.
         -1   -1    0    0    0  501 -0.00000000000E+00 -0.00000000000E+00 -0.66981532721E+02  0.66981532721E+02  0.00000000000E+00 0.  1.
         23    2    1    2    0    0 -0.83375505899E+02 -0.39932484876E+02  0.34354535365E+03  0.37749581964E+03  0.12622838628E+03 0.  0.
         23    2    1    2    0    0  0.40897896100E+02  0.26129121471E+02  0.25124910078E+03  0.27137161521E+03  0.90338662823E+02 0.  0.
        -13    1    4    4    0    0  0.36252295640E+02  0.58296469119E+02  0.19020789601E+03  0.20221708868E+03  0.00000000000E+00 0. -1.
         13    1    4    4    0    0  0.46456004591E+01 -0.32167347649E+02  0.61041204776E+02  0.69154526525E+02  0.00000000000E+00 0.  1.
        -13    1    3    3    0    0 -0.29062738697E+02  0.45470810775E+02  0.97323570227E+02  0.11128393745E+03  0.00000000000E+00 0. -1.
         13    1    3    3    0    0 -0.54312767202E+02 -0.85403295652E+02  0.24622178342E+03  0.26621188219E+03  0.00000000000E+00 0.  1.
         21    1    1    2  502  501  0.42477609799E+02  0.13803363406E+02 -0.27459887596E+02  0.52430197428E+02  0.00000000000E+00 0.  1.
<scales pt_clust_5="13000.00000" pt_clust_6="13000.00000" pt_clust_7="13000.00000" pt_clust_8="13000.00000" pt_clust_9="44.66408"></scales>
<clustering>
<clus scale="   44.664">  2  9  1 -1</clus>
<clus scale="   90.339">  5  6 -1 -1</clus>
<clus scale="  111.149">  1  5  2 -1</clus>
<clus scale="  126.228">  7  8 -1 -1</clus>
<clus scale="  111.149">  1  5  2 -1</clus>
</clustering>
</event>
<event>
 9    1  0.1612788E-005  0.9531460E+02  0.7546771E-02  0.1290662E+00
          2   -1    0    0  502    0  0.00000000000E+00  0.00000000000E+00  0.57569333213E+03  0.57569333213E+03  0.00000000000E+00 0. -1.
         -2   -1    0    0    0  501 -0.00000000000E+00 -0.00000000000E+00 -0.27467622043E+02  0.27467622043E+02  0.00000000000E+00 0.  1.
         23    2    1    2    0    0  0.28632054636E+02  0.36612265435E+02  0.17454214578E+03  0.20229460495E+03  0.91092776902E+02 0.  0.
         23    2    1    2    0    0  0.17316328419E+02 -0.12813186327E+02  0.24740374423E+03  0.26439568194E+03  0.90732744885E+02 0.  0.
        -13    1    3    3    0    0  0.27446117033E+02 -0.15604307768E+02  0.16048235961E+02  0.35416516466E+02  0.00000000000E+00 0.  1.
         13    1    3    3    0    0  0.11859376027E+01  0.52216573203E+02  0.15849390982E+03  0.16687808848E+03  0.00000000000E+00 0. -1.
        -13    1    4    4    0    0  0.38124926727E+02 -0.41869110805E+02  0.16890259390E+03  0.17814213062E+03  0.00000000000E+00 0.  1.
         13    1    4    4    0    0 -0.20808598308E+02  0.29055924478E+02  0.78501150332E+02  0.86253551314E+02  0.00000000000E+00 0. -1.
         21    1    1    2  502  501 -0.45948383054E+02 -0.23799079108E+02  0.12627982007E+03  0.13647066729E+03  0.00000000000E+00 0. -1.
<scales pt_clust_5="13000.00000" pt_clust_6="13000.00000" pt_clust_7="13000.00000" pt_clust_8="13000.00000" pt_clust_9="51.74602"></scales>
<clustering>
<clus scale="   51.746">  1  9  2 -1</clus>
<clus scale="   90.733">  7  8 -1 -1</clus>
<clus scale="   91.093">  5  6 -1 -1</clus>
<clus scale="   94.971">  1  7  2 -1</clus>
<clus scale="   51.746">  1  5  2 -1</clus>
</clustering>
</event>
<event>
 9    1  0.1612788E-005  0.1006712E+03  0.7546771E-02  0.1284081E+00
          1   -1    0    0  502    0  0.00000000000E+00  0.00000000000E+00  0.18806207836E+03  0.18806207836E+03  0.00000000000E+00 0. -1.
         -1   -1    0    0    0  501 -0.00000000000E+00 -0.00000000000E+00 -0.38326772217E+03  0.38326772217E+03  0.00000000000E+00 0.  1.
         23    2    1    2    0    0  0.40085250094E+02  0.63224244664E+01 -0.12971254088E+03  0.16315077710E+03  0.90255373697E+02 0.  0.
         23    2    1    2    0    0 -0.10226813034E+02  0.36786475000E+01  0.15542708911E+03  0.18502598411E+03  0.99794361632E+02 0.  0.
        -11    1    4    4    0    0 -0.13102642753E+02  0.38271707534E+02  0.19820852893E+02  0.45047408960E+02  0.00000000000E+00 0.  1.
         11    1    4    4    0    0  0.28758297190E+01 -0.34593060034E+02  0.13560623622E+03  0.13997857515E+03  0.00000000000E+00 0. -1.
        -11    1    3    3    0    0  0.66109186414E+02  0.10444924178E+02 -0.65079503928E+02  0.93353429508E+02  0.00000000000E+00 0.  1.
         11    1    3    3    0    0 -0.26023936320E+02 -0.41224997120E+01 -0.64633036950E+02  0.69797347592E+02  0.00000000000E+00 0. -1.
         21    1    1    2  502  501 -0.29858437060E+02 -0.10001071966E+02 -0.22092019205E+03  0.22315303932E+03  0.00000000000E+00 0. -1.
<scales pt_clust_5="13000.00000" pt_clust_6="13000.00000" pt_clust_7="13000.00000" pt_clust_8="13000.00000" pt_clust_9="31.48885"></scales>
<clustering>
<clus scale="   31.489">  2  9  1 -1</clus>
<clus scale="   90.255">  7  8 -1 -1</clus>
<clus scale="   91.224">  2  7  1 -1</clus>
<clus scale="   99.794">  5  6 -1 -1</clus>
<clus scale="  100.671">  1  5  2 -1</clus>
</clustering>
</event>
<event>
 9    1  0.1612788E-005  0.9828246E+02  0.7546771E-02  0.1285278E+00
          3   -1    0    0  502    0  0.00000000000E+00  0.00000000000E+00  0.22406938920E+03  0.22406938920E+03  0.00000000000E+00 0. -1.
         -3   -1    0    0    0  501 -0.00000000000E+00 -0.00000000000E+00 -0.10291690708E+03  0.10291690708E+03  0.00000000000E+00 0.  1.
         23    2    1    2    0    0  0.21599388005E+02  0.43927622044E+02  0.30241893671E+02  0.10759208803E+03  0.90913781863E+02 0.  0.
         23    2    1    2    0    0 -0.23604141997E+02 -0.23886722282E+02  0.13854580165E+03  0.16767602732E+03  0.88275590981E+02 0.  0.
        -11    1    3    3    0    0  0.39189807783E+02  0.62527517989E+02  0.90272898105E+01  0.74343954033E+02  0.00000000000E+00 0.  1.
         11    1    3    3    0    0 -0.17590419777E+02 -0.18599895946E+02  0.21214603860E+02  0.33248133994E+02  0.00000000000E+00 0. -1.
        -13    1    4    4    0    0  0.29490634609E+02 -0.50052653573E+01  0.18790684072E+02  0.35324779106E+02  0.00000000000E+00 0.  1.
         13    1    4    4    0    0 -0.53094776607E+02 -0.18881456925E+02  0.11975511758E+03  0.13235124822E+03  0.00000000000E+00 0. -1.
         21    1    1    2  502  501  0.20047539918E+01 -0.20040899762E+02 -0.47635213207E+02  0.51718180934E+02  0.00000000000E+00 0.  1.
<scales pt_clust_5="13000.00000" pt_clust_6="13000.00000" pt_clust_7="13000.00000" pt_clust_8="13000.00000" pt_clust_9="20.14092"></scales>
<clustering>
<clus scale="   20.141">  2  9  1 -1</clus>
<clus scale="   88.276">  7  8 -1 -1</clus>
<clus scale="   90.914">  5  6 -1 -1</clus>
<clus scale="   95.847">  1  7  2 -1</clus>
<clus scale="   95.847">  1  5  2 -1</clus>
</clustering>
</event>
<event>
 9    1  0.1612788E-005  0.1076935E+03  0.7546771E-02  0.1265117E+00
         -2   -1    0    0    0  501 -0.00000000000E+00  0.00000000000E+00  0.47969879362E+03  0.47969879362E+03  0.00000000000E+00 0.  1.
          2   -1    0    0  502    0  0.00000000000E+00 -0.00000000000E+00 -0.98997934586E+02  0.98997934586E+02  0.00000000000E+00 0. -1.
         23    2    1    2    0    0 -0.66900917508E+02  0.31735495156E+02  0.30341584581E+03  0.32538718148E+03  0.91283996249E+02 0.  0.
         23    2    1    2    0    0  0.41150410092E+02 -0.37507052719E+02 -0.54011890338E+02  0.11938689593E+03  0.90751371162E+02 0.  0.
        -13    1    4    4    0    0 -0.27631740774E+02 -0.12873238520E+02 -0.37630491067E+01  0.30714718080E+02  0.00000000000E+00 0. -1.
         13    1    4    4    0    0  0.68782150866E+02 -0.24633814199E+02 -0.50248841231E+02  0.88672177851E+02  0.00000000000E+00 0.  1.
        -13    1    3    3    0    0 -0.34521818442E+02 -0.27708984283E+02  0.17145980195E+03  0.17708192297E+03  0.00000000000E+00 0. -1.
         13    1    3    3    0    0 -0.32379099067E+02  0.59444479439E+02  0.13195604386E+03  0.14830525851E+03  0.00000000000E+00 0.  1.
         21    1    1    2  502  501  0.25750507416E+02  0.57715575637E+01  0.13129690357E+03  0.13392265079E+03  0.00000000000E+00 0.  1.
<scales pt_clust_5="13000.00000" pt_clust_6="13000.00000" pt_clust_7="13000.00000" pt_clust_8="13000.00000" pt_clust_9="26.38938"></scales>
<clustering>
<clus scale="   26.389">  1  9  2 -1</clus>
<clus scale="   90.751">  5  6 -1 -1</clus>
<clus scale="   91.284">  7  8 -1 -1</clus>
<clus scale="  107.242">  2  5  1 -1</clus>
<clus scale="  107.242">  2  5  1 -1</clus>
</clustering>
</event>
<event>
 9    1  0.1612788E-005  0.1037178E+03  0.7546771E-02  0.1273050E+00
          2   -1    0    0  502    0  0.00000000000E+00  0.00000000000E+00  0.18897691956E+03  0.18897691956E+03  0.00000000000E+00 0. -1.
         -2   -1    0    0    0  501 -0.00000000000E+00 -0.00000000000E+00 -0.16520916897E+03  0.16520916897E+03  0.00000000000E+00 0.  1.
         23    2    1    2    0    0 -0.28402114713E+02 -0.21148476733E+02 -0.10555387927E+03  0.14476745845E+03  0.92531386082E+02 0.  0.
         23    2    1    2    0    0  0.15406560572E+01  0.50261606318E+02  0.13351426389E+03  0.16958534682E+03  0.91676215583E+02 0.  0.
        -11    1    3    3    0    0 -0.20223045382E+02  0.35630473295E+02 -0.52823811111E+02  0.66849511681E+02  0.00000000000E+00 0. -1.
         11    1    3    3    0    0 -0.81790693309E+01 -0.56778950028E+02 -0.52730068158E+02  0.77917946773E+02  0.00000000000E+00 0.  1.
        -13    1    4    4    0    0 -0.10025100225E+02  0.75669525725E+02  0.10339815283E+03  0.12852065113E+03  0.00000000000E+00 0. -1.
         13    1    4    4    0    0  0.11565756282E+02 -0.25407919407E+02  0.30116111059E+02  0.41064695692E+02  0.00000000000E+00 0.  1.
         21    1    1    2  502  501  0.26861458655E+02 -0.29113129585E+02 -0.41926340289E+01  0.39833283262E+02  0.00000000000E+00 0. -1.
<scales pt_clust_5="13000.00000" pt_clust_6="13000.00000" pt_clust_7="13000.00000" pt_clust_8="13000.00000" pt_clust_9="39.61202"></scales>
<clustering>
<clus scale="   39.612">  2  9  1 -1</clus>
<clus scale="   91.676">  7  8 -1 -1</clus>
<clus scale="   92.531">  5  6 -1 -1</clus>
<clus scale="  102.956">  1  7  2 -1</clus>
<clus scale="  102.956">  1  5  2 -1</clus>
</clustering>
</event>
<event>
 9    1  0.1612788E-005  0.9860577E+02  0.7546771E-02  0.1283311E+00
          2   -1    0    0  502    0  0.00000000000E+00  0.00000000000E+00  0.25885150990E+03  0.25885150990E+03  0.00000000000E+00 0. -1.
         -2   -1    0    0    0  501 -0.00000000000E+00 -0.00000000000E+00 -0.68357428674E+02  0.68357428674E+02  0.00000000000E+00 0.  1.
         23    2    1    2    0    0 -0.17539606174E+02  0.14781132269E+02  0.49915512748E+02  0.10684371382E+03  0.91640062817E+02 0.  0.
         23    2    1    2    0    0 -0.54977366620E+01 -0.66286508947E+02  0.89625545583E+02  0.14434066600E+03  0.91527935980E+02 0.  0.
        -11    1    4    4    0    0  0.27459109623E+02 -0.46524259941E+02  0.86524335887E+01  0.54711736139E+02  0.00000000000E+00 0.  1.
         11    1    4    4    0    0 -0.32956846285E+02 -0.19762249006E+02  0.80973111995E+02  0.89628929866E+02  0.00000000000E+00 0. -1.
        -13    1    3    3    0    0 -0.11750941237E+02 -0.29004918039E+02  0.54078596339E+02  0.62480912864E+02  0.00000000000E+00 0.  1.
         13    1    3    3    0    0 -0.57886649379E+01  0.43786050307E+02 -0.41630835908E+01  0.44362800952E+02  0.00000000000E+00 0. -1.
         21    1    1    2  502  501  0.23037342837E+02  0.51505376678E+02  0.50953022900E+02  0.76024558758E+02  0.00000000000E+00 0.  1.
<scales pt_clust_5="13000.00000" pt_clust_6="13000.00000" pt_clust_7="13000.00000" pt_clust_8="13000.00000" pt_clust_9="56.42272"></scales>
<clustering>
<clus scale="   56.423">  1  9  2 -1</clus>
<clus scale="   91.528">  5  6 -1 -1</clus>
<clus scale="   91.640">  7  8 -1 -1</clus>
<clus scale="   98.502">  1  5  2 -1</clus>
<clus scale="   56.423">  1  5  2 -1</clus>
</clustering>
</event>
<event>
 9    1  0.1612788E-005  0.1006415E+03  0.7546771E-02  0.1283510E+00
          1   -1    0    0  502    0  0.00000000000E+00  0.00000000000E+00  0.68513127336E+03  0.68513127336E+03  0.00000000000E+00 0. -1.
         -1   -1    0    0    0  501 -0.00000000000E+00 -0.00000000000E+00 -0.32163896362E+02  0.32163896362E+02  0.00000000000E+00 0.  1.
         23    2    1    2    0    0 -0.74067027762E+01 -0.66063738530E+01  0.15910777662E+03  0.18331917516E+03  0.90510397068E+02 0.  0.
         23    2    1    2    0    0 -0.14516176648E+02 -0.26838739309E+02  0.48090848845E+03  0.49194125254E+03  0.99005981533E+02 0.  0.
        -11    1    3    3    0    0  0.18415203178E+02 -0.29136098100E+02  0.13979790252E+03  0.14398432370E+03  0.00000000000E+00 0. -1.
         11    1    3    3    0    0 -0.25821905954E+02  0.22529724247E+02  0.19309874100E+02  0.39334851462E+02  0.00000000000E+00 0.  1.
        -13    1    4    4    0    0 -0.27781661066E+02 -0.60922505566E+02  0.31950874666E+03  0.32644940124E+03  0.00000000000E+00 0. -1.
         13    1    4    4    0    0  0.13265484418E+02  0.34083766257E+02  0.16139974179E+03  0.16549185131E+03  0.00000000000E+00 0.  1.
         21    1    1    2  502  501  0.21922879424E+02  0.33445113162E+02  0.12951111926E+02  0.42034742021E+02  0.00000000000E+00 0.  1.
<scales pt_clust_5="13000.00000" pt_clust_6="13000.00000" pt_clust_7="13000.00000" pt_clust_8="13000.00000" pt_clust_9="39.98985"></scales>
<clustering>
<clus scale="   39.990">  2  9  1 -1</clus>
<clus scale="   90.510">  5  6 -1 -1</clus>
<clus scale="   92.297">  2  5  1 -1</clus>
<clus scale="   99.006">  7  8 -1 -1</clus>
<clus scale="  100.641">  1  5  2 -1</clus>
</clustering>
</event>
<event>
 9    1  0.1612788E-005  0.1042183E+03  0.7546771E-02  0.1272228E+00
          1   -1    0    0  502    0  0.00000000000E+00  0.00000000000E+00  0.28543161365E+03  0.28543161365E+03  0.00000000000E+00 0. -1.
         -1   -1    0    0    0  501 -0.00000000000E+00 -0.00000000000E+00 -0.49152979493E+02  0.49152979493E+02  0.00000000000E+00 0.  1.
         23    2    1    2    0    0 -0.43933712108E+02 -0.29146049371E+02  0.10615632606E+03  0.14875337735E+03  0.89881802692E+02 0.  0.
         23    2    1    2    0    0  0.23037673558E+02  0.46471101670E+02  0.11038354513E+03  0.15226902535E+03  0.91164858099E+02 0.  0.
        -13    1    4    4    0    0  0.31076708743E+02  0.71455534961E+02  0.74444173277E+02  0.10776636877E+03  0.00000000000E+00 0.  1.
         13    1    4    4    0    0 -0.80390351848E+01 -0.24984433291E+02  0.35939371851E+02  0.44502656580E+02  0.00000000000E+00 0. -1.
        -13    1    3    3    0    0 -0.50143687964E+02  0.15961026730E+02  0.81393240332E+02  0.96922667053E+02  0.00000000000E+00 0.  1.
         13    1    3    3    0    0  0.62099758563E+01 -0.45107076101E+02  0.24763085731E+02  0.51830710293E+02  0.00000000000E+00 0. -1.
         21    1    1    2  502  501  0.20896038550E+02 -0.17325052299E+02  0.19738762966E+02  0.33562190448E+02  0.00000000000E+00 0.  1.
<scales pt_clust_5="13000.00000" pt_clust_6="13000.00000" pt_clust_7="13000.00000" pt_clust_8="13000.00000" pt_clust_9="27.14409"></scales>
<clustering>
<clus scale="   27.144">  2  9  1 -1</clus>
<clus scale="   89.882">  7  8 -1 -1</clus>
<clus scale="   91.165">  5  6 -1 -1</clus>
<clus scale="  103.098">  2  7  1 -1</clus>
<clus scale="  104.218">  1  5  2 -1</clus>
</clustering>
</event>
<event>
 9    1  0.1612788E-005  0.1190461E+03  0.7546771E-02  0.1246164E+00
          2   -1    0    0  502    0  0.00000000000E+00  0.00000000000E+00  0.49924719059E+03  0.49924719059E+03  0.00000000000E+00 0. -1.
         -2   -1    0    0    0  501 -0.00000000000E+00 -0.00000000000E+00 -0.17157699784E+03  0.17157699784E+03  0.00000000000E+00 0.  1.
         23    2    1    2    0    0  0.96317880721E+02  0.71662182227E+02 -0.97059312127E+02  0.17901356661E+03  0.90624193519E+02 0.  0.
         23    2    1    2    0    0 -0.36093453453E+02 -0.59115555940E+02  0.41269558238E+03  0.42912717296E+03  0.95053145772E+02 0.  0.
        -11    1    4    4    0    0  0.10388406995E+02 -0.69102420695E+02  0.25744413969E+03  0.26675934586E+03  0.00000000000E+00 0.  1.
         11    1    4    4    0    0 -0.46481860448E+02  0.99868647551E+01  0.15525144269E+03  0.16236782709E+03  0.00000000000E+00 0. -1.
        -13    1    3    3    0    0  0.54042989251E+02 -0.28463673177E+01 -0.71390634146E+02  0.89584424639E+02  0.00000000000E+00 0.  1.
         13    1    3    3    0    0  0.42274891470E+02  0.74508549544E+02 -0.25668677981E+02  0.89429141969E+02  0.00000000000E+00 0. -1.
         21    1    1    2  502  501 -0.60224427268E+02 -0.12546626286E+02  0.12033922508E+02  0.62683448867E+02  0.00000000000E+00 0. -1.
<scales pt_clust_5="13000.00000" pt_clust_6="13000.00000" pt_clust_7="13000.00000" pt_clust_8="13000.00000" pt_clust_9="61.51747"></scales>
<clustering>
<clus scale="   61.517">  2  9  1 -1</clus>
<clus scale="   90.624">  7  8 -1 -1</clus>
<clus scale="   95.053">  5  6 -1 -1</clus>
<clus scale="  115.541">  2  7  1 -1</clus>
<clus scale="  119.046">  1  5  2 -1</clus>
</clustering>
</event>
<event>
 9    1  0.1612788E-005  0.9731587E+02  0.7546771E-02  0.1287317E+00
          4   -1    0    0  502    0  0.00000000000E+00  0.00000000000E+00  0.21740240527E+03  0.21740240527E+03  0.00000000000E+00 0. -1.
         -4   -1    0    0    0  501 -0.00000000000E+00 -0.00000000000E+00 -0.85983364980E+02  0.85983364980E+02  0.00000000000E+00 0.  1.
         23    2    1    2    0    0 -0.44496725469E+01 -0.26791598974E+02 -0.25834820345E+02  0.10095210465E+03  0.93735266200E+02 0.  0.
         23    2    1    2    0    0 -0.22324178220E+02  0.23461275709E+02  0.14048002086E+03  0.17066431183E+03  0.91339316189E+02 0.  0.
        -11    1    4    4    0    0  0.22897090568E+02  0.24119802082E+02  0.13539079754E+02  0.35907496286E+02  0.00000000000E+00 0.  1.
         11    1    4    4    0    0 -0.45221268788E+02 -0.65852637250E+00  0.12694094110E+03  0.13475681555E+03  0.00000000000E+00 0. -1.
        -13    1    3    3    0    0  0.17688357636E+02 -0.26603786528E+02 -0.55439060708E+02  0.63985380406E+02  0.00000000000E+00 0.  1.
         13    1    3    3    0    0 -0.22138030183E+02 -0.18781244583E+00  0.29604240363E+02  0.36966724244E+02  0.00000000000E+00 0. -1.
         21    1    1    2  502  501  0.26773850767E+02  0.33303232646E+01  0.16773839779E+02  0.31769353769E+02  0.00000000000E+00 0.  1.
<scales pt_clust_5="13000.00000" pt_clust_6="13000.00000" pt_clust_7="13000.00000" pt_clust_8="13000.00000" pt_clust_9="26.98018"></scales>
<clustering>
<clus scale="   26.980">  1  9  2 -1</clus>
<clus scale="   91.339">  5  6 -1 -1</clus>
<clus scale="   93.735">  7  8 -1 -1</clus>
<clus scale="   95.010">  1  5  2 -1</clus>
<clus scale="   26.980">  1  5  2 -1</clus>
</clustering>
</event>
<event>
 9    1  0.1612788E-005  0.1151546E+03  0.7546771E-02  0.1256875E+00
          1   -1    0    0  502    0  0.00000000000E+00  0.00000000000E+00  0.42554442791E+03  0.42554442791E+03  0.00000000000E+00 0. -1.
         -1   -1    0    0    0  501 -0.00000000000E+00 -0.00000000000E+00 -0.10715197598E+03  0.10715197598E+03  0.00000000000E+00 0.  1.
         23    2    1    2    0    0 -0.24515369263E+02  0.73190008844E+02  0.84247630740E+02  0.13703527934E+03  0.75651991216E+02 0.  0.
         23    2    1    2    0    0  0.52634565685E+02 -0.46370760124E+02  0.29879384682E+03  0.32023262976E+03  0.91381230948E+02 0.  0.
        -13    1    4    4    0    0  0.73425168195E+02 -0.12109571072E+02  0.17674424801E+03  0.19177180773E+03  0.00000000000E+00 0.  1.
         13    1    4    4    0    0 -0.20790602510E+02 -0.34261189052E+02  0.12204959881E+03  0.12846082203E+03  0.00000000000E+00 0. -1.
        -13    1    3    3    0    0 -0.15286728800E+02  0.21332312496E+02 -0.10791401191E+02  0.28376151492E+02  0.00000000000E+00 0.  1.
         13    1    3    3    0    0 -0.92286404634E+01  0.51857696348E+02  0.95039031931E+02  0.10865912785E+03  0.00000000000E+00 0. -1.
         21    1    1    2  502  501 -0.28119196422E+02 -0.26819248720E+02 -0.64649025630E+02  0.75428494777E+02  0.00000000000E+00 0. -1.
<scales pt_clust_5="13000.00000" pt_clust_6="13000.00000" pt_clust_7="13000.00000" pt_clust_8="13000.00000" pt_clust_9="38.85822"></scales>
<clustering>
<clus scale="   38.858">  2  9  1 -1</clus>
<clus scale="   75.652">  7  8 -1 -1</clus>
<clus scale="   91.381">  5  6 -1 -1</clus>
<clus scale="  103.118">  2  7  1 -1</clus>
<clus scale="  115.155">  1  5  2 -1</clus>
</clustering>
</event>
<event>
 9    1  0.1612788E-005  0.1352431E+03  0.7546771E-02  0.1219933E+00
         -2   -1    0    0    0  501 -0.00000000000E+00  0.00000000000E+00  0.85452810905E+02  0.85452810905E+02  0.00000000000E+00 0.  1.
          2   -1    0    0  502    0  0.00000000000E+00 -0.00000000000E+00 -0.69747143875E+03  0.69747143875E+03  0.00000000000E+00 0. -1.
         23    2    1    2    0    0  0.97045670294E+02  0.67457553850E+02 -0.27505048395E+03  0.31314431919E+03  0.91859742132E+02 0.  0.
         23    2    1    2    0    0 -0.79559311145E+02 -0.40748407056E+02 -0.38856454434E+03  0.40910588480E+03  0.91624795735E+02 0.  0.
        -11    1    4    4    0    0 -0.58689282362E+02 -0.57328577410E+02 -0.36306188706E+03  0.37221624291E+03  0.00000000000E+00 0.  1.
         11    1    4    4    0    0 -0.20870028784E+02  0.16580170354E+02 -0.25502657281E+02  0.36889641890E+02  0.00000000000E+00 0. -1.
        -11    1    3    3    0    0  0.39419674218E+02  0.80373982438E+02 -0.18395861174E+03  0.20458411131E+03  0.00000000000E+00 0. -1.
         11    1    3    3    0    0  0.57625996076E+02 -0.12916428588E+02 -0.91091872208E+02  0.10856020787E+03  0.00000000000E+00 0.  1.
         21    1    1    2  502  501 -0.17486359148E+02 -0.26709146794E+02  0.51596400443E+02  0.60674045666E+02  0.00000000000E+00 0.  1.
<scales pt_clust_5="13000.00000" pt_clust_6="13000.00000" pt_clust_7="13000.00000" pt_clust_8="13000.00000" pt_clust_9="31.92415"></scales>
<clustering>
<clus scale="   31.924">  1  9  2 -1</clus>
<clus scale="   91.625">  5  6 -1 -1</clus>
<clus scale="   91.860">  7  8 -1 -1</clus>
<clus scale="  135.084">  2  5  1 -1</clus>
<clus scale="  135.084">  2  5  1 -1</clus>
</clustering>
</event>
<event>
 9    1  0.1612788E-005  0.1296764E+03  0.7546771E-02  0.1247993E+00
          1   -1    0    0  502    0  0.00000000000E+00  0.00000000000E+00  0.10205329201E+04  0.10205329201E+04  0.00000000000E+00 0. -1.
         -1   -1    0    0    0  501 -0.00000000000E+00 -0.00000000000E+00 -0.29177093717E+02  0.29177093717E+02  0.00000000000E+00 0.  1.
         23    2    1    2    0    0 -0.17491339249E+01 -0.72926256278E+01  0.11087396522E+03  0.14042116129E+03  0.85841857606E+02 0.  0.
         23    2    1    2    0    0 -0.70648302571E+02  0.62801384313E+02  0.60855560141E+03  0.62246747633E+03  0.90502168730E+02 0.  0.
        -11    1    4    4    0    0 -0.33967600282E+02  0.81966753060E+02  0.44481140361E+03  0.45357417393E+03  0.00000000000E+00 0. -1.
         11    1    4    4    0    0 -0.36680702289E+02 -0.19165368747E+02  0.16374419780E+03  0.16889330240E+03  0.00000000000E+00 0.  1.
        -11    1    3    3    0    0 -0.36615738284E+02  0.20152178243E+02  0.54201127530E+02  0.68444026792E+02  0.00000000000E+00 0.  1.
         11    1    3    3    0    0  0.34866604359E+02 -0.27444803871E+02  0.56672837686E+02  0.71977134497E+02  0.00000000000E+00 0. -1.
         21    1    1    2  502  501  0.72397436496E+02 -0.55508758685E+02  0.27192625976E+03  0.28682137620E+03  0.00000000000E+00 0. -1.
<scales pt_clust_5="13000.00000" pt_clust_6="13000.00000" pt_clust_7="13000.00000" pt_clust_8="13000.00000" pt_clust_9="92.87257"></scales>
<clustering>
<clus scale="   85.842">  7  8 -1 -1</clus>
<clus scale="   86.169">  2  7  1 -1</clus>
<clus scale="   90.502">  5  6 -1 -1</clus>
<clus scale="   92.873">  2  9  1 -1</clus>
<clus scale="  129.676">  1  5  2 -1</clus>
</clustering>
</event>
<event>
 9    1  0.1612788E-005  0.9386622E+02  0.7546771E-02  0.1295866E+00
          3   -1    0    0  502    0  0.00000000000E+00  0.00000000000E+00  0.14097848063E+03  0.14097848063E+03  0.00000000000E+00 0. -1.
         -3   -1    0    0    0  501 -0.00000000000E+00 -0.00000000000E+00 -0.14691171573E+03  0.14691171573E+03  0.00000000000E+00 0.  1.
         23    2    1    2    0    0  0.50865059595E+01 -0.24742049654E+02 -0.43484508873E+02  0.10405375258E+03  0.91094672453E+02 0.  0.
         23    2    1    2    0    0 -0.21504299705E+02  0.10654726699E+02  0.89631246239E+02  0.12744211648E+03  0.87360028861E+02 0.  0.
        -11    1    4    4    0    0 -0.28147892202E+02 -0.19094738582E+02  0.13430776848E+01  0.34039928534E+02  0.00000000000E+00 0.  1.
         11    1    4    4    0    0  0.66435924966E+01  0.29749465281E+02  0.88288168554E+02  0.93402187942E+02  0.00000000000E+00 0. -1.
        -13    1    3    3    0    0 -0.30894229567E+02  0.17098874586E+02 -0.32072921913E+02  0.47702172410E+02  0.00000000000E+00 0. -1.
         13    1    3    3    0    0  0.35980735526E+02 -0.41840924240E+02 -0.11411586960E+02  0.56351580166E+02  0.00000000000E+00 0.  1.
         21    1    1    2  502  501  0.16417793746E+02  0.14087322955E+02 -0.52079972467E+02  0.56394327301E+02  0.00000000000E+00 0.  1.
<scales pt_clust_5="13000.00000" pt_clust_6="13000.00000" pt_clust_7="13000.00000" pt_clust_8="13000.00000" pt_clust_9="21.63323"></scales>
<clustering>
<clus scale="   21.633">  2  9  1 -1</clus>
<clus scale="   87.360">  5  6 -1 -1</clus>
<clus scale="   90.246">  1  5  2 -1</clus>
<clus scale="   91.095">  7  8 -1 -1</clus>
<clus scale="   90.246">  1  5  2 -1</clus>
</clustering>
</event>
<event>
 9    1  0.1612788E-005  0.1189831E+03  0.7546771E-02  0.1245349E+00
          1   -1    0    0  502    0  0.00000000000E+00  0.00000000000E+00  0.51391573805E+03  0.51391573805E+03  0.00000000000E+00 0. -1.
         -1   -1    0    0    0  501 -0.00000000000E+00 -0.00000000000E+00 -0.46977703965E+02  0.46977703965E+02  0.00000000000E+00 0.  1.
         23    2    1    2    0    0  0.48045479370E+02  0.44547838810E+02  0.52739522463E+02  0.11724991361E+03  0.81689699365E+02 0.  0.
         23    2    1    2    0    0 -0.70449500325E+02 -0.56544301259E+02  0.38836252252E+03  0.40740330767E+03  0.83615884223E+02 0.  0.
        -11    1    3    3    0    0  0.69899098752E+02  0.22699502381E+02  0.32847788780E+02  0.80499246222E+02  0.00000000000E+00 0.  1.
         11    1    3    3    0    0 -0.21853619382E+02  0.21848336430E+02  0.19891733683E+02  0.36750667392E+02  0.00000000000E+00 0. -1.
        -11    1    4    4    0    0 -0.43758936598E+02 -0.58528080778E+02  0.36383065049E+03  0.37109718809E+03  0.00000000000E+00 0. -1.
         11    1    4    4    0    0 -0.26690563727E+02  0.19837795193E+01  0.24531872037E+02  0.36306119579E+02  0.00000000000E+00 0.  1.
         21    1    1    2  502  501  0.22404020956E+02  0.11996462448E+02  0.25835989094E+02  0.36240220732E+02  0.00000000000E+00 0.  1.
<scales pt_clust_5="13000.00000" pt_clust_6="13000.00000" pt_clust_7="13000.00000" pt_clust_8="13000.00000" pt_clust_9="25.41368"></scales>
<clustering>
<clus scale="   25.414">  2  9  1 -1</clus>
<clus scale="   81.690">  5  6 -1 -1</clus>
<clus scale="   83.616">  7  8 -1 -1</clus>
<clus scale="  117.637">  2  5  1 -1</clus>
<clus scale="  118.983">  1  5  2 -1</clus>
</clustering>
</event>
<event>
 9    1  0.1612788E-005  0.9509745E+02  0.7546771E-02  0.1292098E+00
          1   -1    0    0  502    0  0.00000000000E+00  0.00000000000E+00  0.20865993828E+03  0.20865993828E+03  0.00000000000E+00 0. -1.
         -1   -1    0    0    0  501 -0.00000000000E+00 -0.00000000000E+00 -0.73206294124E+02  0.73206294124E+02  0.00000000000E+00 0.  1.
         23    2    1    2    0    0  0.16112775729E+02  0.77014567059E+01  0.12175913682E+02  0.93656309972E+02  0.91128028326E+02 0.  0.
         23    2    1    2    0    0 -0.19463679086E+02  0.32600077599E+02  0.10788203541E+03  0.14493788011E+03  0.89032890905E+02 0.  0.
        -11    1    4    4    0    0  0.15765681862E+02  0.51074982022E+02  0.80554127566E+02  0.96675632819E+02  0.00000000000E+00 0. -1.
         11    1    4    4    0    0 -0.35229360948E+02 -0.18474904423E+02  0.27327907843E+02  0.48262247288E+02  0.00000000000E+00 0.  1.
        -11    1    3    3    0    0  0.41217488903E+02  0.83719280269E-01 -0.24961623149E+02  0.48186834619E+02  0.00000000000E+00 0.  1.
         11    1    3    3    0    0 -0.25104713174E+02  0.76177374256E+01  0.37137536831E+02  0.45469475353E+02  0.00000000000E+00 0. -1.
         21    1    1    2  502  501  0.33509033568E+01 -0.40301534305E+02  0.15395695069E+02  0.43272042329E+02  0.00000000000E+00 0.  1.
<scales pt_clust_5="13000.00000" pt_clust_6="13000.00000" pt_clust_7="13000.00000" pt_clust_8="13000.00000" pt_clust_9="40.44060"></scales>
<clustering>
<clus scale="   40.441">  2  9  1 -1</clus>
<clus scale="   89.033">  5  6 -1 -1</clus>
<clus scale="   91.128">  7  8 -1 -1</clus>
<clus scale="   93.092">  1  5  2 -1</clus>
<clus scale="   93.092">  1  5  2 -1</clus>
</clustering>
</event>
<event>
 9    1  0.1612788E-005  0.3572994E+03  0.7546771E-02  0.1099791E+00
         -1   -1    0    0    0  501 -0.00000000000E+00  0.00000000000E+00  0.22827059413E+03  0.22827059413E+03  0.00000000000E+00 0.  1.
          1   -1    0    0  502    0  0.00000000000E+00 -0.00000000000E+00 -0.12896817973E+04  0.12896817973E+04  0.00000000000E+00 0. -1.
         23    2    1    2    0    0 -0.86132654402E+02  0.38111513543E+03 -0.86920511761E+03  0.95734510693E+03  0.91238898917E+02 0.  0.
         23    2    1    2    0    0 -0.40497636698E+02 -0.68008459350E+02 -0.18704906649E+03  0.22282389814E+03  0.91640205068E+02 0.  0.
        -11    1    3    3    0    0 -0.24122611223E+02  0.27679492190E+03 -0.55890040550E+03  0.62415302004E+03  0.00000000000E+00 0. -1.
         11    1    3    3    0    0 -0.62010043179E+02  0.10432021353E+03 -0.31030471211E+03  0.33319208689E+03  0.00000000000E+00 0.  1.
        -13    1    4    4    0    0 -0.59059560707E+02 -0.47123512038E+02 -0.71778631513E+02  0.10421530137E+03  0.00000000000E+00 0. -1.
         13    1    4    4    0    0  0.18561924009E+02 -0.20884947312E+02 -0.11527043498E+03  0.11860859677E+03  0.00000000000E+00 0.  1.
         21    1    1    2  502  501  0.12663029110E+03 -0.31310667608E+03 -0.51570190234E+01  0.33778338632E+03  0.00000000000E+00 0.  1.
<scales pt_clust_5="13000.00000" pt_clust_6="13000.00000" pt_clust_7="13000.00000" pt_clust_8="13000.00000" pt_clust_9="345.45379"></scales>
<clustering>
<clus scale="   91.239">  5  6 -1 -1</clus>
<clus scale="   91.640">  7  8 -1 -1</clus>
<clus scale="  121.091">  2  7  1 -1</clus>
<clus scale="  345.454">  1  9  2 -1</clus>
<clus scale="  121.091">  2  5  1 -1</clus>
</clustering>
</event>
<event>
 9    1  0.1612788E-005  0.1653169E+03  0.7546771E-02  0.1183086E+00
          1   -1    0    0  502    0  0.00000000000E+00  0.00000000000E+00  0.10357417355E+03  0.10357417355E+03  0.00000000000E+00 0. -1.
         -1   -1    0    0    0  501 -0.00000000000E+00 -0.00000000000E+00 -0.44184980777E+03  0.44184980777E+03  0.00000000000E+00 0.  1.
         23    2    1    2    0    0  0.13432965948E+01  0.90792740757E+02 -0.20396343165E+03  0.24105123582E+03  0.90881739734E+02 0.  0.
         23    2    1    2    0    0 -0.17274828056E+02 -0.16393545402E+03 -0.54938422628E+02  0.19526790079E+03  0.89095847435E+02 0.  0.
        -11    1    3    3    0    0  0.74894272932E+01  0.33323549458E+02 -0.58158498758E+01  0.34646422318E+02  0.00000000000E+00 0. -1.
         11    1    3    3    0    0 -0.61461306984E+01  0.57469191298E+02 -0.19814758178E+03  0.20640481350E+03  0.00000000000E+00 0.  1.
        -13    1    4    4    0    0 -0.18164742300E+02 -0.13627205285E+03 -0.79029636583E+02  0.15857400073E+03  0.00000000000E+00 0. -1.
         13    1    4    4    0    0  0.88991424358E+00 -0.27663401173E+02  0.24091213955E+02  0.36693900061E+02  0.00000000000E+00 0.  1.
         21    1    1    2  502  501  0.15931531461E+02  0.73142713263E+02 -0.79373779932E+02  0.10910484471E+03  0.00000000000E+00 0. -1.
<scales pt_clust_5="13000.00000" pt_clust_6="13000.00000" pt_clust_7="13000.00000" pt_clust_8="13000.00000" pt_clust_9="74.85767"></scales>
<clustering>
<clus scale="   74.858">  2  9  1 -1</clus>
<clus scale="   89.096">  7  8 -1 -1</clus>
<clus scale="   90.882">  5  6 -1 -1</clus>
<clus scale="  164.342">  1  7  2 -1</clus>
<clus scale="  164.342">  1  5  2 -1</clus>
</clustering>
</event>
<event>
 9    1  0.1612788E-005  0.1499371E+03  0.7546771E-02  0.1201078E+00
          1   -1    0    0  502    0  0.00000000000E+00  0.00000000000E+00  0.53434418717E+03  0.53434418717E+03  0.00000000000E+00 0. -1.
         -1   -1    0    0    0  501 -0.00000000000E+00 -0.00000000000E+00 -0.78872296302E+02  0.78872296302E+02  0.00000000000E+00 0.  1.
         23    2    1    2    0    0  0.11888810260E+02  0.95247615416E+02  0.72135336579E+02  0.14962909479E+03  0.89285537305E+02 0.  0.
         23    2    1    2    0    0 -0.58105617702E+02 -0.11540889630E+03  0.38144368748E+03  0.41312895548E+03  0.92091101548E+02 0.  0.
        -11    1    3    3    0    0 -0.29042088342E+02  0.10072259280E+02  0.38625095676E+02  0.49363866525E+02  0.00000000000E+00 0. -1.
         11    1    3    3    0    0  0.40930898602E+02  0.85175356136E+02  0.33510240903E+02  0.10026522826E+03  0.00000000000E+00 0.  1.
        -13    1    4    4    0    0  0.14215706158E+02 -0.43024832189E+02  0.56327075012E+02  0.72290814533E+02  0.00000000000E+00 0.  1.
         13    1    4    4    0    0 -0.72321323860E+02 -0.72384064113E+02  0.32511661246E+03  0.34083814094E+03  0.00000000000E+00 0. -1.
         21    1    1    2  502  501  0.46216807442E+02  0.20161280886E+02  0.18928668152E+01  0.50458433209E+02  0.00000000000E+00 0.  1.
<scales pt_clust_5="13000.00000" pt_clust_6="13000.00000" pt_clust_7="13000.00000" pt_clust_8="13000.00000" pt_clust_9="50.42292"></scales>
<clustering>
<clus scale="   50.423">  2  9  1 -1</clus>
<clus scale="   89.286">  5  6 -1 -1</clus>
<clus scale="   92.091">  7  8 -1 -1</clus>
<clus scale="  148.230">  2  5  1 -1</clus>
<clus scale="  149.937">  1  5  2 -1</clus>
</clustering>
</event>
<event>
 9    1  0.1612788E-005  0.1207347E+03  0.7546771E-02  0.1246616E+00
          1   -1    0    0  502    0  0.00000000000E+00  0.00000000000E+00  0.30184650168E+03  0.30184650168E+03  0.00000000000E+00 0. -1.
         -1   -1    0    0    0  501 -0.00000000000E+00 -0.00000000000E+00 -0.43629764337E+03  0.43629764337E+03  0.00000000000E+00 0.  1.
         23    2    1    2    0    0  0.88954425999E+02 -0.12099103601E+02  0.11420339664E+03  0.17238091676E+03  0.92808870527E+02 0.  0.
         23    2    1    2    0    0 -0.44965407223E+02 -0.87685562301E+02  0.12455955817E+03  0.17694350767E+03  0.77995356865E+02 0.  0.
        -11    1    3    3    0    0  0.20585836773E+02  0.23389871159E+02 -0.38740637247E+01  0.31398584653E+02  0.00000000000E+00 0.  1.
         11    1    3    3    0    0  0.68368589225E+02 -0.35488974760E+02  0.11807746036E+03  0.14098233211E+03  0.00000000000E+00 0. -1.
        -11    1    4    4    0    0 -0.13335195559E+02 -0.68872458668E+02  0.12113552476E+03  0.13998235018E+03  0.00000000000E+00 0. -1.
         11    1    4    4    0    0 -0.31630211664E+02 -0.18813103633E+02  0.34240334115E+01  0.36961157490E+02  0.00000000000E+00 0.  1.
         21    1    1    2  502  501 -0.43989018776E+02  0.99784665902E+02 -0.37321409649E+03  0.38881972062E+03  0.00000000000E+00 0.  1.
<scales pt_clust_5="13000.00000" pt_clust_6="13000.00000" pt_clust_7="13000.00000" pt_clust_8="13000.00000" pt_clust_9="109.05051"></scales>
<clustering>
<clus scale="   77.995">  7  8 -1 -1</clus>
<clus scale="   92.809">  5  6 -1 -1</clus>
<clus scale="  109.051">  2  9  1 -1</clus>
<clus scale="  109.757">  1  7  2 -1</clus>
<clus scale="  109.757">  1  5  2 -1</clus>
</clustering>
</event>
<event>
 9    1  0.1612788E-005  0.1042399E+03  0.7546771E-02  0.1271811E+00
         -2   -1    0    0    0  501 -0.00000000000E+00  0.00000000000E+00  0.79853192945E+02  0.79853192945E+02  0.00000000000E+00 0.  1.
          2   -1    0    0  502    0  0.00000000000E+00 -0.00000000000E+00 -0.31856413676E+03  0.31856413676E+03  0.00000000000E+00 0. -1.
         23    2    1    2    0    0  0.49451563430E+02 -0.44034483700E+02 -0.38560776631E+01  0.11305647693E+03  0.91555473674E+02 0.  0.
         23    2    1    2    0    0 -0.31795983170E+02  0.34304469013E+02 -0.24293146302E+03  0.26364394423E+03  0.91129865936E+02 0.  0.
        -11    1    3    3    0    0  0.46240260271E+01 -0.62413663837E+02  0.82279460074E+01  0.63123261527E+02  0.00000000000E+00 0.  1.
         11    1    3    3    0    0  0.44827537402E+02  0.18379180137E+02 -0.12084023670E+02  0.49933215400E+02  0.00000000000E+00 0. -1.
        -13    1    4    4    0    0 -0.48630812225E+01  0.59690287078E+02 -0.18878854700E+03  0.19805982786E+03  0.00000000000E+00 0. -1.
         13    1    4    4    0    0 -0.26932901948E+02 -0.25385818065E+02 -0.54142916012E+02  0.65584116373E+02  0.00000000000E+00 0.  1.
         21    1    1    2  502  501 -0.17655580259E+02  0.97300146873E+01  0.80765968636E+01  0.21716908551E+02  0.00000000000E+00 0.  1.
<scales pt_clust_5="13000.00000" pt_clust_6="13000.00000" pt_clust_7="13000.00000" pt_clust_8="13000.00000" pt_clust_9="20.15918"></scales>
<clustering>
<clus scale="   20.159">  1  9  2 -1</clus>
<clus scale="   91.130">  7  8 -1 -1</clus>
<clus scale="   91.555">  5  6 -1 -1</clus>
<clus scale="  103.866">  2  7  1 -1</clus>
<clus scale="  103.866">  2  5  1 -1</clus>
</clustering>
</event>
<event>
 9    1  0.1612788E-005  0.1102228E+03  0.7546771E-02  0.1260872E+00
          1   -1    0    0  502    0  0.00000000000E+00  0.00000000000E+00  0.36033709135E+03  0.36033709135E+03  0.00000000000E+00 0. -1.
         -1   -1    0    0    0  501 -0.00000000000E+00 -0.00000000000E+00 -0.75255394881E+02  0.75255394881E+02  0.00000000000E+00 0.  1.
         23    2    1    2    0    0  0.37809000919E+01 -0.93244520758E+02  0.92460443313E+02  0.16020739455E+03  0.91698635947E+02 0.  0.
         23    2    1    2    0    0  0.45586911560E+02  0.34547083166E+02  0.15961173891E+03  0.19188540283E+03  0.89846720369E+02 0.  0.
        -11    1    3    3    0    0  0.35967121638E+02 -0.45137924124E+01  0.21786026277E+02  0.42292305468E+02  0.00000000000E+00 0. -1.
         11    1    3    3    0    0 -0.32186221547E+02 -0.88730728346E+02  0.70674417036E+02  0.11791508908E+03  0.00000000000E+00 0.  1.
        -11    1    4    4    0    0  0.93991273485E+01 -0.22322791523E+02  0.72565289207E+01  0.25284537335E+02  0.00000000000E+00 0.  1.
         11    1    4    4    0    0  0.36187784211E+02  0.56869874689E+02  0.15235520998E+03  0.16660086549E+03  0.00000000000E+00 0. -1.
         21    1    1    2  502  501 -0.49367811652E+02  0.58697437592E+02  0.33009514249E+02  0.83499688850E+02  0.00000000000E+00 0.  1.
<scales pt_clust_5="13000.00000" pt_clust_6="13000.00000" pt_clust_7="13000.00000" pt_clust_8="13000.00000" pt_clust_9="76.69791"></scales>
<clustering>
<clus scale="   76.698">  2  9  1 -1</clus>
<clus scale="   89.847">  7  8 -1 -1</clus>
<clus scale="   91.699">  5  6 -1 -1</clus>
<clus scale="  108.687">  1  7  2 -1</clus>
<clus scale="  108.687">  1  5  2 -1</clus>
</clustering>
</event>
<event>
 9    1  0.3813374E-005  0.9592379E+02  0.7546771E-02  0.1290270E+00
         -1   -1    0    0    0  501 -0.00000000000E+00  0.00000000000E+00  0.24107764644E+03  0.24107764644E+03  0.00000000000E+00 0.  1.
          1   -1    0    0  502    0  0.00000000000E+00 -0.00000000000E+00 -0.18636292159E+03  0.18636292159E+03  0.00000000000E+00 0. -1.
         23    2    1    2    0    0 -0.36650131297E+01 -0.11475686261E+00  0.18730929439E+03  0.20927600636E+03  0.93264299603E+02 0.  0.
         23    2    1    2    0    0 -0.11985172489E+02  0.20821316987E+02 -0.15662179343E+03  0.18279511964E+03  0.91139991142E+02 0.  0.
        -13    1    4    4    0    0  0.19577573004E+02  0.38881179955E+02 -0.35011794356E+02  0.55864597586E+02  0.00000000000E+00 0.  1.
         13    1    4    4    0    0 -0.31562745493E+02 -0.18059862968E+02 -0.12160999907E+03  0.12693052205E+03  0.00000000000E+00 0. -1.
        -13    1    3    3    0    0  0.32891062372E+02 -0.29775778692E+02  0.11195434070E+03  0.12042505297E+03  0.00000000000E+00 0.  1.
         13    1    3    3    0    0 -0.36556075502E+02  0.29661021830E+02  0.75354953693E+02  0.88850953390E+02  0.00000000000E+00 0. -1.
         21    1    1    2  502  501  0.15650185618E+02 -0.20706560124E+02  0.24027223894E+02  0.35369442039E+02  0.00000000000E+00 0.  1.
<scales pt_clust_5="13000.00000" pt_clust_6="13000.00000" pt_clust_7="13000.00000" pt_clust_8="13000.00000" pt_clust_9="25.95554"></scales>
<clustering>
<clus scale="   25.956">  1  9  2 -1</clus>
<clus scale="   91.140">  5  6 -1 -1</clus>
<clus scale="   93.264">  7  8 -1 -1</clus>
<clus scale="   93.860">  2  5  1 -1</clus>
<clus scale="   93.860">  2  5  1 -1</clus>
</clustering>
</event>
<event>
 9    1  0.1612788E-005  0.1275288E+03  0.7546771E-02  0.1232349E+00
          2   -1    0    0  502    0  0.00000000000E+00  0.00000000000E+00  0.10445517552E+04  0.10445517552E+04  0.00000000000E+00 0. -1.
         -2   -1    0    0    0  501 -0.00000000000E+00 -0.00000000000E+00 -0.35455284541E+02  0.35455284541E+02  0.00000000000E+00 0.  1.
         23    2    1    2    0    0  0.40712678076E+02 -0.61485361747E+02  0.25289365856E+03  0.27692315647E+03  0.85400586557E+02 0.  0.
         23    2    1    2    0    0 -0.44065132798E+02  0.88491517491E+02  0.76335180365E+03  0.77494708385E+03  0.89802683941E+02 0.  0.
        -13    1    3    3    0    0  0.41355152373E+02 -0.54789122061E+01  0.43922432206E+02  0.60575961879E+02  0.00000000000E+00 0.  1.
         13    1    3    3    0    0 -0.64247429678E+00 -0.56006449541E+02  0.20897122636E+03  0.21634719459E+03  0.00000000000E+00 0. -1.
        -13    1    4    4    0    0 -0.71861245647E+02  0.59649594259E+02  0.54819829111E+03  0.55609664546E+03  0.00000000000E+00 0. -1.
         13    1    4    4    0    0  0.27796112849E+02  0.28841923232E+02  0.21515351254E+03  0.21885043839E+03  0.00000000000E+00 0.  1.
         21    1    1    2  502  501  0.33524547223E+01 -0.27006155744E+02 -0.71489915565E+01  0.28136799410E+02  0.00000000000E+00 0.  1.
<scales pt_clust_5="13000.00000" pt_clust_6="13000.00000" pt_clust_7="13000.00000" pt_clust_8="13000.00000" pt_clust_9="27.21344"></scales>
<clustering>
<clus scale="   27.213">  2  9  1 -1</clus>
<clus scale="   85.401">  5  6 -1 -1</clus>
<clus scale="   89.803">  7  8 -1 -1</clus>
<clus scale="  124.468">  2  5  1 -1</clus>
<clus scale="  127.529">  1  5  2 -1</clus>
</clustering>
</event>
<event>
 9    1  0.1612788E-005  0.1177009E+03  0.7546771E-02  0.1247593E+00
         -1   -1    0    0    0  501 -0.00000000000E+00  0.00000000000E+00  0.31608401669E+03  0.31608401669E+03  0.00000000000E+00 0.  1.
          1   -1    0    0  502    0  0.00000000000E+00 -0.00000000000E+00 -0.16999883326E+03  0.16999883326E+03  0.00000000000E+00 0. -1.
         23    2    1    2    0    0  0.88067035973E+02  0.44678163592E+02 -0.49694728271E+02  0.14335416279E+03  0.91262855775E+02 0.  0.
         23    2    1    2    0    0 -0.52662476579E+02 -0.15180975115E+02 -0.32627236889E+02  0.10971926142E+03  0.89274751723E+02 0.  0.
        -11    1    3    3    0    0  0.88998948933E+02  0.67308890212E+02 -0.44394729526E+02  0.12009242950E+03  0.00000000000E+00 0. -1.
         11    1    3    3    0    0 -0.93191295971E+00 -0.22630726620E+02 -0.52999987456E+01  0.23261733293E+02  0.00000000000E+00 0.  1.
        -11    1    4    4    0    0  0.18622308687E+02  0.15154476157E+02  0.34567428063E+01  0.24256908279E+02  0.00000000000E+00 0. -1.
         11    1    4    4    0    0 -0.71284785266E+02 -0.30335451271E+02 -0.36083979695E+02  0.85462353144E+02  0.00000000000E+00 0.  1.
         21    1    1    2  502  501 -0.35404559394E+02 -0.29497188478E+02  0.22840714859E+03  0.23300942574E+03  0.00000000000E+00 0.  1.
<scales pt_clust_5="13000.00000" pt_clust_6="13000.00000" pt_clust_7="13000.00000" pt_clust_8="13000.00000" pt_clust_9="46.08218"></scales>
<clustering>
<clus scale="   46.082">  1  9  2 -1</clus>
<clus scale="   89.275">  7  8 -1 -1</clus>
<clus scale="   91.263">  5  6 -1 -1</clus>
<clus scale="  116.166">  2  7  1 -1</clus>
<clus scale="  116.166">  2  5  1 -1</clus>
</clustering>
</event>
<event>
 9    1  0.1612788E-005  0.1487913E+03  0.7546771E-02  0.1206856E+00
         -1   -1    0    0    0  501 -0.00000000000E+00  0.00000000000E+00  0.39160687010E+03  0.39160687010E+03  0.00000000000E+00 0.  1.
          1   -1    0    0  502    0  0.00000000000E+00 -0.00000000000E+00 -0.20374865392E+03  0.20374865392E+03  0.00000000000E+00 0. -1.
         23    2    1    2    0    0  0.10646396536E+03  0.17876003642E+02  0.28076882762E+03  0.32076473461E+03  0.11137662672E+03 0.  0.
         23    2    1    2    0    0 -0.90392096534E+02 -0.38171075278E+02 -0.15663278252E+03  0.20581063248E+03  0.90534113888E+02 0.  0.
        -11    1    4    4    0    0 -0.78676555645E+02 -0.57138525651E+02 -0.15561170073E+03  0.18349335935E+03  0.00000000000E+00 0. -1.
         11    1    4    4    0    0 -0.11715540889E+02  0.18967450374E+02 -0.10210817952E+01  0.22317273132E+02  0.00000000000E+00 0.  1.
        -13    1    3    3    0    0 -0.40445410998E+00  0.39885985784E+02  0.40314790548E+02  0.56712765600E+02  0.00000000000E+00 0. -1.
         13    1    3    3    0    0  0.10686841947E+03 -0.22009982141E+02  0.24045403707E+03  0.26405196901E+03  0.00000000000E+00 0.  1.
         21    1    1    2  502  501 -0.16071868827E+02  0.20295071635E+02  0.63722171081E+02  0.68780156931E+02  0.00000000000E+00 0.  1.
<scales pt_clust_5="13000.00000" pt_clust_6="13000.00000" pt_clust_7="13000.00000" pt_clust_8="13000.00000" pt_clust_9="25.88812"></scales>
<clustering>
<clus scale="   25.888">  1  9  2 -1</clus>
<clus scale="   90.534">  5  6 -1 -1</clus>
<clus scale="  111.377">  7  8 -1 -1</clus>
<clus scale="  133.905">  2  5  1 -1</clus>
<clus scale="  133.905">  2  5  1 -1</clus>
</clustering>
</event>
<event>
 9    1  0.1612788E-005  0.1187069E+03  0.7546771E-02  0.1247239E+00
         -1   -1    0    0    0  501 -0.00000000000E+00  0.00000000000E+00  0.60575401400E+02  0.60575401400E+02  0.00000000000E+00 0.  1.
          1   -1    0    0  502    0  0.00000000000E+00 -0.00000000000E+00 -0.41148487364E+03  0.41148487364E+03  0.00000000000E+00 0. -1.
         23    2    1    2    0    0  0.10765438447E+03  0.41918180460E+00 -0.11735481166E+03  0.18439947139E+03  0.92958974924E+02 0.  0.
         23    2    1    2    0    0 -0.59404706487E+02 -0.15070022875E+02 -0.20168016397E+03  0.22800628074E+03  0.86924972105E+02 0.  0.
        -11    1    3    3    0    0  0.95598391064E+02 -0.37192681524E+02 -0.80747601258E+02  0.13054701468E+03  0.00000000000E+00 0.  1.
         11    1    3    3    0    0  0.12055993410E+02  0.37611863329E+02 -0.36607210398E+02  0.53852456706E+02  0.00000000000E+00 0. -1.
        -11    1    4    4    0    0 -0.15505723880E+02 -0.33407324714E+02 -0.23746112772E+02  0.43821851734E+02  0.00000000000E+00 0.  1.
         11    1    4    4    0    0 -0.43898982607E+02  0.18337301839E+02 -0.17793405119E+03  0.18418442900E+03  0.00000000000E+00 0. -1.
         21    1    1    2  502  501 -0.48249677987E+02  0.14650841070E+02 -0.31874496621E+02  0.59654522919E+02  0.00000000000E+00 0.  1.
<scales pt_clust_5="13000.00000" pt_clust_6="13000.00000" pt_clust_7="13000.00000" pt_clust_8="13000.00000" pt_clust_9="50.42498"></scales>
<clustering>
<clus scale="   50.425">  1  9  2 -1</clus>
<clus scale="   86.925">  7  8 -1 -1</clus>
<clus scale="   92.959">  5  6 -1 -1</clus>
<clus scale="  114.043">  2  7  1 -1</clus>
<clus scale="  114.043">  2  5  1 -1</clus>
</clustering>
</event>
<event>
 9    1  0.1612788E-005  0.1470340E+03  0.7546771E-02  0.1206204E+00
         -1   -1    0    0    0  501 -0.00000000000E+00  0.00000000000E+00  0.10530544157E+03  0.10530544157E+03  0.00000000000E+00 0.  1.
          1   -1    0    0  502    0  0.00000000000E+00 -0.00000000000E+00 -0.24329787934E+03  0.24329787934E+03  0.00000000000E+00 0. -1.
         23    2    1    2    0    0 -0.92114219162E+00 -0.91182533734E+02 -0.79581315795E+02  0.17122748006E+03  0.12112209188E+03 0.  0.
         23    2    1    2    0    0 -0.13947082938E+02  0.75615075443E+02 -0.68999902660E+02  0.15338558965E+03  0.11337544615E+03 0.  0.
        -13    1    4    4    0    0  0.50052283411E+02  0.36935760378E+02 -0.31967132973E+02  0.69938394747E+02  0.00000000000E+00 0. -1.
         13    1    4    4    0    0 -0.63999366349E+02  0.38679315065E+02 -0.37032769687E+02  0.83447194906E+02  0.00000000000E+00 0.  1.
        -13    1    3    3    0    0 -0.30696997875E+02 -0.10649916434E+03 -0.36555747361E+02  0.11670775616E+03  0.00000000000E+00 0.  1.
         13    1    3    3    0    0  0.29775855683E+02  0.15316630604E+02 -0.43025568434E+02  0.54519723897E+02  0.00000000000E+00 0. -1.
         21    1    1    2  502  501  0.14868225130E+02  0.15567458290E+02  0.10588780680E+02  0.23990251195E+02  0.00000000000E+00 0. -1.
<scales pt_clust_5="13000.00000" pt_clust_6="13000.00000" pt_clust_7="13000.00000" pt_clust_8="13000.00000" pt_clust_9="21.52696"></scales>
<clustering>
<clus scale="   21.527">  1  9  2 -1</clus>
<clus scale="  113.375">  5  6 -1 -1</clus>
<clus scale="  121.122">  7  8 -1 -1</clus>
<clus scale="  140.721">  2  5  1 -1</clus>
<clus scale="  140.721">  2  5  1 -1</clus>
</clustering>
</event>
<event>
 9    1  0.1612788E-005  0.1446736E+03  0.7546771E-02  0.1212366E+00
         -3   -1    0    0    0  501 -0.00000000000E+00  0.00000000000E+00  0.19222450944E+03  0.19222450944E+03  0.00000000000E+00 0.  1.
          3   -1    0    0  502    0  0.00000000000E+00 -0.00000000000E+00 -0.20161603468E+03  0.20161603468E+03  0.00000000000E+00 0. -1.
         23    2    1    2    0    0  0.43842769222E+02  0.52080988377E+02  0.37002444435E+02  0.12059103297E+03  0.92403455434E+02 0.  0.
         23    2    1    2    0    0 -0.33730108494E+02 -0.97760281223E+02 -0.11418749453E+03  0.19087945765E+03  0.11270044651E+03 0.  0.
        -11    1    4    4    0    0 -0.44541951983E+02 -0.27859323661E+02  0.44835538493E+01  0.52727883102E+02  0.00000000000E+00 0.  1.
         11    1    4    4    0    0  0.10811843489E+02 -0.69900957562E+02 -0.11867104838E+03  0.13815157455E+03  0.00000000000E+00 0. -1.
        -13    1    3    3    0    0  0.23274792984E+02 -0.21732252270E+02 -0.64681719178E+01  0.32493753632E+02  0.00000000000E+00 0.  1.
         13    1    3    3    0    0  0.20567976238E+02  0.73813240646E+02  0.43470616352E+02  0.88097279341E+02  0.00000000000E+00 0. -1.
         21    1    1    2  502  501 -0.10112660728E+02  0.45679292846E+02  0.67793524855E+02  0.82370053503E+02  0.00000000000E+00 0.  1.
<scales pt_clust_5="13000.00000" pt_clust_6="13000.00000" pt_clust_7="13000.00000" pt_clust_8="13000.00000" pt_clust_9="46.78529"></scales>
<clustering>
<clus scale="   46.785">  1  9  2 -1</clus>
<clus scale="   92.403">  7  8 -1 -1</clus>
<clus scale="  112.700">  5  6 -1 -1</clus>
<clus scale="  129.489">  1  7  2 -1</clus>
<clus scale="  144.674">  2  5  1 -1</clus>
</clustering>
</event>
<event>
 9    1  0.1612788E-005  0.1049643E+03  0.7546771E-02  0.1270412E+00
         -2   -1    0    0    0  501 -0.00000000000E+00  0.00000000000E+00  0.24883580148E+03  0.24883580148E+03  0.00000000000E+00 0.  1.
          2   -1    0    0  502    0  0.00000000000E+00 -0.00000000000E+00 -0.11944832185E+03  0.11944832185E+03  0.00000000000E+00 0. -1.
         23    2    1    2    0    0 -0.50138309216E+01 -0.53716273954E+02  0.16907983001E+03  0.19986261239E+03  0.91904832988E+02 0.  0.
         23    2    1    2    0    0  0.40641336785E+02  0.31679958877E+02 -0.60244875710E+02  0.12175969943E+03  0.92415590164E+02 0.  0.
        -11    1    4    4    0    0 -0.22951349160E+02  0.16700922297E+02 -0.47290112199E+02  0.55154691057E+02  0.00000000000E+00 0.  1.
         11    1    4    4    0    0  0.63592685945E+02  0.14979036580E+02 -0.12954763512E+02  0.66605008371E+02  0.00000000000E+00 0. -1.
        -13    1    3    3    0    0  0.24900193726E+02 -0.68662332040E+02  0.11207785818E+03  0.13377586398E+03  0.00000000000E+00 0.  1.
         13    1    3    3    0    0 -0.29914024648E+02  0.14946058086E+02  0.57001971835E+02  0.66086748415E+02  0.00000000000E+00 0. -1.
         21    1    1    2  502  501 -0.35627505863E+02  0.22036315076E+02  0.20552525324E+02  0.46661811510E+02  0.00000000000E+00 0. -1.
<scales pt_clust_5="13000.00000" pt_clust_6="13000.00000" pt_clust_7="13000.00000" pt_clust_8="13000.00000" pt_clust_9="41.89175"></scales>
<clustering>
<clus scale="   41.892">  1  9  2 -1</clus>
<clus scale="   91.905">  7  8 -1 -1</clus>
<clus scale="   92.416">  5  6 -1 -1</clus>
<clus scale="  104.515">  1  7  2 -1</clus>
<clus scale="  104.964">  2  5  1 -1</clus>
</clustering>
</event>
<event>
 9    1  0.1612788E-005  0.1105399E+03  0.7546771E-02  0.1262471E+00
         -1   -1    0    0    0  501 -0.00000000000E+00  0.00000000000E+00  0.52778256136E+02  0.52778256136E+02  0.00000000000E+00 0.  1.
          1   -1    0    0  502    0  0.00000000000E+00 -0.00000000000E+00 -0.32026557875E+03  0.32026557875E+03  0.00000000000E+00 0. -1.
         23    2    1    2    0    0 -0.46575242287E+02  0.26607246061E+02 -0.61374654723E+02  0.12915167751E+03  0.10018038143E+03 0.  0.
         23    2    1    2    0    0  0.27680395700E+02 -0.35658434958E+02 -0.19318582986E+03  0.21927422916E+03  0.93395366203E+02 0.  0.
        -11    1    4    4    0    0 -0.15562787190E+02 -0.20024870526E+02 -0.53859063701E+01  0.25926892836E+02  0.00000000000E+00 0.  1.
         11    1    4    4    0    0  0.43243182890E+02 -0.15633564433E+02 -0.18779992349E+03  0.19334733633E+03  0.00000000000E+00 0. -1.
        -11    1    3    3    0    0  0.11393761819E+01  0.47517059156E+02 -0.60644456308E+02  0.77051406021E+02  0.00000000000E+00 0. -1.
         11    1    3    3    0    0 -0.47714618468E+02 -0.20909813095E+02 -0.73019841492E+00  0.52100271487E+02  0.00000000000E+00 0.  1.
         21    1    1    2  502  501  0.18894846586E+02  0.90511888971E+01 -0.12926838031E+02  0.24617928212E+02  0.00000000000E+00 0.  1.
<scales pt_clust_5="13000.00000" pt_clust_6="13000.00000" pt_clust_7="13000.00000" pt_clust_8="13000.00000" pt_clust_9="20.95088"></scales>
<clustering>
<clus scale="   20.951">  1  9  2 -1</clus>
<clus scale="   93.395">  5  6 -1 -1</clus>
<clus scale="  100.180">  7  8 -1 -1</clus>
<clus scale="  104.430">  2  5  1 -1</clus>
<clus scale="  104.430">  2  5  1 -1</clus>
</clustering>
</event>
<event>
 9    1  0.3271463E-005  0.9790166E+02  0.7546771E-02  0.1285026E+00
         -1   -1    0    0    0  501 -0.00000000000E+00  0.00000000000E+00  0.52389082968E+03  0.52389082968E+03  0.00000000000E+00 0.  1.
          1   -1    0    0  502    0  0.00000000000E+00 -0.00000000000E+00 -0.13955905747E+03  0.13955905747E+03  0.00000000000E+00 0. -1.
         23    2    1    2    0    0 -0.65598873167E+01  0.11610011362E+02  0.33272061172E+03  0.34499980242E+03  0.90244300186E+02 0.  0.
         23    2    1    2    0    0 -0.13447206099E+02 -0.35813058738E+02 -0.11356261780E+03  0.15031785010E+03  0.90750126003E+02 0.  0.
        -11    1    4    4    0    0  0.13331086185E+02 -0.44732488604E+02 -0.16937363468E+02  0.49654684339E+02  0.00000000000E+00 0.  1.
         11    1    4    4    0    0 -0.26778292283E+02  0.89194298659E+01 -0.96625254330E+02  0.10066316576E+03  0.00000000000E+00 0. -1.
        -13    1    3    3    0    0  0.40088734876E+02  0.67017411370E+01  0.20374356376E+03  0.20775817619E+03  0.00000000000E+00 0.  1.
         13    1    3    3    0    0 -0.46648622192E+02  0.49082702250E+01  0.12897704796E+03  0.13724162623E+03  0.00000000000E+00 0. -1.
         21    1    1    2  502  501  0.20007093415E+02  0.24203047376E+02  0.16517377829E+03  0.16813223463E+03  0.00000000000E+00 0.  1.
<scales pt_clust_5="13000.00000" pt_clust_6="13000.00000" pt_clust_7="13000.00000" pt_clust_8="13000.00000" pt_clust_9="31.40177"></scales>
<clustering>
<clus scale="   31.402">  1  9  2 -1</clus>
<clus scale="   90.244">  7  8 -1 -1</clus>
<clus scale="   90.750">  5  6 -1 -1</clus>
<clus scale="   97.433">  1  7  2 -1</clus>
<clus scale="   97.902">  2  5  1 -1</clus>
</clustering>
</event>
<event>
 9    1  0.1612788E-005  0.1340440E+03  0.7546771E-02  0.1231150E+00
         -1   -1    0    0    0  501 -0.00000000000E+00  0.00000000000E+00  0.46630070841E+02  0.46630070841E+02  0.00000000000E+00 0.  1.
          1   -1    0    0  502    0  0.00000000000E+00 -0.00000000000E+00 -0.55468275918E+03  0.55468275918E+03  0.00000000000E+00 0. -1.
         23    2    1    2    0    0  0.69293219066E+02 -0.12331063874E+02 -0.14895201404E+03  0.20375198994E+03  0.11989397639E+03 0.  0.
         23    2    1    2    0    0 -0.54358453649E+02 -0.24021433208E+02 -0.33252658493E+03  0.35011894416E+03  0.92073202608E+02 0.  0.
        -13    1    3    3    0    0  0.98162725229E+02 -0.32523666888E+02 -0.10429699509E+03  0.14687264115E+03  0.00000000000E+00 0.  1.
         13    1    3    3    0    0 -0.28869506163E+02  0.20192603013E+02 -0.44655018946E+02  0.56879348797E+02  0.00000000000E+00 0. -1.
        -13    1    4    4    0    0 -0.78813371767E+02 -0.65663281594E+01 -0.22610141200E+03  0.23953394904E+03  0.00000000000E+00 0. -1.
         13    1    4    4    0    0  0.24454918118E+02 -0.17455105048E+02 -0.10642517294E+03  0.11058499513E+03  0.00000000000E+00 0.  1.
         21    1    1    2  502  501 -0.14934765418E+02  0.36352497082E+02 -0.26574089369E+02  0.47441895915E+02  0.00000000000E+00 0.  1.
<scales pt_clust_5="13000.00000" pt_clust_6="13000.00000" pt_clust_7="13000.00000" pt_clust_8="13000.00000" pt_clust_9="39.30078"></scales>
<clustering>
<clus scale="   39.301">  1  9  2 -1</clus>
<clus scale="   92.073">  7  8 -1 -1</clus>
<clus scale="  109.867">  2  7  1 -1</clus>
<clus scale="  119.894">  5  6 -1 -1</clus>
<clus scale="  109.867">  2  5  1 -1</clus>
</clustering>
</event>
<event>
 9    1  0.1612788E-005  0.9882206E+02  0.7546771E-02  0.1284257E+00
         -1   -1    0    0    0  501 -0.00000000000E+00  0.00000000000E+00  0.52116019913E+02  0.52116019913E+02  0.00000000000E+00 0.  1.
          1   -1    0    0  502    0  0.00000000000E+00 -0.00000000000E+00 -0.46731398420E+03  0.46731398420E+03  0.00000000000E+00 0. -1.
         23    2    1    2    0    0 -0.16782136041E+02  0.14663846196E+02 -0.17979085883E+03  0.20358098436E+03  0.92864394681E+02 0.  0.
         23    2    1    2    0    0  0.46948456306E+01 -0.46523609846E+02 -0.25646893111E+03  0.27578971835E+03  0.89984266819E+02 0.  0.
        -11    1    3    3    0    0  0.16918545273E+02  0.41930186711E+02 -0.12960202032E+03  0.13726274587E+03  0.00000000000E+00 0.  1.
         11    1    3    3    0    0 -0.33700681315E+02 -0.27266340515E+02 -0.50188838512E+02  0.66318238497E+02  0.00000000000E+00 0. -1.
        -13    1    4    4    0    0 -0.32835561176E+02 -0.51702112581E+02 -0.12885215344E+03  0.14266800612E+03  0.00000000000E+00 0. -1.
         13    1    4    4    0    0  0.37530406806E+02  0.51785027341E+01 -0.12761677767E+03  0.13312171223E+03  0.00000000000E+00 0.  1.
         21    1    1    2  502  501  0.12087290411E+02  0.31859763651E+02  0.21061825649E+02  0.40059301404E+02  0.00000000000E+00 0.  1.
<scales pt_clust_5="13000.00000" pt_clust_6="13000.00000" pt_clust_7="13000.00000" pt_clust_8="13000.00000" pt_clust_9="34.07561"></scales>
<clustering>
<clus scale="   34.076">  1  9  2 -1</clus>
<clus scale="   89.984">  7  8 -1 -1</clus>
<clus scale="   92.864">  5  6 -1 -1</clus>
<clus scale="   96.121">  2  7  1 -1</clus>
<clus scale="   96.121">  2  5  1 -1</clus>
</clustering>
</event>
<event>
 9    1  0.1612788E-005  0.9384527E+02  0.7546771E-02  0.1293851E+00
          1   -1    0    0  502    0  0.00000000000E+00  0.00000000000E+00  0.78031113535E+02  0.78031113535E+02  0.00000000000E+00 0. -1.
         -1   -1    0    0    0  501 -0.00000000000E+00 -0.00000000000E+00 -0.17757617995E+03  0.17757617995E+03  0.00000000000E+00 0.  1.
         23    2    1    2    0    0 -0.29696419921E+01 -0.10710795420E+02 -0.60661992429E+02  0.10958596560E+03  0.90585134650E+02 0.  0.
         23    2    1    2    0    0 -0.17282177208E+02  0.28161840517E+02  0.27417415635E+01  0.96551130536E+02  0.90679880627E+02 0.  0.
        -13    1    3    3    0    0 -0.41775882517E+02 -0.25325442155E+02 -0.24922961029E+02  0.54843015662E+02  0.00000000000E+00 0.  1.
         13    1    3    3    0    0  0.38806240525E+02  0.14614646735E+02 -0.35739031400E+02  0.54742949941E+02  0.00000000000E+00 0. -1.
        -13    1    4    4    0    0 -0.46880050010E+02  0.27249975290E+02 -0.21450664050E+02  0.58313216602E+02  0.00000000000E+00 0.  1.
         13    1    4    4    0    0  0.29597872802E+02  0.91186522660E+00  0.24192405614E+02  0.38237913933E+02  0.00000000000E+00 0. -1.
         21    1    1    2  502  501  0.20251819200E+02 -0.17451045097E+02 -0.41624815545E+02  0.49470197342E+02  0.00000000000E+00 0.  1.
<scales pt_clust_5="13000.00000" pt_clust_6="13000.00000" pt_clust_7="13000.00000" pt_clust_8="13000.00000" pt_clust_9="26.73341"></scales>
<clustering>
<clus scale="   26.733">  2  9  1 -1</clus>
<clus scale="   90.585">  5  6 -1 -1</clus>
<clus scale="   90.680">  7  8 -1 -1</clus>
<clus scale="   93.754">  2  5  1 -1</clus>
<clus scale="   93.845">  1  5  2 -1</clus>
</clustering>
</event>
<event>
 9    1  0.1612788E-005  0.1357450E+03  0.7546771E-02  0.1219235E+00
         -2   -1    0    0    0  501 -0.00000000000E+00  0.00000000000E+00  0.98265906518E+02  0.98265906518E+02  0.00000000000E+00 0.  1.
          2   -1    0    0  502    0  0.00000000000E+00 -0.00000000000E+00 -0.25161100285E+03  0.25161100285E+03  0.00000000000E+00 0. -1.
         23    2    1    2    0    0  0.26559175325E+02 -0.93081671020E+02 -0.74322592090E+02  0.15210739360E+03  0.90792203515E+02 0.  0.
         23    2    1    2    0    0 -0.59683428057E+01  0.10536404236E+03 -0.95243453811E+02  0.16882200751E+03  0.91062353284E+02 0.  0.
        -11    1    4    4    0    0 -0.39068671477E+02  0.90216361333E+02 -0.48639943428E+02  0.10968681343E+03  0.00000000000E+00 0.  1.
         11    1    4    4    0    0  0.33100328671E+02  0.15147681030E+02 -0.46603510384E+02  0.59135194080E+02  0.00000000000E+00 0. -1.
        -11    1    3    3    0    0 -0.31248352414E+02 -0.27465395061E+02 -0.41328719508E+02  0.58641883587E+02  0.00000000000E+00 0.  1.
         11    1    3    3    0    0  0.57807527740E+02 -0.65616275959E+02 -0.32993872582E+02  0.93465510013E+02  0.00000000000E+00 0. -1.
         21    1    1    2  502  501 -0.20590832520E+02 -0.12282371343E+02  0.16220949569E+02  0.28947508262E+02  0.00000000000E+00 0.  1.
<scales pt_clust_5="13000.00000" pt_clust_6="13000.00000" pt_clust_7="13000.00000" pt_clust_8="13000.00000" pt_clust_9="23.97580"></scales>
<clustering>
<clus scale="   23.976">  1  9  2 -1</clus>
<clus scale="   90.792">  7  8 -1 -1</clus>
<clus scale="   91.062">  5  6 -1 -1</clus>
<clus scale="  135.564">  1  7  2 -1</clus>
<clus scale="  135.745">  2  5  1 -1</clus>
</clustering>
</event>
<event>
 9    1  0.1612788E-005  0.1002786E+03  0.7546771E-02  0.1284245E+00
          3   -1    0    0  502    0  0.00000000000E+00  0.00000000000E+00  0.11616313757E+03  0.11616313757E+03  0.00000000000E+00 0. -1.
         -3   -1    0    0    0  501 -0.00000000000E+00 -0.00000000000E+00 -0.14989300193E+03  0.14989300193E+03  0.00000000000E+00 0.  1.
         23    2    1    2    0    0 -0.17943029992E+02  0.23382557224E+01  0.64782675679E+01  0.93170988440E+02  0.91167128786E+02 0.  0.
         23    2    1    2    0    0 -0.13354795742E+02 -0.22161750387E+02  0.17518823484E+02  0.10429268633E+03  0.99501565296E+02 0.  0.
        -11    1    4    4    0    0  0.26787297389E+02 -0.12304755674E+01 -0.28919585574E+02  0.39438760139E+02  0.00000000000E+00 0.  1.
         11    1    4    4    0    0 -0.40142093132E+02 -0.20931274819E+02  0.46438409058E+02  0.64853926191E+02  0.00000000000E+00 0. -1.
        -11    1    3    3    0    0 -0.42077269084E+02 -0.27999729238E+02  0.16433613499E+02  0.53146449210E+02  0.00000000000E+00 0. -1.
         11    1    3    3    0    0  0.24134239092E+02  0.30337984960E+02 -0.99553459308E+01  0.40024539230E+02  0.00000000000E+00 0.  1.
         21    1    1    2  502  501  0.31297825735E+02  0.19823494664E+02 -0.57726955410E+02  0.68592464727E+02  0.00000000000E+00 0. -1.
<scales pt_clust_5="13000.00000" pt_clust_6="13000.00000" pt_clust_7="13000.00000" pt_clust_8="13000.00000" pt_clust_9="37.04760"></scales>
<clustering>
<clus scale="   37.048">  2  9  1 -1</clus>
<clus scale="   91.167">  7  8 -1 -1</clus>
<clus scale="   92.015">  2  7  1 -1</clus>
<clus scale="   99.502">  5  6 -1 -1</clus>
<clus scale="  100.279">  1  5  2 -1</clus>
</clustering>
</event>
<event>
 9    1  0.1612788E-005  0.1053659E+03  0.7546771E-02  0.1269657E+00
          2   -1    0    0  502    0  0.00000000000E+00  0.00000000000E+00  0.88559438249E+02  0.88559438249E+02  0.00000000000E+00 0. -1.
         -2   -1    0    0    0  501 -0.00000000000E+00 -0.00000000000E+00 -0.37575862308E+03  0.37575862308E+03  0.00000000000E+00 0.  1.
         23    2    1    2    0    0 -0.28748566486E+01 -0.63884513282E+02 -0.12034201105E+03  0.16337476303E+03  0.90108921495E+02 0.  0.
         23    2    1    2    0    0 -0.43123099790E+02  0.37967419216E+02  0.18732173141E+02  0.10799016033E+03  0.89497786344E+02 0.  0.
        -11    1    4    4    0    0  0.60387182338E+01  0.46408669338E+02  0.31608044067E+02  0.56473880311E+02  0.00000000000E+00 0.  1.
         11    1    4    4    0    0 -0.49161818024E+02 -0.84412501226E+01 -0.12875870926E+02  0.51516280020E+02  0.00000000000E+00 0. -1.
        -11    1    3    3    0    0  0.25864612933E+02 -0.71363679701E+02 -0.62386776098E+02  0.98254072763E+02  0.00000000000E+00 0. -1.
         11    1    3    3    0    0 -0.28739469581E+02  0.74791664198E+01 -0.57955234955E+02  0.65120690267E+02  0.00000000000E+00 0.  1.
         21    1    1    2  502  501  0.45997956439E+02  0.25917094066E+02 -0.18558934692E+03  0.19295313797E+03  0.00000000000E+00 0.  1.
<scales pt_clust_5="13000.00000" pt_clust_6="13000.00000" pt_clust_7="13000.00000" pt_clust_8="13000.00000" pt_clust_9="52.79685"></scales>
<clustering>
<clus scale="   52.797">  2  9  1 -1</clus>
<clus scale="   89.498">  5  6 -1 -1</clus>
<clus scale="   90.109">  7  8 -1 -1</clus>
<clus scale="  104.844">  1  5  2 -1</clus>
<clus scale="  104.844">  1  5  2 -1</clus>
</clustering>
</event>
<event>
 9    1  0.1612788E-005  0.1749400E+03  0.7546771E-02  0.1174694E+00
          1   -1    0    0  502    0  0.00000000000E+00  0.00000000000E+00  0.52158575690E+02  0.52158575690E+02  0.00000000000E+00 0. -1.
         -1   -1    0    0    0  501 -0.00000000000E+00 -0.00000000000E+00 -0.80760320944E+03  0.80760320944E+03  0.00000000000E+00 0.  1.
         23    2    1    2    0    0 -0.14996129029E+03 -0.26096525940E+01 -0.41955841873E+03  0.45453031401E+03  0.89851771001E+02 0.  0.
         23    2    1    2    0    0  0.14791096449E+03 -0.33152047308E+02 -0.18641617376E+03  0.25152917365E+03  0.74425961178E+02 0.  0.
        -11    1    4    4    0    0  0.14058288366E+03 -0.72266018762E+01 -0.14475045553E+03  0.20191202373E+03  0.00000000000E+00 0. -1.
         11    1    4    4    0    0  0.73280808344E+01 -0.25925445432E+02 -0.41665718237E+02  0.49617149915E+02  0.00000000000E+00 0.  1.
        -13    1    3    3    0    0 -0.99674742625E+02 -0.44186089068E+02 -0.24453485758E+03  0.26774010039E+03  0.00000000000E+00 0.  1.
         13    1    3    3    0    0 -0.50286547665E+02  0.41576436474E+02 -0.17502356115E+03  0.18679021362E+03  0.00000000000E+00 0. -1.
         21    1    1    2  502  501  0.20503257966E+01  0.35761699902E+02 -0.14947004125E+03  0.15370229747E+03  0.00000000000E+00 0. -1.
<scales pt_clust_5="13000.00000" pt_clust_6="13000.00000" pt_clust_7="13000.00000" pt_clust_8="13000.00000" pt_clust_9="35.82043"></scales>
<clustering>
<clus scale="   35.820">  2  9  1 -1</clus>
<clus scale="   74.426">  5  6 -1 -1</clus>
<clus scale="   89.852">  7  8 -1 -1</clus>
<clus scale="  167.541">  1  5  2 -1</clus>
<clus scale="  167.541">  1  5  2 -1</clus>
</clustering>
</event>
<event>
 9    1  0.1612788E-005  0.4139536E+03  0.7546771E-02  0.1039058E+00
          1   -1    0    0  502    0  0.00000000000E+00  0.00000000000E+00  0.68872253050E+03  0.68872253050E+03  0.00000000000E+00 0. -1.
         -1   -1    0    0    0  501 -0.00000000000E+00 -0.00000000000E+00 -0.45185934884E+03  0.45185934884E+03  0.00000000000E+00 0.  1.
         23    2    1    2    0    0  0.35268194018E+02  0.31227837499E+03 -0.15641243213E+03  0.36268643068E+03  0.91186452266E+02 0.  0.
         23    2    1    2    0    0  0.94154938633E+02 -0.43473958108E+03  0.39182729638E+03  0.59971241949E+03  0.90899395340E+02 0.  0.
        -11    1    4    4    0    0  0.57130971044E+02 -0.14190395239E+03  0.89697043764E+02  0.17733087497E+03  0.00000000000E+00 0.  1.
         11    1    4    4    0    0  0.37023967589E+02 -0.29283562869E+03  0.30213025262E+03  0.42238154452E+03  0.00000000000E+00 0. -1.
        -13    1    3    3    0    0  0.62829374405E+02  0.15906818030E+03 -0.71572837721E+02  0.18539926475E+03  0.00000000000E+00 0.  1.
         13    1    3    3    0    0 -0.27561180387E+02  0.15321019469E+03 -0.84839594412E+02  0.17728716593E+03  0.00000000000E+00 0. -1.
         21    1    1    2  502  501 -0.12942313265E+03  0.12246120609E+03  0.14483174149E+01  0.17818302917E+03  0.00000000000E+00 0.  1.
<scales pt_clust_5="13000.00000" pt_clust_6="13000.00000" pt_clust_7="13000.00000" pt_clust_8="13000.00000" pt_clust_9="178.17714"></scales>
<clustering>
<clus scale="   90.899">  5  6 -1 -1</clus>
<clus scale="   91.186">  7  8 -1 -1</clus>
<clus scale="  178.177">  2  9  1 -1</clus>
<clus scale="  413.890">  1  5  2 -1</clus>
<clus scale="  413.890">  1  5  2 -1</clus>
</clustering>
</event>
<event>
 9    1  0.1612788E-005  0.9615677E+02  0.7546771E-02  0.1289848E+00
          3   -1    0    0  502    0  0.00000000000E+00  0.00000000000E+00  0.18311841732E+03  0.18311841732E+03  0.00000000000E+00 0. -1.
         -3   -1    0    0    0  501 -0.00000000000E+00 -0.00000000000E+00 -0.84207781206E+02  0.84207781206E+02  0.00000000000E+00 0.  1.
         23    2    1    2    0    0  0.20413370383E+01  0.70269282762E+00  0.35675420875E+02  0.99919513800E+02  0.93308696001E+02 0.  0.
         23    2    1    2    0    0  0.18772201952E+02 -0.28279064394E+01  0.90542740405E+02  0.13300580002E+03  0.95562348115E+02 0.  0.
        -11    1    3    3    0    0  0.33657431587E+02 -0.30761175790E+02  0.51871759384E+01  0.45890951518E+02  0.00000000000E+00 0.  1.
         11    1    3    3    0    0 -0.31616094549E+02  0.31463868618E+02  0.30488244936E+02  0.54028562282E+02  0.00000000000E+00 0. -1.
        -13    1    4    4    0    0  0.56645612458E+02 -0.85010649550E+01  0.66588392333E+02  0.87835115470E+02  0.00000000000E+00 0. -1.
         13    1    4    4    0    0 -0.37873410506E+02  0.56731585156E+01  0.23954348072E+02  0.45170684548E+02  0.00000000000E+00 0.  1.
         21    1    1    2  502  501 -0.20813538990E+02  0.21252136118E+01 -0.27307525165E+02  0.34400884710E+02  0.00000000000E+00 0.  1.
<scales pt_clust_5="13000.00000" pt_clust_6="13000.00000" pt_clust_7="13000.00000" pt_clust_8="13000.00000" pt_clust_9="20.92176"></scales>
<clustering>
<clus scale="   20.922">  2  9  1 -1</clus>
<clus scale="   93.309">  5  6 -1 -1</clus>
<clus scale="   93.917">  2  5  1 -1</clus>
<clus scale="   95.562">  7  8 -1 -1</clus>
<clus scale="   96.157">  1  5  2 -1</clus>
</clustering>
</event>
<event>
 9    1  0.1612788E-005  0.1074150E+03  0.7546771E-02  0.1271365E+00
          1   -1    0    0  502    0  0.00000000000E+00  0.00000000000E+00  0.25119090384E+03  0.25119090384E+03  0.00000000000E+00 0. -1.
         -1   -1    0    0    0  501 -0.00000000000E+00 -0.00000000000E+00 -0.23502209314E+03  0.23502209314E+03  0.00000000000E+00 0.  1.
         23    2    1    2    0    0 -0.32303050320E+02 -0.37897941840E+02  0.51381285533E+02  0.11690168018E+03  0.92445796396E+02 0.  0.
         23    2    1    2    0    0 -0.31789436429E+02  0.15158993234E+02  0.14183510379E+03  0.17965174879E+03  0.10448536182E+03 0.  0.
        -11    1    4    4    0    0 -0.51974539087E+02 -0.16515688807E+02  0.12884164279E+03  0.13990814704E+03  0.00000000000E+00 0. -1.
         11    1    4    4    0    0  0.20185102658E+02  0.31674682042E+02  0.12993460992E+02  0.39743601753E+02  0.00000000000E+00 0.  1.
        -13    1    3    3    0    0 -0.22412316833E+02  0.26496183514E+02  0.35913537673E+02  0.49941384390E+02  0.00000000000E+00 0.  1.
         13    1    3    3    0    0 -0.98907334874E+01 -0.64394125354E+02  0.15467747861E+02  0.66960295794E+02  0.00000000000E+00 0. -1.
         21    1    1    2  502  501  0.64092486750E+02  0.22738948605E+02 -0.17704757861E+03  0.18965956800E+03  0.00000000000E+00 0.  1.
<scales pt_clust_5="13000.00000" pt_clust_6="13000.00000" pt_clust_7="13000.00000" pt_clust_8="13000.00000" pt_clust_9="68.00667"></scales>
<clustering>
<clus scale="   68.007">  2  9  1 -1</clus>
<clus scale="   92.446">  7  8 -1 -1</clus>
<clus scale="   95.745">  2  7  1 -1</clus>
<clus scale="  104.485">  5  6 -1 -1</clus>
<clus scale="  107.415">  1  5  2 -1</clus>
</clustering>
</event>
<event>
 9    1  0.1612788E-005  0.1101764E+03  0.7546771E-02  0.1260291E+00
          1   -1    0    0  502    0  0.00000000000E+00  0.00000000000E+00  0.28477679003E+02  0.28477679003E+02  0.00000000000E+00 0. -1.
         -1   -1    0    0    0  501 -0.00000000000E+00 -0.00000000000E+00 -0.59318294883E+03  0.59318294883E+03  0.00000000000E+00 0.  1.
         23    2    1    2    0    0 -0.29151150860E+02  0.63670977212E+02 -0.30491505853E+03  0.32603412790E+03  0.91767514431E+02 0.  0.
         23    2    1    2    0    0  0.10564224454E+01 -0.57307639505E+02 -0.17223856895E+03  0.20345765536E+03  0.91889125125E+02 0.  0.
        -11    1    3    3    0    0  0.28983651711E+02  0.25598009240E+02 -0.59433578017E+02  0.70905996498E+02  0.00000000000E+00 0. -1.
         11    1    3    3    0    0 -0.58134802571E+02  0.38072967972E+02 -0.24548148051E+03  0.25512813141E+03  0.00000000000E+00 0.  1.
        -11    1    4    4    0    0 -0.43790569971E+02 -0.36644503454E+02 -0.73624585489E+02  0.93171955224E+02  0.00000000000E+00 0.  1.
         11    1    4    4    0    0  0.44846992416E+02 -0.20663136050E+02 -0.98613983458E+02  0.11028570013E+03  0.00000000000E+00 0. -1.
         21    1    1    2  502  501  0.28094728415E+02 -0.63633377068E+01 -0.87551642356E+02  0.92168844577E+02  0.00000000000E+00 0. -1.
<scales pt_clust_5="13000.00000" pt_clust_6="13000.00000" pt_clust_7="13000.00000" pt_clust_8="13000.00000" pt_clust_9="28.80635"></scales>
<clustering>
<clus scale="   28.806">  2  9  1 -1</clus>
<clus scale="   91.768">  5  6 -1 -1</clus>
<clus scale="   91.889">  7  8 -1 -1</clus>
<clus scale="  110.075">  2  5  1 -1</clus>
<clus scale="  110.176">  1  5  2 -1</clus>
</clustering>
</event>
<event>
 9    1  0.1612788E-005  0.1056835E+03  0.7546771E-02  0.1269725E+00
          1   -1    0    0  502    0  0.00000000000E+00  0.00000000000E+00  0.17794791847E+03  0.17794791847E+03  0.00000000000E+00 0. -1.
         -1   -1    0    0    0  501 -0.00000000000E+00 -0.00000000000E+00 -0.35394569871E+03  0.35394569871E+03  0.00000000000E+00 0.  1.
         23    2    1    2    0    0 -0.89249571831E+02  0.58232019048E+02 -0.54931776404E+01  0.13892504277E+03  0.88958070988E+02 0.  0.
         23    2    1    2    0    0  0.13854877808E+02 -0.37364920000E+02  0.81795886273E+02  0.12881836639E+03  0.91189416174E+02 0.  0.
        -11    1    4    4    0    0  0.34230732958E+02 -0.29028935041E+02  0.80587252586E+00  0.44889548661E+02  0.00000000000E+00 0.  1.
         11    1    4    4    0    0 -0.20375855150E+02 -0.83359849588E+01  0.80990013747E+02  0.83928817727E+02  0.00000000000E+00 0. -1.
        -11    1    3    3    0    0 -0.68138280556E+02  0.64988148876E+02  0.28467949300E+02  0.98370264352E+02  0.00000000000E+00 0. -1.
         11    1    3    3    0    0 -0.21111291275E+02 -0.67561298283E+01 -0.33961126940E+02  0.40554778419E+02  0.00000000000E+00 0.  1.
         21    1    1    2  502  501  0.75394694023E+02 -0.20867099048E+02 -0.25230048887E+03  0.26415020802E+03  0.00000000000E+00 0.  1.
<scales pt_clust_5="13000.00000" pt_clust_6="13000.00000" pt_clust_7="13000.00000" pt_clust_8="13000.00000" pt_clust_9="78.22912"></scales>
<clustering>
<clus scale="   78.229">  2  9  1 -1</clus>
<clus scale="   88.958">  7  8 -1 -1</clus>
<clus scale="   91.189">  5  6 -1 -1</clus>
<clus scale="  103.764">  2  7  1 -1</clus>
<clus scale="  105.683">  1  5  2 -1</clus>
</clustering>
</event>
<event>
 9    1  0.1612788E-005  0.1101990E+03  0.7546771E-02  0.1261011E+00
          1   -1    0    0  502    0  0.00000000000E+00  0.00000000000E+00  0.24089412938E+03  0.24089412938E+03  0.00000000000E+00 0. -1.
         -1   -1    0    0    0  501 -0.00000000000E+00 -0.00000000000E+00 -0.17615727475E+03  0.17615727475E+03  0.00000000000E+00 0.  1.
         23    2    1    2    0    0  0.61002671635E+02  0.15739358764E+02 -0.58640413280E+02  0.12376275870E+03  0.88935195560E+02 0.  0.
         23    2    1    2    0    0 -0.45798357618E+02 -0.43338733640E+02  0.18981301601E+03  0.21975902361E+03  0.91045658969E+02 0.  0.
        -11    1    3    3    0    0  0.41753153866E+02  0.61181676554E+01 -0.81864609609E+02  0.92100880232E+02  0.00000000000E+00 0.  1.
         11    1    3    3    0    0  0.19249517769E+02  0.96211911082E+01  0.23224196329E+02  0.31661878463E+02  0.00000000000E+00 0. -1.
        -11    1    4    4    0    0  0.22298770760E+02 -0.22221147668E+02  0.10143649227E+03  0.10620911706E+03  0.00000000000E+00 0. -1.
         11    1    4    4    0    0 -0.68097128378E+02 -0.21117585972E+02  0.88376523739E+02  0.11354990656E+03  0.00000000000E+00 0.  1.
         21    1    1    2  502  501 -0.15204314017E+02  0.27599374876E+02 -0.66435748105E+02  0.73529621817E+02  0.00000000000E+00 0. -1.
<scales pt_clust_5="13000.00000" pt_clust_6="13000.00000" pt_clust_7="13000.00000" pt_clust_8="13000.00000" pt_clust_9="31.51026"></scales>
<clustering>
<clus scale="   31.510">  2  9  1 -1</clus>
<clus scale="   88.935">  5  6 -1 -1</clus>
<clus scale="   91.046">  7  8 -1 -1</clus>
<clus scale="  108.462">  2  5  1 -1</clus>
<clus scale="  110.199">  1  5  2 -1</clus>
</clustering>
</event>
<event>
 9    1  0.1612788E-005  0.1645530E+03  0.7546771E-02  0.1184130E+00
         -1   -1    0    0    0  501 -0.00000000000E+00  0.00000000000E+00  0.21769467006E+03  0.21769467006E+03  0.00000000000E+00 0.  1.
          1   -1    0    0  502    0  0.00000000000E+00 -0.00000000000E+00 -0.19667955763E+03  0.19667955763E+03  0.00000000000E+00 0. -1.
         23    2    1    2    0    0 -0.52810561566E+02  0.98770126749E+02  0.99016899014E+02  0.17640743182E+03  0.93652241624E+02 0.  0.
         23    2    1    2    0    0  0.96702659842E+02 -0.10816162974E+03 -0.87475989148E+02  0.19209221539E+03  0.90537439598E+02 0.  0.
        -11    1    3    3    0    0 -0.50215683239E+01  0.80274860863E+02  0.95765535417E+02  0.12506121385E+03  0.00000000000E+00 0.  1.
         11    1    3    3    0    0 -0.47788993242E+02  0.18495265886E+02  0.32513635965E+01  0.51346217977E+02  0.00000000000E+00 0. -1.
        -13    1    4    4    0    0  0.10229934326E+03 -0.70077525239E+02 -0.90451127337E+02  0.15348427155E+03  0.00000000000E+00 0. -1.
         13    1    4    4    0    0 -0.55966834198E+01 -0.38084104500E+02  0.29751381889E+01  0.38607943848E+02  0.00000000000E+00 0.  1.
         21    1    1    2  502  501 -0.43892098276E+02  0.93915029911E+01  0.94742025581E+01  0.45874580473E+02  0.00000000000E+00 0.  1.
<scales pt_clust_5="13000.00000" pt_clust_6="13000.00000" pt_clust_7="13000.00000" pt_clust_8="13000.00000" pt_clust_9="44.88559"></scales>
<clustering>
<clus scale="   44.886">  1  9  2 -1</clus>
<clus scale="   90.537">  7  8 -1 -1</clus>
<clus scale="   93.652">  5  6 -1 -1</clus>
<clus scale="  162.800">  2  7  1 -1</clus>
<clus scale="  162.800">  2  5  1 -1</clus>
</clustering>
</event>
<event>
 9    1  0.1612788E-005  0.1644132E+03  0.7546771E-02  0.1209537E+00
         -3   -1    0    0    0  501 -0.00000000000E+00  0.00000000000E+00  0.11871710561E+04  0.11871710561E+04  0.00000000000E+00 0.  1.
          3   -1    0    0  502    0  0.00000000000E+00 -0.00000000000E+00 -0.10348834120E+03  0.10348834120E+03  0.00000000000E+00 0. -1.
         23    2    1    2    0    0 -0.88439416527E+02 -0.98634437532E+02 -0.34064216994E+01  0.16287878483E+03  0.94697477139E+02 0.  0.
         23    2    1    2    0    0  0.15817019552E+02 -0.14696369315E+02  0.12449889070E+03  0.15582492118E+03  0.91188107205E+02 0.  0.
        -11    1    4    4    0    0  0.37880885774E+02  0.26488797838E+02  0.51999670184E+02  0.69574302851E+02  0.00000000000E+00 0.  1.
         11    1    4    4    0    0 -0.22063866222E+02 -0.41185167153E+02  0.72499220517E+02  0.86250618326E+02  0.00000000000E+00 0. -1.
        -13    1    3    3    0    0 -0.68978450043E+02 -0.11146242478E+03 -0.22188734164E+02  0.13294449455E+03  0.00000000000E+00 0. -1.
         13    1    3    3    0    0 -0.19460966483E+02  0.12827987243E+02  0.18782312465E+02  0.29934290282E+02  0.00000000000E+00 0.  1.
         21    1    1    2  502  501  0.72622396974E+02  0.11333080685E+03  0.96259024592E+03  0.97195569130E+03  0.00000000000E+00 0.  1.
<scales pt_clust_5="13000.00000" pt_clust_6="13000.00000" pt_clust_7="13000.00000" pt_clust_8="13000.00000" pt_clust_9="134.40272"></scales>
<clustering>
<clus scale="   91.188">  5  6 -1 -1</clus>
<clus scale="   93.709">  2  5  1 -1</clus>
<clus scale="   94.697">  7  8 -1 -1</clus>
<clus scale="  134.403">  1  9  2 -1</clus>
<clus scale="   93.709">  2  5  1 -1</clus>
</clustering>
</event>
<event>
 9    1  0.1612788E-005  0.1003473E+03  0.7546771E-02  0.1282661E+00
         -1   -1    0    0    0  501 -0.00000000000E+00  0.00000000000E+00  0.23755835788E+03  0.23755835788E+03  0.00000000000E+00 0.  1.
          1   -1    0    0  502    0  0.00000000000E+00 -0.00000000000E+00 -0.12821533190E+03  0.12821533190E+03  0.00000000000E+00 0. -1.
         23    2    1    2    0    0 -0.38731896726E+02  0.50705995108E+02  0.12947300732E+02  0.11615760864E+03  0.96196152129E+02 0.  0.
         23    2    1    2    0    0  0.78206009705E+01 -0.10195301549E+02 -0.43325725810E+02  0.10089248387E+03  0.90205702765E+02 0.  0.
        -13    1    4    4    0    0  0.93819909681E+01  0.32241515310E+02  0.77576913319E+01  0.34463296981E+02  0.00000000000E+00 0. -1.
         13    1    4    4    0    0 -0.15613899976E+01 -0.42436816859E+02 -0.51083417142E+02  0.66429186889E+02  0.00000000000E+00 0.  1.
        -13    1    3    3    0    0  0.68431196333E+01 -0.24544763786E+02 -0.59698658568E+01  0.26170842822E+02  0.00000000000E+00 0.  1.
         13    1    3    3    0    0 -0.45575016359E+02  0.75250758894E+02  0.18917166589E+02  0.89986765816E+02  0.00000000000E+00 0. -1.
         21    1    1    2  502  501  0.30911295755E+02 -0.40510693559E+02  0.13972145107E+03  0.14872359727E+03  0.00000000000E+00 0.  1.
<scales pt_clust_5="13000.00000" pt_clust_6="13000.00000" pt_clust_7="13000.00000" pt_clust_8="13000.00000" pt_clust_9="50.95708"></scales>
<clustering>
<clus scale="   50.957">  1  9  2 -1</clus>
<clus scale="   90.206">  5  6 -1 -1</clus>
<clus scale="   94.620">  2  5  1 -1</clus>
<clus scale="   96.196">  7  8 -1 -1</clus>
<clus scale="   94.620">  2  5  1 -1</clus>
</clustering>
</event>
<event>
 9    1  0.1612788E-005  0.9203559E+02  0.7546771E-02  0.1298067E+00
         -2   -1    0    0    0  501 -0.00000000000E+00  0.00000000000E+00  0.15504776701E+03  0.15504776701E+03  0.00000000000E+00 0. -1.
          2   -1    0    0  502    0  0.00000000000E+00 -0.00000000000E+00 -0.86624721131E+02  0.86624721131E+02  0.00000000000E+00 0.  1.
         23    2    1    2    0    0 -0.13619840964E+02  0.88555019829E+01  0.41342102422E+02  0.10114017688E+03  0.90863887017E+02 0.  0.
         23    2    1    2    0    0  0.81128303962E+01  0.20325732051E+02 -0.87556198862E+01  0.93990600317E+02  0.90986914817E+02 0.  0.
        -11    1    4    4    0    0  0.43138660739E+01 -0.34037342611E+02  0.10991826942E+02  0.36027356162E+02  0.00000000000E+00 0. -1.
         11    1    4    4    0    0  0.37989643222E+01  0.54363074662E+02 -0.19747446828E+02  0.57963244155E+02  0.00000000000E+00 0.  1.
        -13    1    3    3    0    0  0.27906515748E+02  0.57868535737E+01 -0.14104329572E+02  0.31799267415E+02  0.00000000000E+00 0.  1.
         13    1    3    3    0    0 -0.41526356712E+02  0.30686484092E+01  0.55446431994E+02  0.69340909467E+02  0.00000000000E+00 0. -1.
         21    1    1    2  502  501  0.55070105680E+01 -0.29181234034E+02  0.35836563342E+02  0.46541710941E+02  0.00000000000E+00 0. -1.
<scales pt_clust_5="13000.00000" pt_clust_6="13000.00000" pt_clust_7="13000.00000" pt_clust_8="13000.00000" pt_clust_9="29.69632"></scales>
<clustering>
<clus scale="   29.696">  1  9  2 -1</clus>
<clus scale="   90.864">  7  8 -1 -1</clus>
<clus scale="   90.987">  5  6 -1 -1</clus>
<clus scale="   91.914">  1  7  2 -1</clus>
<clus scale="   92.036">  2  5  1 -1</clus>
</clustering>
</event>
<event>
 9    1  0.1612788E-005  0.1147425E+03  0.7546771E-02  0.1252328E+00
          1   -1    0    0  502    0  0.00000000000E+00  0.00000000000E+00  0.63578673538E+03  0.63578673538E+03  0.00000000000E+00 0. -1.
         -1   -1    0    0    0  501 -0.00000000000E+00 -0.00000000000E+00 -0.34823198295E+02  0.34823198295E+02  0.00000000000E+00 0.  1.
         23    2    1    2    0    0  0.71140853795E+02 -0.34109206687E+02  0.14365080831E+03  0.18738701771E+03  0.90850870217E+02 0.  0.
         23    2    1    2    0    0 -0.28618538434E+02  0.51354044776E+02  0.35861681608E+03  0.37438167871E+03  0.89996455042E+02 0.  0.
        -11    1    4    4    0    0 -0.90894433996E+01  0.75356985587E+02  0.23517880288E+03  0.24712418454E+03  0.00000000000E+00 0. -1.
         11    1    4    4    0    0 -0.19529095035E+02 -0.24002940812E+02  0.12343801320E+03  0.12725749417E+03  0.00000000000E+00 0.  1.
        -13    1    3    3    0    0  0.83363261358E+02 -0.15065493029E+01  0.11635891056E+03  0.14314712398E+03  0.00000000000E+00 0. -1.
         13    1    3    3    0    0 -0.12222407563E+02 -0.32602657384E+02  0.27291897745E+02  0.44239893735E+02  0.00000000000E+00 0.  1.
         21    1    1    2  502  501 -0.42522315361E+02 -0.17244838089E+02  0.98695912691E+02  0.10884123725E+03  0.00000000000E+00 0.  1.
<scales pt_clust_5="13000.00000" pt_clust_6="13000.00000" pt_clust_7="13000.00000" pt_clust_8="13000.00000" pt_clust_9="45.88607"></scales>
<clustering>
<clus scale="   45.886">  1  9  2 -1</clus>
<clus scale="   89.996">  5  6 -1 -1</clus>
<clus scale="   90.851">  7  8 -1 -1</clus>
<clus scale="  114.067">  1  5  2 -1</clus>
<clus scale="   45.886">  1  5  2 -1</clus>
</clustering>
</event>
<event>
 9    1  0.1612788E-005  0.9865121E+02  0.7546771E-02  0.1283360E+00
         -2   -1    0    0    0  501 -0.00000000000E+00  0.00000000000E+00  0.45521532097E+03  0.45521532097E+03  0.00000000000E+00 0.  1.
          2   -1    0    0  502    0  0.00000000000E+00 -0.00000000000E+00 -0.40992221395E+02  0.40992221395E+02  0.00000000000E+00 0. -1.
         23    2    1    2    0    0 -0.75199256798E+00 -0.47092248432E+02  0.11660821793E+03  0.15493705282E+03  0.90497339707E+02 0.  0.
         23    2    1    2    0    0 -0.37380396837E+02  0.20279559387E+02  0.11423894682E+03  0.15206231612E+03  0.90905755688E+02 0.  0.
        -11    1    4    4    0    0 -0.39595282048E+02 -0.87914368974E+01  0.72885726988E+01  0.41209210319E+02  0.00000000000E+00 0. -1.
         11    1    4    4    0    0  0.22148852109E+01  0.29070996284E+02  0.10695037412E+03  0.11085310580E+03  0.00000000000E+00 0.  1.
        -13    1    3    3    0    0  0.37658174417E+02 -0.24074635509E+02  0.95480401798E+02  0.10542406415E+03  0.00000000000E+00 0.  1.
         13    1    3    3    0    0 -0.38410166985E+02 -0.23017612922E+02  0.21127816130E+02  0.49512988669E+02  0.00000000000E+00 0. -1.
         21    1    1    2  502  501  0.38132389405E+02  0.26812689045E+02  0.18337593483E+03  0.18920817342E+03  0.00000000000E+00 0.  1.
<scales pt_clust_5="13000.00000" pt_clust_6="13000.00000" pt_clust_7="13000.00000" pt_clust_8="13000.00000" pt_clust_9="46.61544"></scales>
<clustering>
<clus scale="   46.615">  1  9  2 -1</clus>
<clus scale="   90.497">  7  8 -1 -1</clus>
<clus scale="   90.906">  5  6 -1 -1</clus>
<clus scale="   98.275">  1  7  2 -1</clus>
<clus scale="   98.651">  2  5  1 -1</clus>
</clustering>
</event>
<event>
 9    1  0.1612788E-005  0.1084328E+03  0.7546771E-02  0.1264376E+00
          1   -1    0    0  502    0  0.00000000000E+00  0.00000000000E+00  0.10377432956E+03  0.10377432956E+03  0.00000000000E+00 0. -1.
         -1   -1    0    0    0  501 -0.00000000000E+00 -0.00000000000E+00 -0.32218773988E+03  0.32218773988E+03  0.00000000000E+00 0.  1.
         23    2    1    2    0    0 -0.34389376493E+02 -0.32420009005E+01 -0.21476052018E+03  0.23623285684E+03  0.92145221458E+02 0.  0.
         23    2    1    2    0    0  0.59005709609E+02 -0.14299109487E+02  0.56531153393E+02  0.12238106114E+03  0.89973410092E+02 0.  0.
        -13    1    4    4    0    0  0.54069588167E+02 -0.43254839998E+02  0.13921491117E+02  0.70627965161E+02  0.00000000000E+00 0.  1.
         13    1    4    4    0    0  0.49361214422E+01  0.28955730511E+02  0.42609662277E+02  0.51753095981E+02  0.00000000000E+00 0. -1.
        -13    1    3    3    0    0 -0.62432002716E+02  0.11383788611E+02 -0.11216900915E+03  0.12887681025E+03  0.00000000000E+00 0.  1.
         13    1    3    3    0    0  0.28042626222E+02 -0.14625789511E+02 -0.10259151103E+03  0.10735604659E+03  0.00000000000E+00 0. -1.
         21    1    1    2  502  501 -0.24616333116E+02  0.17541110388E+02 -0.60184043537E+02  0.67348151468E+02  0.00000000000E+00 0.  1.
<scales pt_clust_5="13000.00000" pt_clust_6="13000.00000" pt_clust_7="13000.00000" pt_clust_8="13000.00000" pt_clust_9="30.22672"></scales>
<clustering>
<clus scale="   30.227">  2  9  1 -1</clus>
<clus scale="   89.973">  5  6 -1 -1</clus>
<clus scale="   92.145">  7  8 -1 -1</clus>
<clus scale="  106.593">  1  5  2 -1</clus>
<clus scale="  106.593">  1  5  2 -1</clus>
</clustering>
</event>
<event>
 9    1  0.1612788E-005  0.1617369E+03  0.7546771E-02  0.1187314E+00
          2   -1    0    0  502    0  0.00000000000E+00  0.00000000000E+00  0.45877195170E+03  0.45877195170E+03  0.00000000000E+00 0. -1.
         -2   -1    0    0    0  501 -0.00000000000E+00 -0.00000000000E+00 -0.17132947658E+03  0.17132947658E+03  0.00000000000E+00 0.  1.
         23    2    1    2    0    0 -0.13873471795E+03 -0.43798272206E+02  0.10947572454E+03  0.20501644463E+03  0.94240106588E+02 0.  0.
         23    2    1    2    0    0  0.12036218842E+03  0.35829657041E+02  0.28059175749E+03  0.32052428017E+03  0.90737308121E+02 0.  0.
        -11    1    3    3    0    0 -0.10531481661E+03 -0.34054207456E+02  0.24748950405E+02  0.11341697487E+03  0.00000000000E+00 0.  1.
         11    1    3    3    0    0 -0.33419901342E+02 -0.97440647498E+01  0.84726774135E+02  0.91599469753E+02  0.00000000000E+00 0. -1.
        -13    1    4    4    0    0  0.36225335656E+02 -0.30670889848E+02  0.78318012437E+02  0.91578870377E+02  0.00000000000E+00 0.  1.
         13    1    4    4    0    0  0.84136852759E+02  0.66500546889E+02  0.20227374505E+03  0.22894540980E+03  0.00000000000E+00 0. -1.
         21    1    1    2  502  501  0.18372529540E+02  0.79686151652E+01 -0.10262500690E+03  0.10456070348E+03  0.00000000000E+00 0.  1.
<scales pt_clust_5="13000.00000" pt_clust_6="13000.00000" pt_clust_7="13000.00000" pt_clust_8="13000.00000" pt_clust_9="20.02620"></scales>
<clustering>
<clus scale="   20.026">  2  9  1 -1</clus>
<clus scale="   90.737">  7  8 -1 -1</clus>
<clus scale="   94.240">  5  6 -1 -1</clus>
<clus scale="  159.721">  1  7  2 -1</clus>
<clus scale="  159.721">  1  5  2 -1</clus>
</clustering>
</event>
<event>
 9    1  0.1612788E-005  0.1040690E+03  0.7546771E-02  0.1273209E+00
          1   -1    0    0  502    0  0.00000000000E+00  0.00000000000E+00  0.14093814355E+03  0.14093814355E+03  0.00000000000E+00 0. -1.
         -1   -1    0    0    0  501 -0.00000000000E+00 -0.00000000000E+00 -0.30731835697E+03  0.30731835697E+03  0.00000000000E+00 0.  1.
         23    2    1    2    0    0 -0.21298706098E+02 -0.46847555133E+02 -0.18653921289E+03  0.21344389452E+03  0.90072692084E+02 0.  0.
         23    2    1    2    0    0 -0.20422177749E+02  0.49769656239E+02  0.10094630292E+03  0.14384140603E+03  0.87213015015E+02 0.  0.
        -11    1    4    4    0    0 -0.44651248362E+02  0.61010316531E+02  0.71025721684E+02  0.10373353288E+03  0.00000000000E+00 0. -1.
         11    1    4    4    0    0  0.24229070613E+02 -0.11240660292E+02  0.29920581241E+02  0.40107873147E+02  0.00000000000E+00 0.  1.
        -13    1    3    3    0    0 -0.45890067452E+02 -0.53597980794E+02 -0.94492116401E+02  0.11792964809E+03  0.00000000000E+00 0.  1.
         13    1    3    3    0    0  0.24591361354E+02  0.67504256610E+01 -0.92047096488E+02  0.95514246433E+02  0.00000000000E+00 0. -1.
         21    1    1    2  502  501  0.41720883848E+02 -0.29221011064E+01 -0.80787303453E+02  0.90971199966E+02  0.00000000000E+00 0.  1.
<scales pt_clust_5="13000.00000" pt_clust_6="13000.00000" pt_clust_7="13000.00000" pt_clust_8="13000.00000" pt_clust_9="41.82309"></scales>
<clustering>
<clus scale="   41.823">  2  9  1 -1</clus>
<clus scale="   87.213">  5  6 -1 -1</clus>
<clus scale="   90.073">  7  8 -1 -1</clus>
<clus scale="  101.604">  1  5  2 -1</clus>
<clus scale="  101.604">  1  5  2 -1</clus>
</clustering>
</event>
<event>
 9    1  0.1612788E-005  0.9571152E+02  0.7546771E-02  0.1291901E+00
          3   -1    0    0  502    0  0.00000000000E+00  0.00000000000E+00  0.40559336110E+02  0.40559336110E+02  0.00000000000E+00 0. -1.
         -3   -1    0    0    0  501 -0.00000000000E+00 -0.00000000000E+00 -0.46965831298E+03  0.46965831298E+03  0.00000000000E+00 0.  1.
         23    2    1    2    0    0  0.36390538109E+02  0.78886069898E+01 -0.10209664810E+03  0.14247005486E+03  0.92127572390E+02 0.  0.
         23    2    1    2    0    0 -0.46452901361E+00 -0.29027281948E+02 -0.97318509016E+02  0.13431199548E+03  0.87897787499E+02 0.  0.
        -13    1    3    3    0    0  0.62380184071E+02  0.19092526870E+02 -0.91227613701E+02  0.11215297343E+03  0.00000000000E+00 0.  1.
         13    1    3    3    0    0 -0.25989645961E+02 -0.11203919880E+02 -0.10869034400E+02  0.30317081434E+02  0.00000000000E+00 0. -1.
        -13    1    4    4    0    0  0.23144563817E+02  0.24531056842E+02 -0.40961896643E+02  0.53059594426E+02  0.00000000000E+00 0.  1.
         13    1    4    4    0    0 -0.23609092831E+02 -0.53558338790E+02 -0.56356612373E+02  0.81252401050E+02  0.00000000000E+00 0. -1.
         21    1    1    2  502  501 -0.35926009096E+02  0.21138674958E+02 -0.22968381976E+03  0.23343559876E+03  0.00000000000E+00 0.  1.
<scales pt_clust_5="13000.00000" pt_clust_6="13000.00000" pt_clust_7="13000.00000" pt_clust_8="13000.00000" pt_clust_9="41.68359"></scales>
<clustering>
<clus scale="   41.684">  2  9  1 -1</clus>
<clus scale="   87.898">  7  8 -1 -1</clus>
<clus scale="   91.647">  1  7  2 -1</clus>
<clus scale="   92.128">  5  6 -1 -1</clus>
<clus scale="   91.647">  1  5  2 -1</clus>
</clustering>
</event>
<event>
 9    1  0.1612788E-005  0.2063711E+03  0.7546771E-02  0.1144816E+00
          2   -1    0    0  502    0  0.00000000000E+00  0.00000000000E+00  0.67660172669E+03  0.67660172669E+03  0.00000000000E+00 0. -1.
         -2   -1    0    0    0  501 -0.00000000000E+00 -0.00000000000E+00 -0.11745343472E+03  0.11745343472E+03  0.00000000000E+00 0.  1.
         23    2    1    2    0    0 -0.21116722818E+03  0.13239056341E+02  0.12919607040E+03  0.26398064333E+03  0.90704380143E+02 0.  0.
         23    2    1    2    0    0  0.17063617967E+03 -0.39597969391E+02  0.43797025047E+03  0.48106587620E+03  0.94454920241E+02 0.  0.
        -13    1    3    3    0    0 -0.17707257588E+03  0.41609384800E+02  0.12206428641E+03  0.21905644946E+03  0.00000000000E+00 0.  1.
         13    1    3    3    0    0 -0.34094652305E+02 -0.28370328459E+02  0.71317839885E+01  0.44924193877E+02  0.00000000000E+00 0. -1.
        -13    1    4    4    0    0  0.12284014182E+03 -0.67137608071E+02  0.35316858564E+03  0.37990157770E+03  0.00000000000E+00 0. -1.
         13    1    4    4    0    0  0.47796037846E+02  0.27539638680E+02  0.84801664833E+02  0.10116429850E+03  0.00000000000E+00 0.  1.
         21    1    1    2  502  501  0.40531048512E+02  0.26358913050E+02 -0.80180289059E+01  0.49008641873E+02  0.00000000000E+00 0. -1.
<scales pt_clust_5="13000.00000" pt_clust_6="13000.00000" pt_clust_7="13000.00000" pt_clust_8="13000.00000" pt_clust_9="48.34830"></scales>
<clustering>
<clus scale="   48.348">  2  9  1 -1</clus>
<clus scale="   90.704">  5  6 -1 -1</clus>
<clus scale="   94.455">  7  8 -1 -1</clus>
<clus scale="  204.682">  2  5  1 -1</clus>
<clus scale="  206.371">  1  5  2 -1</clus>
</clustering>
</event>
<event>
 9    1  0.1612788E-005  0.1850152E+03  0.7546771E-02  0.1164440E+00
         -1   -1    0    0    0  501 -0.00000000000E+00  0.00000000000E+00  0.30855954789E+03  0.30855954789E+03  0.00000000000E+00 0.  1.
          1   -1    0    0  502    0  0.00000000000E+00 -0.00000000000E+00 -0.24839940695E+03  0.24839940695E+03  0.00000000000E+00 0. -1.
         23    2    1    2    0    0 -0.74550403588E+01 -0.19013558476E+03  0.15522266538E+03  0.26184921313E+03  0.90905535316E+02 0.  0.
         23    2    1    2    0    0  0.65557997140E+01  0.15543308386E+03 -0.15020835925E+03  0.22994736530E+03  0.78171718375E+02 0.  0.
        -13    1    3    3    0    0 -0.40334631711E+02 -0.16309609996E+03  0.11808280537E+03  0.20535522701E+03  0.00000000000E+00 0.  1.
         13    1    3    3    0    0  0.32879591352E+02 -0.27039484794E+02  0.37139860016E+02  0.56493986117E+02  0.00000000000E+00 0. -1.
        -13    1    4    4    0    0  0.24562593776E+02  0.14575718324E+03 -0.14835410420E+03  0.20942162666E+03  0.00000000000E+00 0. -1.
         13    1    4    4    0    0 -0.18006794062E+02  0.96759006179E+01 -0.18542550503E+01  0.20525738645E+02  0.00000000000E+00 0.  1.
         21    1    1    2  502  501  0.89924064478E+00  0.34702500899E+02  0.55145834807E+02  0.65162376406E+02  0.00000000000E+00 0. -1.
<scales pt_clust_5="13000.00000" pt_clust_6="13000.00000" pt_clust_7="13000.00000" pt_clust_8="13000.00000" pt_clust_9="34.71415"></scales>
<clustering>
<clus scale="   34.714">  1  9  2 -1</clus>
<clus scale="   78.172">  7  8 -1 -1</clus>
<clus scale="   90.906">  5  6 -1 -1</clus>
<clus scale="  179.102">  2  7  1 -1</clus>
<clus scale="  179.102">  2  5  1 -1</clus>
</clustering>
</event>
<event>
 9    1  0.1612788E-005  0.1128582E+03  0.7546771E-02  0.1255940E+00
         -1   -1    0    0    0  501 -0.00000000000E+00  0.00000000000E+00  0.16836117697E+03  0.16836117697E+03  0.00000000000E+00 0.  1.
          1   -1    0    0  502    0  0.00000000000E+00 -0.00000000000E+00 -0.21285007991E+03  0.21285007991E+03  0.00000000000E+00 0. -1.
         23    2    1    2    0    0 -0.55968116409E+02 -0.57471864678E+02  0.10033790316E+03  0.15795064522E+03  0.91898129644E+02 0.  0.
         23    2    1    2    0    0  0.56579347326E+02  0.29855405850E+02 -0.15779389531E+03  0.19274524170E+03  0.90328550294E+02 0.  0.
        -11    1    4    4    0    0  0.15901746351E+02 -0.23719544445E+02 -0.10020109250E+03  0.10419088858E+03  0.00000000000E+00 0. -1.
         11    1    4    4    0    0  0.40677600974E+02  0.53574950296E+02 -0.57592802810E+02  0.88554353116E+02  0.00000000000E+00 0.  1.
        -13    1    3    3    0    0 -0.39563165547E+02 -0.79328371069E+02  0.95312666162E+02  0.13016427642E+03  0.00000000000E+00 0.  1.
         13    1    3    3    0    0 -0.16404950862E+02  0.21856506391E+02  0.50252369940E+01  0.27786368803E+02  0.00000000000E+00 0. -1.
         21    1    1    2  502  501 -0.61123091602E+00  0.27616458828E+02  0.12967089212E+02  0.30515369964E+02  0.00000000000E+00 0. -1.
<scales pt_clust_5="13000.00000" pt_clust_6="13000.00000" pt_clust_7="13000.00000" pt_clust_8="13000.00000" pt_clust_9="27.62322"></scales>
<clustering>
<clus scale="   27.623">  1  9  2 -1</clus>
<clus scale="   90.329">  5  6 -1 -1</clus>
<clus scale="   91.898">  7  8 -1 -1</clus>
<clus scale="  111.584">  2  5  1 -1</clus>
<clus scale="  111.584">  2  5  1 -1</clus>
</clustering>
</event>
<event>
 9    1  0.1612788E-005  0.9140756E+02  0.7546771E-02  0.1299727E+00
         -1   -1    0    0    0  501 -0.00000000000E+00  0.00000000000E+00  0.80622209420E+02  0.80622209420E+02  0.00000000000E+00 0.  1.
          1   -1    0    0  502    0  0.00000000000E+00 -0.00000000000E+00 -0.35425212394E+03  0.35425212394E+03  0.00000000000E+00 0. -1.
         23    2    1    2    0    0 -0.28812949312E+02  0.18719057912E+02 -0.91257362023E+02  0.13296212195E+03  0.90390434078E+02 0.  0.
         23    2    1    2    0    0 -0.96117880266E+00 -0.80798326512E+01 -0.22865956693E+03  0.24585706425E+03  0.89968277362E+02 0.  0.
        -11    1    4    4    0    0 -0.33750930595E+02 -0.29108471758E+02 -0.16764357873E+03  0.17346699379E+03  0.00000000000E+00 0. -1.
         11    1    4    4    0    0  0.32789751792E+02  0.21028639107E+02 -0.61015988199E+02  0.72390070460E+02  0.00000000000E+00 0.  1.
        -13    1    3    3    0    0 -0.54819678908E+02  0.21939262288E+02 -0.29777694092E+02  0.66130473238E+02  0.00000000000E+00 0.  1.
         13    1    3    3    0    0  0.26006729596E+02 -0.32202043761E+01 -0.61479667931E+02  0.66831648711E+02  0.00000000000E+00 0. -1.
         21    1    1    2  502  501  0.29774128115E+02 -0.10639225261E+02  0.46287014428E+02  0.56055147166E+02  0.00000000000E+00 0.  1.
<scales pt_clust_5="13000.00000" pt_clust_6="13000.00000" pt_clust_7="13000.00000" pt_clust_8="13000.00000" pt_clust_9="31.61790"></scales>
<clustering>
<clus scale="   31.618">  1  9  2 -1</clus>
<clus scale="   89.968">  5  6 -1 -1</clus>
<clus scale="   90.390">  7  8 -1 -1</clus>
<clus scale="   90.990">  2  5  1 -1</clus>
<clus scale="   90.990">  2  5  1 -1</clus>
</clustering>
</event>
<event>
 9    1  0.1612788E-005  0.1143150E+03  0.7546771E-02  0.1252930E+00
          1   -1    0    0  502    0  0.00000000000E+00  0.00000000000E+00  0.54546818005E+02  0.54546818005E+02  0.00000000000E+00 0. -1.
         -1   -1    0    0    0  501 -0.00000000000E+00 -0.00000000000E+00 -0.38390329938E+03  0.38390329938E+03  0.00000000000E+00 0.  1.
         23    2    1    2    0    0  0.38836212024E+02  0.31551212700E+02 -0.20745383384E+03  0.23226197278E+03  0.91677698684E+02 0.  0.
         23    2    1    2    0    0 -0.63104368592E+02 -0.40377535205E+02 -0.48268076020E+02  0.12815675660E+03  0.92096907739E+02 0.  0.
        -11    1    4    4    0    0 -0.71356999277E+02 -0.14671342260E+02 -0.63948229889E+02  0.96935265696E+02  0.00000000000E+00 0.  1.
         11    1    4    4    0    0  0.82526306854E+01 -0.25706192945E+02  0.15680153869E+02  0.31221490904E+02  0.00000000000E+00 0. -1.
        -13    1    3    3    0    0  0.59460341323E+02  0.35695956011E+02 -0.93668421899E+02  0.11654830212E+03  0.00000000000E+00 0.  1.
         13    1    3    3    0    0 -0.20624129299E+02 -0.41447433109E+01 -0.11378541194E+03  0.11571367066E+03  0.00000000000E+00 0. -1.
         21    1    1    2  502  501  0.24268156568E+02  0.88263225052E+01 -0.73634571509E+02  0.78031388002E+02  0.00000000000E+00 0. -1.
<scales pt_clust_5="13000.00000" pt_clust_6="13000.00000" pt_clust_7="13000.00000" pt_clust_8="13000.00000" pt_clust_9="25.82339"></scales>
<clustering>
<clus scale="   25.823">  2  9  1 -1</clus>
<clus scale="   91.678">  7  8 -1 -1</clus>
<clus scale="   92.097">  5  6 -1 -1</clus>
<clus scale="  113.978">  2  7  1 -1</clus>
<clus scale="  114.315">  1  5  2 -1</clus>
</clustering>
</event>
<event>
 9    1  0.1612788E-005  0.1011796E+03  0.7546771E-02  0.1278036E+00
         -2   -1    0    0    0  501 -0.00000000000E+00  0.00000000000E+00  0.84471311254E+02  0.84471311254E+02  0.00000000000E+00 0.  1.
          2   -1    0    0  502    0  0.00000000000E+00 -0.00000000000E+00 -0.19592182180E+03  0.19592182180E+03  0.00000000000E+00 0. -1.
         23    2    1    2    0    0 -0.10164828827E+01  0.30388445714E+02  0.14274112218E+02  0.96725200872E+02  0.90705696259E+02 0.  0.
         23    2    1    2    0    0 -0.20376286154E+02 -0.45321026474E+02 -0.11640278924E+03  0.15596361635E+03  0.91136446088E+02 0.  0.
        -11    1    4    4    0    0 -0.17629657461E+01 -0.37296217150E+02 -0.12750032480E+03  0.13285499120E+03  0.00000000000E+00 0. -1.
         11    1    4    4    0    0 -0.18613320408E+02 -0.80248093234E+01  0.11097535558E+02  0.23108625159E+02  0.00000000000E+00 0.  1.
        -13    1    3    3    0    0 -0.39094929652E+02  0.39810198905E+02  0.13877175517E+02  0.57496447383E+02  0.00000000000E+00 0.  1.
         13    1    3    3    0    0  0.38078446769E+02 -0.94217531905E+01  0.39693670037E+00  0.39228753489E+02  0.00000000000E+00 0. -1.
         21    1    1    2  502  501  0.21392769036E+02  0.14932580759E+02 -0.93218335225E+01  0.27704315826E+02  0.00000000000E+00 0.  1.
<scales pt_clust_5="13000.00000" pt_clust_6="13000.00000" pt_clust_7="13000.00000" pt_clust_8="13000.00000" pt_clust_9="26.08894"></scales>
<clustering>
<clus scale="   26.089">  1  9  2 -1</clus>
<clus scale="   90.706">  7  8 -1 -1</clus>
<clus scale="   91.136">  5  6 -1 -1</clus>
<clus scale="  100.792">  1  7  2 -1</clus>
<clus scale="  101.180">  2  5  1 -1</clus>
</clustering>
</event>
<event>
 9    1  0.1612788E-005  0.1133319E+03  0.7546771E-02  0.1255155E+00
          2   -1    0    0  502    0  0.00000000000E+00  0.00000000000E+00  0.27607971924E+03  0.27607971924E+03  0.00000000000E+00 0. -1.
         -2   -1    0    0    0  501 -0.00000000000E+00 -0.00000000000E+00 -0.55581525725E+02  0.55581525725E+02  0.00000000000E+00 0.  1.
         23    2    1    2    0    0 -0.47163511812E+02 -0.54588668002E+02  0.85275351353E+02  0.14424506224E+03  0.91271205274E+02 0.  0.
         23    2    1    2    0    0  0.45682242497E+02  0.33891000753E+02  0.11368106768E+03  0.15750572241E+03  0.93001076506E+02 0.  0.
        -13    1    4    4    0    0  0.69965878248E+02  0.13547251834E+02  0.10047860038E+03  0.12318563750E+03  0.00000000000E+00 0. -1.
         13    1    4    4    0    0 -0.24283635751E+02  0.20343748918E+02  0.13202467293E+02  0.34320084906E+02  0.00000000000E+00 0.  1.
        -13    1    3    3    0    0 -0.69882934155E+02 -0.16250158754E+02  0.54103551175E+02  0.89860371663E+02  0.00000000000E+00 0.  1.
         13    1    3    3    0    0  0.22719422344E+02 -0.38338509248E+02  0.31171800179E+02  0.54384690579E+02  0.00000000000E+00 0. -1.
         21    1    1    2  502  501  0.14812693147E+01  0.20697667249E+02  0.21541774480E+02  0.29910460312E+02  0.00000000000E+00 0.  1.
<scales pt_clust_5="13000.00000" pt_clust_6="13000.00000" pt_clust_7="13000.00000" pt_clust_8="13000.00000" pt_clust_9="20.75060"></scales>
<clustering>
<clus scale="   20.751">  1  9  2 -1</clus>
<clus scale="   91.271">  7  8 -1 -1</clus>
<clus scale="   93.001">  5  6 -1 -1</clus>
<clus scale="  111.917">  2  7  1 -1</clus>
<clus scale="   20.751">  1  5  2 -1</clus>
</clustering>
</event>
<event>
 9    1  0.1612788E-005  0.1063055E+03  0.7546771E-02  0.1269165E+00
          2   -1    0    0  502    0  0.00000000000E+00  0.00000000000E+00  0.37228946172E+03  0.37228946172E+03  0.00000000000E+00 0. -1.
         -2   -1    0    0    0  501 -0.00000000000E+00 -0.00000000000E+00 -0.40507659028E+02  0.40507659028E+02  0.00000000000E+00 0.  1.
         23    2    1    2    0    0 -0.49415363444E+02  0.27373934380E+02  0.12325678751E+03  0.16372939368E+03  0.91781633560E+02 0.  0.
         23    2    1    2    0    0  0.41654110816E+02 -0.58954852888E+01  0.19830604299E+03  0.22404797067E+03  0.95406418959E+02 0.  0.
        -13    1    3    3    0    0 -0.20781836656E+02  0.17897542112E+02  0.12996844584E+03  0.13283073312E+03  0.00000000000E+00 0. -1.
         13    1    3    3    0    0 -0.28633526788E+02  0.94763922682E+01 -0.67116583252E+01  0.30898660557E+02  0.00000000000E+00 0.  1.
        -13    1    4    4    0    0  0.59556561833E+02  0.27679061683E+02  0.11424187823E+03  0.13177375025E+03  0.00000000000E+00 0. -1.
         13    1    4    4    0    0 -0.17902451017E+02 -0.33574546972E+02  0.84064164767E+02  0.92274220424E+02  0.00000000000E+00 0.  1.
         21    1    1    2  502  501  0.77612526276E+01 -0.21478449091E+02  0.10218972185E+02  0.25019756398E+02  0.00000000000E+00 0. -1.
<scales pt_clust_5="13000.00000" pt_clust_6="13000.00000" pt_clust_7="13000.00000" pt_clust_8="13000.00000" pt_clust_9="22.83771"></scales>
<clustering>
<clus scale="   22.838">  2  9  1 -1</clus>
<clus scale="   91.782">  5  6 -1 -1</clus>
<clus scale="   95.406">  7  8 -1 -1</clus>
<clus scale="  103.065">  2  5  1 -1</clus>
<clus scale="  106.305">  1  5  2 -1</clus>
</clustering>
</event>
<event>
 9    1  0.1612788E-005  0.1038395E+03  0.7546771E-02  0.1274356E+00
          1   -1    0    0  502    0  0.00000000000E+00  0.00000000000E+00  0.79934244799E+02  0.79934244799E+02  0.00000000000E+00 0. -1.
         -1   -1    0    0    0  501 -0.00000000000E+00 -0.00000000000E+00 -0.36312160813E+03  0.36312160813E+03  0.00000000000E+00 0.  1.
         23    2    1    2    0    0  0.17373852452E+02  0.19532806595E+02 -0.44647968047E+02  0.10614428242E+03  0.92681100326E+02 0.  0.
         23    2    1    2    0    0 -0.45304754030E+01 -0.49967536482E+02 -0.13923373593E+02  0.10987945314E+03  0.96759257853E+02 0.  0.
        -11    1    4    4    0    0 -0.40345480352E+02 -0.15510544266E+02  0.22053612410E+02  0.48525216008E+02  0.00000000000E+00 0. -1.
         11    1    4    4    0    0  0.35815004949E+02 -0.34456992215E+02 -0.35976986003E+02  0.61354237131E+02  0.00000000000E+00 0.  1.
        -13    1    3    3    0    0  0.20438193728E+02 -0.19617304420E+02 -0.58096359467E+02  0.64635480805E+02  0.00000000000E+00 0.  1.
         13    1    3    3    0    0 -0.30643412761E+01  0.39150111014E+02  0.13448391420E+02  0.41508801617E+02  0.00000000000E+00 0. -1.
         21    1    1    2  502  501 -0.12843377049E+02  0.30434729887E+02 -0.22461602169E+03  0.22703211737E+03  0.00000000000E+00 0. -1.
<scales pt_clust_5="13000.00000" pt_clust_6="13000.00000" pt_clust_7="13000.00000" pt_clust_8="13000.00000" pt_clust_9="33.03370"></scales>
<clustering>
<clus scale="   33.034">  2  9  1 -1</clus>
<clus scale="   92.681">  7  8 -1 -1</clus>
<clus scale="   96.759">  5  6 -1 -1</clus>
<clus scale="  100.050">  2  7  1 -1</clus>
<clus scale="  103.839">  1  5  2 -1</clus>
</clustering>
</event>
<event>
 9    1  0.1612788E-005  0.2059857E+03  0.7546771E-02  0.1145067E+00
          1   -1    0    0  502    0  0.00000000000E+00  0.00000000000E+00  0.85128279145E+03  0.85128279145E+03  0.00000000000E+00 0. -1.
         -1   -1    0    0    0  501 -0.00000000000E+00 -0.00000000000E+00 -0.83840024411E+02  0.83840024411E+02  0.00000000000E+00 0.  1.
         23    2    1    2    0    0  0.19961287090E+02 -0.17913692801E+03  0.20187295680E+03  0.28558848518E+03  0.91211842536E+02 0.  0.
         23    2    1    2    0    0  0.13933327414E+02  0.18483229377E+03  0.57698689978E+03  0.61331787011E+03  0.94275197370E+02 0.  0.
        -11    1    3    3    0    0  0.23062591505E+01 -0.11592201589E+03  0.62926844158E+02  0.13192050756E+03  0.00000000000E+00 0. -1.
         11    1    3    3    0    0  0.17655027940E+02 -0.63214912119E+02  0.13894611264E+03  0.15366797761E+03  0.00000000000E+00 0.  1.
        -13    1    4    4    0    0  0.51724083169E+02  0.92036493730E+02  0.34018249747E+03  0.35618847334E+03  0.00000000000E+00 0. -1.
         13    1    4    4    0    0 -0.37790755755E+02  0.92795800037E+02  0.23680440231E+03  0.25712939676E+03  0.00000000000E+00 0.  1.
         21    1    1    2  502  501 -0.33894614505E+02 -0.56953657543E+01 -0.11417089538E+02  0.36216460581E+02  0.00000000000E+00 0. -1.
<scales pt_clust_5="13000.00000" pt_clust_6="13000.00000" pt_clust_7="13000.00000" pt_clust_8="13000.00000" pt_clust_9="34.36978"></scales>
<clustering>
<clus scale="   34.370">  2  9  1 -1</clus>
<clus scale="   91.212">  5  6 -1 -1</clus>
<clus scale="   94.275">  7  8 -1 -1</clus>
<clus scale="  204.602">  2  5  1 -1</clus>
<clus scale="  205.986">  1  5  2 -1</clus>
</clustering>
</event>
<event>
 9    1  0.1612788E-005  0.1028175E+03  0.7546771E-02  0.1274517E+00
          1   -1    0    0  502    0  0.00000000000E+00  0.00000000000E+00  0.30919866830E+03  0.30919866830E+03  0.00000000000E+00 0. -1.
         -1   -1    0    0    0  501 -0.00000000000E+00 -0.00000000000E+00 -0.65366270277E+02  0.65366270277E+02  0.00000000000E+00 0.  1.
         23    2    1    2    0    0 -0.40402409965E+02  0.10639004637E+02  0.11528136945E+03  0.15289351720E+03  0.91329569752E+02 0.  0.
         23    2    1    2    0    0  0.35641298412E+02 -0.43856859743E+02  0.14798628736E+03  0.18289225990E+03  0.91410673259E+02 0.  0.
        -11    1    3    3    0    0 -0.14950878165E+02  0.48880634245E+02  0.40875487161E+02  0.65449603610E+02  0.00000000000E+00 0. -1.
         11    1    3    3    0    0 -0.25451531800E+02 -0.38241629608E+02  0.74405882285E+02  0.87443913594E+02  0.00000000000E+00 0.  1.
        -11    1    4    4    0    0 -0.24386549376E+02 -0.15939512288E+01  0.96339647202E+01  0.26268950249E+02  0.00000000000E+00 0.  1.
         11    1    4    4    0    0  0.60027847788E+02 -0.42262908514E+02  0.13835232264E+03  0.15662330965E+03  0.00000000000E+00 0. -1.
         21    1    1    2  502  501  0.47611115530E+01  0.33217855106E+02 -0.19435258779E+02  0.38779161477E+02  0.00000000000E+00 0.  1.
<scales pt_clust_5="13000.00000" pt_clust_6="13000.00000" pt_clust_7="13000.00000" pt_clust_8="13000.00000" pt_clust_9="33.55733"></scales>
<clustering>
<clus scale="   33.557">  2  9  1 -1</clus>
<clus scale="   91.330">  5  6 -1 -1</clus>
<clus scale="   91.411">  7  8 -1 -1</clus>
<clus scale="  102.745">  2  5  1 -1</clus>
<clus scale="  102.817">  1  5  2 -1</clus>
</clustering>
</event>
<event>
 9    1  0.1612788E-005  0.9592861E+02  0.7546771E-02  0.1291862E+00
         -2   -1    0    0    0  501 -0.00000000000E+00  0.00000000000E+00  0.52084943091E+02  0.52084943091E+02  0.00000000000E+00 0.  1.
          2   -1    0    0  502    0  0.00000000000E+00 -0.00000000000E+00 -0.24377848296E+03  0.24377848296E+03  0.00000000000E+00 0. -1.
         23    2    1    2    0    0 -0.14020465612E+02 -0.19913512371E+02 -0.63240862641E+02  0.11604953366E+03  0.94207038610E+02 0.  0.
         23    2    1    2    0    0 -0.18929902474E+02  0.15762312784E+02 -0.95138436939E+02  0.13277350739E+03  0.89278722940E+02 0.  0.
        -11    1    3    3    0    0  0.21324569758E+01  0.31857104186E+02  0.10427919331E+01  0.31945420249E+02  0.00000000000E+00 0.  1.
         11    1    3    3    0    0 -0.16152922588E+02 -0.51770616557E+02 -0.64283654574E+02  0.84104113409E+02  0.00000000000E+00 0. -1.
        -13    1    4    4    0    0  0.36069293229E+02  0.38759339388E+01 -0.34810773559E+02  0.50277298393E+02  0.00000000000E+00 0.  1.
         13    1    4    4    0    0 -0.54999195704E+02  0.11886378845E+02 -0.60327663380E+02  0.82496208998E+02  0.00000000000E+00 0. -1.
         21    1    1    2  502  501  0.32950368086E+02  0.41511995868E+01 -0.33314240285E+02  0.47040384999E+02  0.00000000000E+00 0.  1.
<scales pt_clust_5="13000.00000" pt_clust_6="13000.00000" pt_clust_7="13000.00000" pt_clust_8="13000.00000" pt_clust_9="33.21083"></scales>
<clustering>
<clus scale="   33.211">  2  9  1 -1</clus>
<clus scale="   89.279">  7  8 -1 -1</clus>
<clus scale="   91.093">  2  7  1 -1</clus>
<clus scale="   94.207">  5  6 -1 -1</clus>
<clus scale="   33.211">  2  5  1 -1</clus>
</clustering>
</event>
<event>
 9    1  0.1612788E-005  0.1289158E+03  0.7546771E-02  0.1230080E+00
          1   -1    0    0  502    0  0.00000000000E+00  0.00000000000E+00  0.13068996349E+04  0.13068996349E+04  0.00000000000E+00 0. -1.
         -1   -1    0    0    0  501 -0.00000000000E+00 -0.00000000000E+00 -0.25238007967E+02  0.25238007967E+02  0.00000000000E+00 0.  1.
         23    2    1    2    0    0  0.90154537336E+02 -0.36961049015E+02  0.35160562372E+03  0.37436290365E+03  0.83827854881E+02 0.  0.
         23    2    1    2    0    0 -0.48278204907E+02  0.91868901779E+02  0.38351946678E+03  0.40689300493E+03  0.87772751336E+02 0.  0.
        -11    1    4    4    0    0 -0.25614163923E+02  0.10607911271E+03  0.30384402234E+03  0.32284679565E+03  0.00000000000E+00 0. -1.
         11    1    4    4    0    0 -0.22664040985E+02 -0.14210210927E+02  0.79675444433E+02  0.84046209277E+02  0.00000000000E+00 0.  1.
        -13    1    3    3    0    0  0.61264515219E+02 -0.27978570321E+01  0.29936251856E+03  0.30557991811E+03  0.00000000000E+00 0. -1.
         13    1    3    3    0    0  0.28890022116E+02 -0.34163191983E+02  0.52243105152E+02  0.68782985544E+02  0.00000000000E+00 0.  1.
         21    1    1    2  502  501 -0.41876332428E+02 -0.54907852764E+02  0.54653653640E+03  0.55088173425E+03  0.00000000000E+00 0.  1.
<scales pt_clust_5="13000.00000" pt_clust_6="13000.00000" pt_clust_7="13000.00000" pt_clust_8="13000.00000" pt_clust_9="69.05432"></scales>
<clustering>
<clus scale="   69.054">  1  9  2 -1</clus>
<clus scale="   83.828">  7  8 -1 -1</clus>
<clus scale="   87.773">  5  6 -1 -1</clus>
<clus scale="  126.263">  2  7  1 -1</clus>
<clus scale="   69.054">  1  5  2 -1</clus>
</clustering>
</event>
<event>
 9    1  0.1612788E-005  0.2677662E+03  0.7546771E-02  0.1103832E+00
          2   -1    0    0  502    0  0.00000000000E+00  0.00000000000E+00  0.22325296011E+04  0.22325296011E+04  0.00000000000E+00 0. -1.
         -2   -1    0    0    0  501 -0.00000000000E+00 -0.00000000000E+00 -0.34527516629E+02  0.34527516629E+02  0.00000000000E+00 0.  1.
         23    2    1    2    0    0 -0.23464966289E+03  0.38516217327E+01  0.86016052873E+03  0.89611113581E+03  0.89798292069E+02 0.  0.
         23    2    1    2    0    0  0.25521698837E+03 -0.24034803553E+01  0.12489808365E+04  0.12797246060E+04  0.11225172389E+03 0.  0.
        -11    1    3    3    0    0 -0.74671494406E+02  0.78245311574E+01  0.14522969322E+03  0.16348920196E+03  0.00000000000E+00 0.  1.
         11    1    3    3    0    0 -0.15997816849E+03 -0.39729094248E+01  0.71493083551E+03  0.73262193385E+03  0.00000000000E+00 0. -1.
        -13    1    4    4    0    0  0.14730822933E+03 -0.34234081782E+02  0.91212750555E+03  0.92458005233E+03  0.00000000000E+00 0. -1.
         13    1    4    4    0    0  0.10790875904E+03  0.31830601427E+02  0.33685333090E+03  0.35514455367E+03  0.00000000000E+00 0.  1.
         21    1    1    2  502  501 -0.20567325478E+02 -0.14481413774E+01  0.88860719318E+02  0.91221375940E+02  0.00000000000E+00 0.  1.
<scales pt_clust_5="13000.00000" pt_clust_6="13000.00000" pt_clust_7="13000.00000" pt_clust_8="13000.00000" pt_clust_9="20.61824"></scales>
<clustering>
<clus scale="   20.618">  1  9  2 -1</clus>
<clus scale="   89.798">  5  6 -1 -1</clus>
<clus scale="  112.252">  7  8 -1 -1</clus>
<clus scale="  259.156">  2  5  1 -1</clus>
<clus scale="   20.618">  1  5  2 -1</clus>
</clustering>
</event>
<event>
 9    1  0.1612788E-005  0.1677187E+03  0.7546771E-02  0.1181233E+00
          3   -1    0    0  502    0  0.00000000000E+00  0.00000000000E+00  0.93060508461E+03  0.93060508461E+03  0.00000000000E+00 0. -1.
         -3   -1    0    0    0  501 -0.00000000000E+00 -0.00000000000E+00 -0.60573350169E+02  0.60573350169E+02  0.00000000000E+00 0.  1.
         23    2    1    2    0    0  0.10488626785E+03 -0.77389281105E+02  0.15921888322E+03  0.22769302078E+03  0.97484506078E+02 0.  0.
         23    2    1    2    0    0 -0.12289767152E+03  0.63887219038E+02  0.72025130587E+03  0.73907638354E+03  0.91030449146E+02 0.  0.
        -13    1    4    4    0    0 -0.44596889060E+02  0.69824797163E+02  0.45354046068E+03  0.46104591342E+03  0.00000000000E+00 0. -1.
         13    1    4    4    0    0 -0.78300782461E+02 -0.59375781243E+01  0.26671084520E+03  0.27803047012E+03  0.00000000000E+00 0.  1.
        -13    1    3    3    0    0  0.10282521484E+02 -0.18160745606E+02 -0.11421798828E+02  0.23790763281E+02  0.00000000000E+00 0.  1.
         13    1    3    3    0    0  0.94603746371E+02 -0.59228535499E+02  0.17064068204E+03  0.20390225750E+03  0.00000000000E+00 0. -1.
         21    1    1    2  502  501  0.18011403667E+02  0.13502062067E+02 -0.94384546439E+01  0.24409030464E+02  0.00000000000E+00 0.  1.
<scales pt_clust_5="13000.00000" pt_clust_6="13000.00000" pt_clust_7="13000.00000" pt_clust_8="13000.00000" pt_clust_9="22.51036"></scales>
<clustering>
<clus scale="   22.510">  2  9  1 -1</clus>
<clus scale="   91.030">  5  6 -1 -1</clus>
<clus scale="   97.485">  7  8 -1 -1</clus>
<clus scale="  164.051">  1  5  2 -1</clus>
<clus scale="  164.051">  1  5  2 -1</clus>
</clustering>
</event>
<event>
 9    1  0.1612788E-005  0.1296437E+03  0.7546771E-02  0.1228188E+00
          1   -1    0    0  502    0  0.00000000000E+00  0.00000000000E+00  0.39033701841E+03  0.39033701841E+03  0.00000000000E+00 0. -1.
         -1   -1    0    0    0  501 -0.00000000000E+00 -0.00000000000E+00 -0.71983815275E+02  0.71983815275E+02  0.00000000000E+00 0.  1.
         23    2    1    2    0    0  0.89289344237E+02  0.33691385510E+02  0.31407693922E+02  0.13678639466E+03  0.92824447608E+02 0.  0.
         23    2    1    2    0    0 -0.88685289318E+02 -0.12899051609E+02  0.26881412145E+03  0.29794035898E+03  0.92064974585E+02 0.  0.
        -13    1    4    4    0    0 -0.47118914538E+02 -0.38179162311E+02  0.22305242232E+03  0.23114978617E+03  0.00000000000E+00 0. -1.
         13    1    4    4    0    0 -0.41566374781E+02  0.25280110702E+02  0.45761699124E+02  0.66790572810E+02  0.00000000000E+00 0.  1.
        -13    1    3    3    0    0  0.87048369152E+02 -0.95148578712E+01  0.32777614483E+02  0.93500390928E+02  0.00000000000E+00 0.  1.
         13    1    3    3    0    0  0.22409750844E+01  0.43206243382E+02 -0.13699205612E+01  0.43286003729E+02  0.00000000000E+00 0. -1.
         21    1    1    2  502  501 -0.60405491847E+00 -0.20792333902E+02  0.18131387764E+02  0.27594080047E+02  0.00000000000E+00 0.  1.
<scales pt_clust_5="13000.00000" pt_clust_6="13000.00000" pt_clust_7="13000.00000" pt_clust_8="13000.00000" pt_clust_9="20.80111"></scales>
<clustering>
<clus scale="   20.801">  2  9  1 -1</clus>
<clus scale="   92.065">  5  6 -1 -1</clus>
<clus scale="   92.824">  7  8 -1 -1</clus>
<clus scale="  129.101">  1  5  2 -1</clus>
<clus scale="  129.101">  1  5  2 -1</clus>
</clustering>
</event>
<event>
 9    1  0.1612788E-005  0.1207548E+03  0.7546771E-02  0.1243406E+00
         -2   -1    0    0    0  501 -0.00000000000E+00  0.00000000000E+00  0.21724153816E+03  0.21724153816E+03  0.00000000000E+00 0.  1.
          2   -1    0    0  502    0  0.00000000000E+00 -0.00000000000E+00 -0.36652252980E+03  0.36652252980E+03  0.00000000000E+00 0. -1.
         23    2    1    2    0    0 -0.76852574791E+02  0.53418403587E+02  0.66095599553E+02  0.14438236802E+03  0.87850986447E+02 0.  0.
         23    2    1    2    0    0  0.50491041085E+02 -0.56610170809E+02 -0.31461090468E+03  0.33665601275E+03  0.92753398359E+02 0.  0.
        -11    1    4    4    0    0  0.46193456713E+02  0.14576603186E+02 -0.12177912318E+03  0.13105902352E+03  0.00000000000E+00 0.  1.
         11    1    4    4    0    0  0.42975843724E+01 -0.71186773995E+02 -0.19283178150E+03  0.20559698923E+03  0.00000000000E+00 0. -1.
        -13    1    3    3    0    0 -0.19654867773E+02  0.17479813917E+02  0.71921527839E+02  0.76580440638E+02  0.00000000000E+00 0.  1.
         13    1    3    3    0    0 -0.57197707018E+02  0.35938589670E+02 -0.58259282860E+01  0.67801927377E+02  0.00000000000E+00 0. -1.
         21    1    1    2  502  501  0.26361533706E+02  0.31917672218E+01  0.99234313484E+02  0.10272568720E+03  0.00000000000E+00 0.  1.
<scales pt_clust_5="13000.00000" pt_clust_6="13000.00000" pt_clust_7="13000.00000" pt_clust_8="13000.00000" pt_clust_9="26.55406"></scales>
<clustering>
<clus scale="   26.554">  1  9  2 -1</clus>
<clus scale="   87.851">  7  8 -1 -1</clus>
<clus scale="   92.753">  5  6 -1 -1</clus>
<clus scale="  117.031">  1  7  2 -1</clus>
<clus scale="  120.755">  2  5  1 -1</clus>
</clustering>
</event>
<event>
 9    1  0.1612788E-005  0.1631846E+03  0.7546771E-02  0.1185282E+00
          1   -1    0    0  502    0  0.00000000000E+00  0.00000000000E+00  0.17910383191E+03  0.17910383191E+03  0.00000000000E+00 0. -1.
         -1   -1    0    0    0  501 -0.00000000000E+00 -0.00000000000E+00 -0.22103183047E+03  0.22103183047E+03  0.00000000000E+00 0.  1.
         23    2    1    2    0    0 -0.11717116162E+03 -0.10789138351E+03  0.34687118540E+01  0.18353493739E+03  0.91123046085E+02 0.  0.
         23    2    1    2    0    0  0.68139252989E+02  0.95334750822E+02  0.10459841188E+01  0.14790777801E+03  0.90243804229E+02 0.  0.
        -11    1    4    4    0    0 -0.20215989895E+02  0.36230910686E+02 -0.23119847357E+01  0.41553705130E+02  0.00000000000E+00 0. -1.
         11    1    4    4    0    0  0.88355242884E+02  0.59103840136E+02  0.33579688545E+01  0.10635407288E+03  0.00000000000E+00 0.  1.
        -13    1    3    3    0    0 -0.57391776075E+02 -0.18712859131E+02  0.37312078261E+02  0.70966035834E+02  0.00000000000E+00 0. -1.
         13    1    3    3    0    0 -0.59779385548E+02 -0.89178524381E+02 -0.33843366407E+02  0.11256890155E+03  0.00000000000E+00 0.  1.
         21    1    1    2  502  501  0.49031908634E+02  0.12556632691E+02 -0.46442694536E+02  0.68692946978E+02  0.00000000000E+00 0. -1.
<scales pt_clust_5="13000.00000" pt_clust_6="13000.00000" pt_clust_7="13000.00000" pt_clust_8="13000.00000" pt_clust_9="50.61420"></scales>
<clustering>
<clus scale="   50.614">  2  9  1 -1</clus>
<clus scale="   90.244">  5  6 -1 -1</clus>
<clus scale="   91.123">  7  8 -1 -1</clus>
<clus scale="  162.695">  1  5  2 -1</clus>
<clus scale="  162.695">  1  5  2 -1</clus>
</clustering>
</event>
<event>
 9    1  0.1612788E-005  0.2295156E+03  0.7546771E-02  0.1151120E+00
          3   -1    0    0  502    0  0.00000000000E+00  0.00000000000E+00  0.10571439943E+04  0.10571439943E+04  0.00000000000E+00 0. -1.
         -3   -1    0    0    0  501 -0.00000000000E+00 -0.00000000000E+00 -0.21487954436E+03  0.21487954436E+03  0.00000000000E+00 0.  1.
         23    2    1    2    0    0 -0.11487656611E+03  0.24127084668E+03  0.71968707985E+03  0.77319319815E+03  0.92032504411E+02 0.  0.
         23    2    1    2    0    0  0.82200420269E+02 -0.37539879815E+02  0.23220036811E+03  0.26518265905E+03  0.90767174917E+02 0.  0.
        -11    1    4    4    0    0  0.28928861061E+02  0.19028619510E+02  0.21861244443E+02  0.40949742018E+02  0.00000000000E+00 0. -1.
         11    1    4    4    0    0  0.53271559208E+02 -0.56568499325E+02  0.21033912367E+03  0.22423291704E+03  0.00000000000E+00 0.  1.
        -11    1    3    3    0    0 -0.98723511151E+02  0.10366934491E+03  0.33444673788E+03  0.36379703848E+03  0.00000000000E+00 0.  1.
         11    1    3    3    0    0 -0.16153054955E+02  0.13760150177E+03  0.38524034197E+03  0.40939615967E+03  0.00000000000E+00 0. -1.
         21    1    1    2  502  501  0.32676145837E+02 -0.20373096686E+03 -0.10962299800E+03  0.23364768147E+03  0.00000000000E+00 0.  1.
<scales pt_clust_5="13000.00000" pt_clust_6="13000.00000" pt_clust_7="13000.00000" pt_clust_8="13000.00000" pt_clust_9="210.25562"></scales>
<clustering>
<clus scale="   90.767">  5  6 -1 -1</clus>
<clus scale="   92.033">  7  8 -1 -1</clus>
<clus scale="  128.081">  1  5  2 -1</clus>
<clus scale="  210.256">  2  9  1 -1</clus>
<clus scale="  128.081">  1  5  2 -1</clus>
</clustering>
</event>
<event>
 9    1  0.1612788E-005  0.9802453E+02  0.7546771E-02  0.1286602E+00
         -1   -1    0    0    0  501 -0.00000000000E+00  0.00000000000E+00  0.39282177139E+02  0.39282177139E+02  0.00000000000E+00 0.  1.
          1   -1    0    0  502    0  0.00000000000E+00 -0.00000000000E+00 -0.30644532390E+03  0.30644532390E+03  0.00000000000E+00 0. -1.
         23    2    1    2    0    0  0.14573414815E+02  0.18665452446E+02 -0.97525012231E+02  0.13741293587E+03  0.93863749125E+02 0.  0.
         23    2    1    2    0    0 -0.34444904525E+02 -0.53832910889E+01 -0.14366965714E+03  0.17302074515E+03  0.89887577555E+02 0.  0.
        -11    1    3    3    0    0  0.47608127191E+02  0.15713298110E+02 -0.90577914826E+02  0.10352680893E+03  0.00000000000E+00 0. -1.
         11    1    3    3    0    0 -0.33034712376E+02  0.29521543364E+01 -0.69470974050E+01  0.33886126946E+02  0.00000000000E+00 0.  1.
        -13    1    4    4    0    0 -0.12359917045E+02 -0.36144413838E+02 -0.12518220460E+03  0.13088074935E+03  0.00000000000E+00 0.  1.
         13    1    4    4    0    0 -0.22084987480E+02  0.30761122749E+02 -0.18487452537E+02  0.42139995800E+02  0.00000000000E+00 0. -1.
         21    1    1    2  502  501  0.19871489710E+02 -0.13282161358E+02 -0.25968477396E+02  0.35293820024E+02  0.00000000000E+00 0.  1.
<scales pt_clust_5="13000.00000" pt_clust_6="13000.00000" pt_clust_7="13000.00000" pt_clust_8="13000.00000" pt_clust_9="23.90171"></scales>
<clustering>
<clus scale="   23.902">  1  9  2 -1</clus>
<clus scale="   89.888">  7  8 -1 -1</clus>
<clus scale="   93.864">  5  6 -1 -1</clus>
<clus scale="   94.224">  2  7  1 -1</clus>
<clus scale="   94.224">  2  5  1 -1</clus>
</clustering>
</event>
<event>
 9    1  0.1612788E-005  0.1124668E+03  0.7546771E-02  0.1256440E+00
          1   -1    0    0  502    0  0.00000000000E+00  0.00000000000E+00  0.38518841868E+03  0.38518841868E+03  0.00000000000E+00 0. -1.
         -1   -1    0    0    0  501 -0.00000000000E+00 -0.00000000000E+00 -0.44847375170E+02  0.44847375170E+02  0.00000000000E+00 0.  1.
         23    2    1    2    0    0  0.32721757387E+02  0.32526325662E+02  0.12242939052E+03  0.16175209846E+03  0.95111042610E+02 0.  0.
         23    2    1    2    0    0 -0.63390750537E+02 -0.45225912342E+02  0.15721082083E+03  0.19909946548E+03  0.94135989761E+02 0.  0.
        -11    1    4    4    0    0 -0.73896297540E+02  0.96754434490E+00  0.83817508565E+02  0.11174512819E+03  0.00000000000E+00 0.  1.
         11    1    4    4    0    0  0.10505547003E+02 -0.46193456687E+02  0.73393312261E+02  0.87354337288E+02  0.00000000000E+00 0. -1.
        -13    1    3    3    0    0 -0.21318316966E+02  0.19415786095E+02  0.17624938563E+01  0.28888575122E+02  0.00000000000E+00 0.  1.
         13    1    3    3    0    0  0.54040074354E+02  0.13110539567E+02  0.12066689667E+03  0.13286352334E+03  0.00000000000E+00 0. -1.
         21    1    1    2  502  501  0.30668993150E+02  0.12699586680E+02  0.60700832158E+02  0.69184229903E+02  0.00000000000E+00 0. -1.
<scales pt_clust_5="13000.00000" pt_clust_6="13000.00000" pt_clust_7="13000.00000" pt_clust_8="13000.00000" pt_clust_9="33.19438"></scales>
<clustering>
<clus scale="   33.194">  1  9  2 -1</clus>
<clus scale="   94.136">  5  6 -1 -1</clus>
<clus scale="   95.111">  7  8 -1 -1</clus>
<clus scale="  111.643">  1  5  2 -1</clus>
<clus scale="   33.194">  1  5  2 -1</clus>
</clustering>
</event>
<event>
 9    1  0.1612788E-005  0.1382725E+03  0.7546771E-02  0.1215828E+00
         -2   -1    0    0    0  501 -0.00000000000E+00  0.00000000000E+00  0.41621719536E+03  0.41621719536E+03  0.00000000000E+00 0.  1.
          2   -1    0    0  502    0  0.00000000000E+00 -0.00000000000E+00 -0.71436942616E+02  0.71436942616E+02  0.00000000000E+00 0. -1.
         23    2    1    2    0    0  0.74805966944E+02  0.11341636089E+03  0.14799009728E+03  0.22105426334E+03  0.92221010850E+02 0.  0.
         23    2    1    2    0    0 -0.35962478242E+02 -0.68468155060E+02  0.12094247218E+03  0.17025658799E+03  0.91537074873E+02 0.  0.
        -11    1    3    3    0    0  0.87787986036E+02  0.72064013219E+02  0.74809127957E+02  0.13600131661E+03  0.00000000000E+00 0.  1.
         11    1    3    3    0    0 -0.12982019092E+02  0.41352347673E+02  0.73180969321E+02  0.85052946736E+02  0.00000000000E+00 0. -1.
        -11    1    4    4    0    0 -0.32764296889E+02 -0.31479179990E+02  0.12491110221E+03  0.13291810027E+03  0.00000000000E+00 0.  1.
         11    1    4    4    0    0 -0.31981813531E+01 -0.36988975070E+02 -0.39686300281E+01  0.37338487717E+02  0.00000000000E+00 0. -1.
         21    1    1    2  502  501 -0.38843488702E+02 -0.44948205832E+02  0.75847683283E+02  0.96343286644E+02  0.00000000000E+00 0.  1.
<scales pt_clust_5="13000.00000" pt_clust_6="13000.00000" pt_clust_7="13000.00000" pt_clust_8="13000.00000" pt_clust_9="59.40672"></scales>
<clustering>
<clus scale="   59.407">  1  9  2 -1</clus>
<clus scale="   91.537">  7  8 -1 -1</clus>
<clus scale="   92.221">  5  6 -1 -1</clus>
<clus scale="  137.817">  2  7  1 -1</clus>
<clus scale="  137.817">  2  5  1 -1</clus>
</clustering>
</event>
<event>
 9    1  0.1612788E-005  0.1295959E+03  0.7546771E-02  0.1230325E+00
         -2   -1    0    0    0  501 -0.00000000000E+00  0.00000000000E+00  0.96622280558E+02  0.96622280558E+02  0.00000000000E+00 0. -1.
          2   -1    0    0  502    0  0.00000000000E+00 -0.00000000000E+00 -0.42910193806E+03  0.42910193806E+03  0.00000000000E+00 0.  1.
         23    2    1    2    0    0  0.50842988796E+02 -0.28169019831E+02 -0.11831172642E+03  0.16250840878E+03  0.95041123351E+02 0.  0.
         23    2    1    2    0    0 -0.79164303254E+02  0.85185979424E+02 -0.25081378602E+03  0.28975868480E+03  0.86769246608E+02 0.  0.
        -11    1    4    4    0    0  0.10578594505E+02  0.25684506645E+02 -0.17591141167E+02  0.32879306423E+02  0.00000000000E+00 0. -1.
         11    1    4    4    0    0 -0.89742897759E+02  0.59501472779E+02 -0.23322264486E+03  0.25687937838E+03  0.00000000000E+00 0.  1.
        -11    1    3    3    0    0  0.30116331403E+02  0.34087525814E+02 -0.42593652835E+02  0.62315103266E+02  0.00000000000E+00 0. -1.
         11    1    3    3    0    0  0.20726657393E+02 -0.62256545645E+02 -0.75718073584E+02  0.10019330551E+03  0.00000000000E+00 0.  1.
         21    1    1    2  502  501  0.28321314458E+02 -0.57016959593E+02  0.36645854945E+02  0.73457125036E+02  0.00000000000E+00 0. -1.
<scales pt_clust_5="13000.00000" pt_clust_6="13000.00000" pt_clust_7="13000.00000" pt_clust_8="13000.00000" pt_clust_9="63.66342"></scales>
<clustering>
<clus scale="   63.663">  1  9  2 -1</clus>
<clus scale="   86.769">  5  6 -1 -1</clus>
<clus scale="   95.041">  7  8 -1 -1</clus>
<clus scale="  123.657">  2  5  1 -1</clus>
<clus scale="  123.657">  2  5  1 -1</clus>
</clustering>
</event>
<event>
 9    1  0.1612788E-005  0.1211512E+03  0.7546771E-02  0.1241617E+00
         -2   -1    0    0    0  501 -0.00000000000E+00  0.00000000000E+00  0.11784344591E+03  0.11784344591E+03  0.00000000000E+00 0.  1.
          2   -1    0    0  502    0  0.00000000000E+00 -0.00000000000E+00 -0.30777479068E+03  0.30777479068E+03  0.00000000000E+00 0. -1.
         23    2    1    2    0    0 -0.32728629950E+02  0.40600481513E+02  0.22164383467E+02  0.10763216426E+03  0.91508800512E+02 0.  0.
         23    2    1    2    0    0  0.93703720374E+02  0.13532436952E+02 -0.19483160821E+03  0.23464110034E+03  0.90186342382E+02 0.  0.
        -11    1    4    4    0    0  0.43425216423E+02  0.22781342847E+02 -0.17163396398E+03  0.17850197925E+03  0.00000000000E+00 0. -1.
         11    1    4    4    0    0  0.50278503951E+02 -0.92489058950E+01 -0.23197644225E+02  0.56139121096E+02  0.00000000000E+00 0.  1.
        -13    1    3    3    0    0 -0.36496485400E+02  0.10067181214E+02  0.52301162594E+02  0.64565882576E+02  0.00000000000E+00 0.  1.
         13    1    3    3    0    0  0.37678554499E+01  0.30533300298E+02 -0.30136779127E+02  0.43066281682E+02  0.00000000000E+00 0. -1.
         21    1    1    2  502  501 -0.60975090424E+02 -0.54132918464E+02 -0.17264120031E+02  0.83344971979E+02  0.00000000000E+00 0.  1.
<scales pt_clust_5="13000.00000" pt_clust_6="13000.00000" pt_clust_7="13000.00000" pt_clust_8="13000.00000" pt_clust_9="81.53732"></scales>
<clustering>
<clus scale="   81.537">  1  9  2 -1</clus>
<clus scale="   90.186">  5  6 -1 -1</clus>
<clus scale="   91.509">  7  8 -1 -1</clus>
<clus scale="  120.155">  2  5  1 -1</clus>
<clus scale="  120.155">  2  5  1 -1</clus>
</clustering>
</event>
<event>
 9    1  0.1612788E-005  0.9635073E+02  0.7546771E-02  0.1290883E+00
         -1   -1    0    0    0  501 -0.00000000000E+00  0.00000000000E+00  0.20893321107E+03  0.20893321107E+03  0.00000000000E+00 0.  1.
          1   -1    0    0  502    0  0.00000000000E+00 -0.00000000000E+00 -0.98964391375E+02  0.98964391375E+02  0.00000000000E+00 0. -1.
         23    2    1    2    0    0 -0.33699669854E+01  0.25639972153E+02  0.12982426770E+03  0.15782492806E+03  0.85939528645E+02 0.  0.
         23    2    1    2    0    0  0.28264269879E+02 -0.19444712887E+02 -0.50909711785E+02  0.10979271842E+03  0.91025691167E+02 0.  0.
        -13    1    3    3    0    0 -0.24604678514E+02  0.48851990125E+02  0.10238523649E+03  0.11608033337E+03  0.00000000000E+00 0.  1.
         13    1    3    3    0    0  0.21234711529E+02 -0.23212017972E+02  0.27439031204E+02  0.41744594685E+02  0.00000000000E+00 0. -1.
        -13    1    4    4    0    0 -0.18640210820E+01  0.23489517746E+02  0.13162060662E+02  0.26990217846E+02  0.00000000000E+00 0.  1.
         13    1    4    4    0    0  0.30128290961E+02 -0.42934230632E+02 -0.64071772447E+02  0.82802500571E+02  0.00000000000E+00 0. -1.
         21    1    1    2  502  501 -0.24894302894E+02 -0.61952592665E+01  0.31054263787E+02  0.40279955975E+02  0.00000000000E+00 0.  1.
<scales pt_clust_5="13000.00000" pt_clust_6="13000.00000" pt_clust_7="13000.00000" pt_clust_8="13000.00000" pt_clust_9="25.65361"></scales>
<clustering>
<clus scale="   25.654">  1  9  2 -1</clus>
<clus scale="   85.940">  5  6 -1 -1</clus>
<clus scale="   91.026">  7  8 -1 -1</clus>
<clus scale="   91.561">  1  5  2 -1</clus>
<clus scale="   96.351">  2  5  1 -1</clus>
</clustering>
</event>
<event>
 9    1  0.1612788E-005  0.1276994E+03  0.7546771E-02  0.1231567E+00
         -1   -1    0    0    0  501 -0.00000000000E+00  0.00000000000E+00  0.46133186943E+03  0.46133186943E+03  0.00000000000E+00 0.  1.
          1   -1    0    0  502    0  0.00000000000E+00 -0.00000000000E+00 -0.12334309058E+03  0.12334309058E+03  0.00000000000E+00 0. -1.
         23    2    1    2    0    0 -0.54841992100E+02  0.15677001372E+02  0.24607457303E+03  0.26962671443E+03  0.94299825946E+02 0.  0.
         23    2    1    2    0    0  0.83314798503E+02  0.40870587946E+02 -0.64941802047E+02  0.14589701808E+03  0.91960543843E+02 0.  0.
        -13    1    4    4    0    0  0.34765481003E+02  0.67002381930E+02 -0.36081511785E+02  0.83665006701E+02  0.00000000000E+00 0.  1.
         13    1    4    4    0    0  0.48549317501E+02 -0.26131793985E+02 -0.28860290263E+02  0.62232011382E+02  0.00000000000E+00 0. -1.
        -13    1    3    3    0    0 -0.36370422836E+02  0.46922092249E+02  0.21084770250E+03  0.21904621441E+03  0.00000000000E+00 0.  1.
         13    1    3    3    0    0 -0.18471569263E+02 -0.31245090877E+02  0.35226870532E+02  0.50580500022E+02  0.00000000000E+00 0. -1.
         21    1    1    2  502  501 -0.28472806404E+02 -0.56547589317E+02  0.15685600786E+03  0.16915122750E+03  0.00000000000E+00 0.  1.
<scales pt_clust_5="13000.00000" pt_clust_6="13000.00000" pt_clust_7="13000.00000" pt_clust_8="13000.00000" pt_clust_9="63.31138"></scales>
<clustering>
<clus scale="   63.311">  1  9  2 -1</clus>
<clus scale="   91.961">  5  6 -1 -1</clus>
<clus scale="   94.300">  7  8 -1 -1</clus>
<clus scale="  125.982">  2  5  1 -1</clus>
<clus scale="  125.982">  2  5  1 -1</clus>
</clustering>
</event>
<event>
 9    1  0.1612788E-005  0.1397825E+03  0.7546771E-02  0.1214097E+00
          4   -1    0    0  502    0  0.00000000000E+00  0.00000000000E+00  0.53465028139E+02  0.53465028139E+02  0.00000000000E+00 0. -1.
         -4   -1    0    0    0  501 -0.00000000000E+00 -0.00000000000E+00 -0.61226271382E+03  0.61226271382E+03  0.00000000000E+00 0.  1.
         23    2    1    2    0    0  0.35163090731E+02  0.12436987358E+03 -0.29075434013E+03  0.33124673844E+03  0.92097812247E+02 0.  0.
         23    2    1    2    0    0 -0.55020637000E+01 -0.91948349901E+02 -0.11376259968E+03  0.17406441999E+03  0.94189816156E+02 0.  0.
        -13    1    4    4    0    0  0.30297503902E+02  0.10173106130E+01 -0.15145150390E+02  0.33887302105E+02  0.00000000000E+00 0.  1.
         13    1    4    4    0    0 -0.35799567602E+02 -0.92965660514E+02 -0.98617449288E+02  0.14017711789E+03  0.00000000000E+00 0. -1.
        -13    1    3    3    0    0  0.66042835800E+02  0.71687512024E+02 -0.17134986001E+03  0.19713327996E+03  0.00000000000E+00 0.  1.
         13    1    3    3    0    0 -0.30879745070E+02  0.52682361554E+02 -0.11940448012E+03  0.13411345848E+03  0.00000000000E+00 0. -1.
         21    1    1    2  502  501 -0.29661027031E+02 -0.32421523677E+02 -0.15428074587E+03  0.16041658352E+03  0.00000000000E+00 0.  1.
<scales pt_clust_5="13000.00000" pt_clust_6="13000.00000" pt_clust_7="13000.00000" pt_clust_8="13000.00000" pt_clust_9="43.94237"></scales>
<clustering>
<clus scale="   43.942">  2  9  1 -1</clus>
<clus scale="   92.098">  7  8 -1 -1</clus>
<clus scale="   94.190">  5  6 -1 -1</clus>
<clus scale="  138.382">  2  7  1 -1</clus>
<clus scale="  139.783">  1  5  2 -1</clus>
</clustering>
</event>
<event>
 9    1  0.1612788E-005  0.1038761E+03  0.7546771E-02  0.1273727E+00
          1   -1    0    0  502    0  0.00000000000E+00  0.00000000000E+00  0.31321974461E+03  0.31321974461E+03  0.00000000000E+00 0. -1.
         -1   -1    0    0    0  501 -0.00000000000E+00 -0.00000000000E+00 -0.22054010978E+03  0.22054010978E+03  0.00000000000E+00 0.  1.
         23    2    1    2    0    0 -0.17965617572E+02 -0.62484593090E+02  0.12911153314E+03  0.17094935953E+03  0.91251343794E+02 0.  0.
         23    2    1    2    0    0 -0.71572848925E+01  0.40474022088E+02  0.14705564703E+03  0.17630766710E+03  0.88145657655E+02 0.  0.
        -13    1    3    3    0    0  0.36875292098E+02 -0.16320705151E+02  0.48525302461E+02  0.63094037459E+02  0.00000000000E+00 0.  1.
         13    1    3    3    0    0 -0.54840909670E+02 -0.46163887939E+02  0.80586230681E+02  0.10785532207E+03  0.00000000000E+00 0. -1.
        -13    1    4    4    0    0 -0.50018888124E+01  0.68477341494E+02  0.95833738207E+02  0.11789092657E+03  0.00000000000E+00 0. -1.
         13    1    4    4    0    0 -0.21553960801E+01 -0.28003319406E+02  0.51221908826E+02  0.58416740527E+02  0.00000000000E+00 0.  1.
         21    1    1    2  502  501  0.25122902464E+02  0.22010571002E+02 -0.18348754535E+03  0.18650282776E+03  0.00000000000E+00 0.  1.
<scales pt_clust_5="13000.00000" pt_clust_6="13000.00000" pt_clust_7="13000.00000" pt_clust_8="13000.00000" pt_clust_9="33.40098"></scales>
<clustering>
<clus scale="   33.401">  2  9  1 -1</clus>
<clus scale="   88.146">  7  8 -1 -1</clus>
<clus scale="   91.251">  5  6 -1 -1</clus>
<clus scale="  101.159">  1  7  2 -1</clus>
<clus scale="  101.159">  1  5  2 -1</clus>
</clustering>
</event>
<event>
 9    1  0.1612788E-005  0.9387980E+02  0.7546771E-02  0.1293936E+00
          2   -1    0    0  502    0  0.00000000000E+00  0.00000000000E+00  0.75654181797E+03  0.75654181797E+03  0.00000000000E+00 0. -1.
         -2   -1    0    0    0  501 -0.00000000000E+00 -0.00000000000E+00 -0.32524691034E+02  0.32524691034E+02  0.00000000000E+00 0.  1.
         23    2    1    2    0    0 -0.69911941043E+02 -0.34311739233E+02  0.30245159179E+03  0.32514848263E+03  0.90441115832E+02 0.  0.
         23    2    1    2    0    0 -0.60176663350E+01  0.34694864598E+01  0.32473843576E+03  0.33706363343E+03  0.90047718893E+02 0.  0.
        -11    1    3    3    0    0 -0.12858012027E+02 -0.38353164261E+02  0.22641975168E+03  0.23000477742E+03  0.00000000000E+00 0. -1.
         11    1    3    3    0    0 -0.57053929015E+02  0.40414250283E+01  0.76031840105E+02  0.95143705215E+02  0.00000000000E+00 0.  1.
        -13    1    4    4    0    0  0.87821067150E+01  0.39602382838E+02  0.24434889337E+03  0.24769306775E+03  0.00000000000E+00 0.  1.
         13    1    4    4    0    0 -0.14799773050E+02 -0.36132896378E+02  0.80389542394E+02  0.89370565676E+02  0.00000000000E+00 0. -1.
         21    1    1    2  502  501  0.75929607378E+02  0.30842252773E+02  0.96827099391E+02  0.12685439294E+03  0.00000000000E+00 0.  1.
<scales pt_clust_5="13000.00000" pt_clust_6="13000.00000" pt_clust_7="13000.00000" pt_clust_8="13000.00000" pt_clust_9="81.95456"></scales>
<clustering>
<clus scale="   81.955">  2  9  1 -1</clus>
<clus scale="   90.048">  7  8 -1 -1</clus>
<clus scale="   90.441">  5  6 -1 -1</clus>
<clus scale="   93.501">  1  7  2 -1</clus>
<clus scale="   93.501">  1  5  2 -1</clus>
</clustering>
</event>
<event>
 9    1  0.1612788E-005  0.1062331E+03  0.7546771E-02  0.1268445E+00
          2   -1    0    0  502    0  0.00000000000E+00  0.00000000000E+00  0.17085611152E+03  0.17085611152E+03  0.00000000000E+00 0. -1.
         -2   -1    0    0    0  501 -0.00000000000E+00 -0.00000000000E+00 -0.25667946900E+03  0.25667946900E+03  0.00000000000E+00 0.  1.
         23    2    1    2    0    0  0.30495894752E+02 -0.47097337004E+02 -0.15796475084E+03  0.19080578610E+03  0.91136308625E+02 0.  0.
         23    2    1    2    0    0  0.59223783938E+02  0.53544693238E+02  0.80245233489E+02  0.14641445036E+03  0.92862279852E+02 0.  0.
        -11    1    4    4    0    0 -0.10620359604E+02  0.32272930363E+02 -0.48167570480E+01  0.34315233072E+02  0.00000000000E+00 0.  1.
         11    1    4    4    0    0  0.69844143543E+02  0.21271762875E+02  0.85061990537E+02  0.11209921729E+03  0.00000000000E+00 0. -1.
        -11    1    3    3    0    0 -0.20859736947E+02 -0.43782303904E+02 -0.11100963496E+03  0.12114106576E+03  0.00000000000E+00 0.  1.
         11    1    3    3    0    0  0.51355631698E+02 -0.33150331002E+01 -0.46955115887E+02  0.69664720336E+02  0.00000000000E+00 0. -1.
         21    1    1    2  502  501 -0.89719678690E+02 -0.64473562333E+01 -0.81038401275E+01  0.90315344053E+02  0.00000000000E+00 0.  1.
<scales pt_clust_5="13000.00000" pt_clust_6="13000.00000" pt_clust_7="13000.00000" pt_clust_8="13000.00000" pt_clust_9="89.95104"></scales>
<clustering>
<clus scale="   89.951">  1  9  2 -1</clus>
<clus scale="   91.136">  7  8 -1 -1</clus>
<clus scale="   92.862">  5  6 -1 -1</clus>
<clus scale="  104.728">  2  7  1 -1</clus>
<clus scale="   89.951">  1  5  2 -1</clus>
</clustering>
</event>
<event>
 9    1  0.1612788E-005  0.9686537E+02  0.7546771E-02  0.1287060E+00
         -1   -1    0    0    0  501 -0.00000000000E+00  0.00000000000E+00  0.48291349342E+02  0.48291349342E+02  0.00000000000E+00 0.  1.
          1   -1    0    0  502    0  0.00000000000E+00 -0.00000000000E+00 -0.57246514623E+03  0.57246514623E+03  0.00000000000E+00 0. -1.
         23    2    1    2    0    0 -0.11099410912E+00  0.21974370179E+02 -0.12453482425E+03  0.15608904257E+03  0.91498532743E+02 0.  0.
         23    2    1    2    0    0  0.34434013769E+02 -0.18562495048E+02 -0.41511488349E+03  0.42686250112E+03  0.91438289774E+02 0.  0.
        -11    1    4    4    0    0  0.61754691116E+02  0.32479839449E+01 -0.30932964315E+03  0.31545050231E+03  0.00000000000E+00 0. -1.
         11    1    4    4    0    0 -0.27320677347E+02 -0.21810478993E+02 -0.10578524034E+03  0.11141199881E+03  0.00000000000E+00 0.  1.
        -13    1    3    3    0    0  0.28470084399E+02  0.41262198292E+02 -0.10525719860E+03  0.11658555902E+03  0.00000000000E+00 0. -1.
         13    1    3    3    0    0 -0.28581078508E+02 -0.19287828113E+02 -0.19277625647E+02  0.39503483550E+02  0.00000000000E+00 0.  1.
         21    1    1    2  502  501 -0.34323019660E+02 -0.34118751310E+01  0.15475910853E+02  0.37804951887E+02  0.00000000000E+00 0.  1.
<scales pt_clust_5="13000.00000" pt_clust_6="13000.00000" pt_clust_7="13000.00000" pt_clust_8="13000.00000" pt_clust_9="34.49218"></scales>
<clustering>
<clus scale="   34.492">  1  9  2 -1</clus>
<clus scale="   91.438">  5  6 -1 -1</clus>
<clus scale="   91.499">  7  8 -1 -1</clus>
<clus scale="   96.808">  2  5  1 -1</clus>
<clus scale="   96.808">  2  5  1 -1</clus>
</clustering>
</event>
<event>
 9    1  0.1612788E-005  0.9569077E+02  0.7546771E-02  0.1289844E+00
         -1   -1    0    0    0  501 -0.00000000000E+00  0.00000000000E+00  0.21774611775E+03  0.21774611775E+03  0.00000000000E+00 0.  1.
          1   -1    0    0  502    0  0.00000000000E+00 -0.00000000000E+00 -0.54478278878E+02  0.54478278878E+02  0.00000000000E+00 0. -1.
         23    2    1    2    0    0  0.33667858183E+01  0.36556104420E+02  0.84706306874E+02  0.12998148906E+03  0.91500519440E+02 0.  0.
         23    2    1    2    0    0 -0.13257882630E+02 -0.16500067444E+02  0.52627617573E+02  0.10799898354E+03  0.91902614960E+02 0.  0.
        -11    1    4    4    0    0  0.32100158249E+02 -0.31469545635E+02  0.15668603247E+02  0.47605226497E+02  0.00000000000E+00 0.  1.
         11    1    4    4    0    0 -0.45358040879E+02  0.14969478191E+02  0.36959014326E+02  0.60393757042E+02  0.00000000000E+00 0. -1.
        -11    1    3    3    0    0 -0.36431601740E+02  0.66668057077E+01  0.69855892619E+01  0.37689605477E+02  0.00000000000E+00 0. -1.
         11    1    3    3    0    0  0.39798387558E+02  0.29889298712E+02  0.77720717613E+02  0.92291883586E+02  0.00000000000E+00 0.  1.
         21    1    1    2  502  501  0.98910968121E+01 -0.20056036976E+02  0.25933914427E+02  0.34243924028E+02  0.00000000000E+00 0. -1.
<scales pt_clust_5="13000.00000" pt_clust_6="13000.00000" pt_clust_7="13000.00000" pt_clust_8="13000.00000" pt_clust_9="22.36243"></scales>
<clustering>
<clus scale="   22.362">  1  9  2 -1</clus>
<clus scale="   91.501">  7  8 -1 -1</clus>
<clus scale="   91.903">  5  6 -1 -1</clus>
<clus scale="   95.305">  1  7  2 -1</clus>
<clus scale="   95.691">  2  5  1 -1</clus>
</clustering>
</event>
<event>
 9    1  0.1612788E-005  0.1124960E+03  0.7546771E-02  0.1257039E+00
         -2   -1    0    0    0  501 -0.00000000000E+00  0.00000000000E+00  0.30267598285E+02  0.30267598285E+02  0.00000000000E+00 0.  1.
          2   -1    0    0  502    0  0.00000000000E+00 -0.00000000000E+00 -0.55193089264E+03  0.55193089264E+03  0.00000000000E+00 0. -1.
         23    2    1    2    0    0 -0.32222241989E+02 -0.53470207636E+02 -0.21477572814E+03  0.24239542611E+03  0.93432292168E+02 0.  0.
         23    2    1    2    0    0  0.35787887939E+01  0.66214357922E+02 -0.26173456779E+03  0.28483349101E+03  0.90708239419E+02 0.  0.
        -13    1    3    3    0    0  0.29770928772E+02 -0.51526986960E+01 -0.35305532489E+02  0.46468689761E+02  0.00000000000E+00 0. -1.
         13    1    3    3    0    0 -0.61993170761E+02 -0.48317508940E+02 -0.17947019565E+03  0.19592673635E+03  0.00000000000E+00 0.  1.
        -13    1    4    4    0    0 -0.28872169359E+02 -0.52939483232E+01 -0.40076305998E+02  0.49676335964E+02  0.00000000000E+00 0.  1.
         13    1    4    4    0    0  0.32450958153E+02  0.71508306246E+02 -0.22165826179E+03  0.23515715504E+03  0.00000000000E+00 0. -1.
         21    1    1    2  502  501  0.28643453195E+02 -0.12744150286E+02 -0.45152998426E+02  0.54969573805E+02  0.00000000000E+00 0.  1.
<scales pt_clust_5="13000.00000" pt_clust_6="13000.00000" pt_clust_7="13000.00000" pt_clust_8="13000.00000" pt_clust_9="31.35061"></scales>
<clustering>
<clus scale="   31.351">  1  9  2 -1</clus>
<clus scale="   90.708">  7  8 -1 -1</clus>
<clus scale="   93.432">  5  6 -1 -1</clus>
<clus scale="  110.244">  2  7  1 -1</clus>
<clus scale="  110.244">  2  5  1 -1</clus>
</clustering>
</event>
<event>
 9    1  0.1612788E-005  0.1437384E+03  0.7546771E-02  0.1218829E+00
         -1   -1    0    0    0  501 -0.00000000000E+00  0.00000000000E+00  0.92418347602E+02  0.92418347602E+02  0.00000000000E+00 0.  1.
          1   -1    0    0  502    0  0.00000000000E+00 -0.00000000000E+00 -0.43173941688E+03  0.43173941688E+03  0.00000000000E+00 0. -1.
         23    2    1    2    0    0  0.77634267003E+02  0.20279659469E+02 -0.17828805310E+02  0.12257395228E+03  0.90929442304E+02 0.  0.
         23    2    1    2    0    0 -0.68743011477E+02  0.41141386154E+01 -0.34059941942E+03  0.36934726152E+03  0.12516751704E+03 0.  0.
        -13    1    3    3    0    0  0.35720580043E+02  0.30739788177E+02  0.31743271341E+02  0.56820152158E+02  0.00000000000E+00 0.  1.
         13    1    3    3    0    0  0.41913686960E+02 -0.10460128707E+02 -0.49572076652E+02  0.65753800124E+02  0.00000000000E+00 0. -1.
        -13    1    4    4    0    0  0.15516786959E+02  0.45889207435E+02 -0.12871221718E+03  0.13752608803E+03  0.00000000000E+00 0.  1.
         13    1    4    4    0    0 -0.84259798436E+02 -0.41775068819E+02 -0.21188720223E+03  0.23182117349E+03  0.00000000000E+00 0. -1.
         21    1    1    2  502  501 -0.88912555259E+01 -0.24393798085E+02  0.19107155456E+02  0.32236550675E+02  0.00000000000E+00 0.  1.
<scales pt_clust_5="13000.00000" pt_clust_6="13000.00000" pt_clust_7="13000.00000" pt_clust_8="13000.00000" pt_clust_9="25.96366"></scales>
<clustering>
<clus scale="   25.964">  1  9  2 -1</clus>
<clus scale="   90.929">  5  6 -1 -1</clus>
<clus scale="  115.161">  1  5  2 -1</clus>
<clus scale="  125.168">  7  8 -1 -1</clus>
<clus scale="  143.738">  2  5  1 -1</clus>
</clustering>
</event>
<event>
 9    1  0.1612788E-005  0.9669734E+02  0.7546771E-02  0.1288985E+00
         -1   -1    0    0    0  501 -0.00000000000E+00  0.00000000000E+00  0.84432309785E+02  0.84432309785E+02  0.00000000000E+00 0.  1.
          1   -1    0    0  502    0  0.00000000000E+00 -0.00000000000E+00 -0.33322702436E+03  0.33322702436E+03  0.00000000000E+00 0. -1.
         23    2    1    2    0    0  0.40022627004E+02 -0.17495590196E+01 -0.54407145217E+02  0.11341285578E+03  0.91090431858E+02 0.  0.
         23    2    1    2    0    0  0.47924491106E+02  0.16650790307E+02 -0.18620181047E+03  0.21467109712E+03  0.94013616298E+02 0.  0.
        -13    1    4    4    0    0  0.31667150381E+02  0.41430777656E+02 -0.17562507268E+03  0.18320339490E+03  0.00000000000E+00 0.  1.
         13    1    4    4    0    0  0.16257340725E+02 -0.24779987349E+02 -0.10576737795E+02  0.31467702217E+02  0.00000000000E+00 0. -1.
        -13    1    3    3    0    0 -0.23975328657E+02 -0.16459469828E+02 -0.33799395430E+02  0.44588447637E+02  0.00000000000E+00 0. -1.
         13    1    3    3    0    0  0.63997955661E+02  0.14709910808E+02 -0.20607749787E+02  0.68824408142E+02  0.00000000000E+00 0.  1.
         21    1    1    2  502  501 -0.87947118110E+02 -0.14901231287E+02 -0.81857588883E+01  0.89575381251E+02  0.00000000000E+00 0. -1.
<scales pt_clust_5="13000.00000" pt_clust_6="13000.00000" pt_clust_7="13000.00000" pt_clust_8="13000.00000" pt_clust_9="89.20057"></scales>
<clustering>
<clus scale="   89.201">  1  9  2 -1</clus>
<clus scale="   91.090">  7  8 -1 -1</clus>
<clus scale="   93.858">  1  7  2 -1</clus>
<clus scale="   94.014">  5  6 -1 -1</clus>
<clus scale="   96.697">  2  5  1 -1</clus>
</clustering>
</event>
<event>
 9    1  0.1612788E-005  0.9930369E+02  0.7546771E-02  0.1282500E+00
          1   -1    0    0  502    0  0.00000000000E+00  0.00000000000E+00  0.50252805278E+03  0.50252805278E+03  0.00000000000E+00 0. -1.
         -1   -1    0    0    0  501 -0.00000000000E+00 -0.00000000000E+00 -0.46141487759E+02  0.46141487759E+02  0.00000000000E+00 0.  1.
         23    2    1    2    0    0 -0.44657154829E+02 -0.12323439191E+02  0.69844632451E+02  0.12400335768E+03  0.91391637489E+02 0.  0.
         23    2    1    2    0    0  0.20731844992E+02 -0.49094800654E+02  0.28548862475E+03  0.30401631068E+03  0.89900241638E+02 0.  0.
        -11    1    4    4    0    0  0.41559980174E+02  0.64905865198E+01  0.83657701331E+02  0.93637442604E+02  0.00000000000E+00 0.  1.
         11    1    4    4    0    0 -0.20828135182E+02 -0.55585387174E+02  0.20183092342E+03  0.21037886807E+03  0.00000000000E+00 0. -1.
        -13    1    3    3    0    0  0.12943200857E+02  0.27588824314E+02  0.32669794910E+02  0.44676449891E+02  0.00000000000E+00 0.  1.
         13    1    3    3    0    0 -0.57600355685E+02 -0.39912263505E+02  0.37174837541E+02  0.79326907789E+02  0.00000000000E+00 0. -1.
         21    1    1    2  502  501  0.23925309836E+02  0.61418239846E+02  0.10105330781E+03  0.12064987218E+03  0.00000000000E+00 0.  1.
<scales pt_clust_5="13000.00000" pt_clust_6="13000.00000" pt_clust_7="13000.00000" pt_clust_8="13000.00000" pt_clust_9="65.91374"></scales>
<clustering>
<clus scale="   65.914">  1  9  2 -1</clus>
<clus scale="   89.900">  5  6 -1 -1</clus>
<clus scale="   91.392">  7  8 -1 -1</clus>
<clus scale="   97.933">  1  5  2 -1</clus>
<clus scale="   65.914">  1  5  2 -1</clus>
</clustering>
</event>
<event>
 9    1  0.1612788E-005  0.6017010E+03  0.7546771E-02  0.9902140E-01
         -1   -1    0    0    0  501 -0.00000000000E+00  0.00000000000E+00  0.29557348523E+03  0.29557348523E+03  0.00000000000E+00 0.  1.
          1   -1    0    0  502    0  0.00000000000E+00 -0.00000000000E+00 -0.21189493179E+04  0.21189493179E+04  0.00000000000E+00 0. -1.
         23    2    1    2    0    0  0.77059461703E+02 -0.69109452938E+03 -0.46180376846E+03  0.83958634932E+03  0.89959481057E+02 0.  0.
         23    2    1    2    0    0  0.12447407749E+02  0.56309451134E+03 -0.12735413851E+04  0.13956465077E+04  0.93226328464E+02 0.  0.
        -11    1    3    3    0    0  0.93108885382E+02 -0.63478016324E+03 -0.40989182372E+03  0.76133200861E+03  0.00000000000E+00 0.  1.
         11    1    3    3    0    0 -0.16049423679E+02 -0.56314366138E+02 -0.51911944740E+02  0.78254340714E+02  0.00000000000E+00 0. -1.
        -13    1    4    4    0    0  0.27966906878E+02  0.96314907301E+02 -0.28993161488E+03  0.30678828295E+03  0.00000000000E+00 0.  1.
         13    1    4    4    0    0 -0.15519499129E+02  0.46677960404E+03 -0.98360977018E+03  0.10888582247E+04  0.00000000000E+00 0. -1.
         21    1    1    2  502  501 -0.89506869452E+02  0.12800001804E+03 -0.88030679100E+02  0.17928994606E+03  0.00000000000E+00 0.  1.
<scales pt_clust_5="13000.00000" pt_clust_6="13000.00000" pt_clust_7="13000.00000" pt_clust_8="13000.00000" pt_clust_9="156.19054"></scales>
<clustering>
<clus scale="   89.959">  5  6 -1 -1</clus>
<clus scale="   93.226">  7  8 -1 -1</clus>
<clus scale="  156.191">  1  9  2 -1</clus>
<clus scale="  601.204">  1  5  2 -1</clus>
<clus scale="  601.701">  2  5  1 -1</clus>
</clustering>
</event>
<event>
 9    1  0.1612788E-005  0.1860987E+03  0.7546771E-02  0.1162140E+00
         -1   -1    0    0    0  501 -0.00000000000E+00  0.00000000000E+00  0.73300386304E+02  0.73300386304E+02  0.00000000000E+00 0.  1.
          1   -1    0    0  502    0  0.00000000000E+00 -0.00000000000E+00 -0.10982175388E+04  0.10982175388E+04  0.00000000000E+00 0. -1.
         23    2    1    2    0    0  0.10204218238E+03 -0.87235208896E+02 -0.11416584551E+03  0.19889801391E+03  0.92217086274E+02 0.  0.
         23    2    1    2    0    0 -0.14982965758E+03  0.77879298576E+02 -0.90316995005E+03  0.92333854740E+03  0.91235974279E+02 0.  0.
        -11    1    3    3    0    0  0.10828597224E+03 -0.43664175845E+02 -0.96477848952E+02  0.15146084436E+03  0.00000000000E+00 0.  1.
         11    1    3    3    0    0 -0.62437898557E+01 -0.43571033052E+02 -0.17687996556E+02  0.47437169552E+02  0.00000000000E+00 0. -1.
        -13    1    4    4    0    0 -0.33871486435E+02  0.57687357898E+02 -0.21472576717E+03  0.22490501093E+03  0.00000000000E+00 0.  1.
         13    1    4    4    0    0 -0.11595817114E+03  0.20191940678E+02 -0.68844418288E+03  0.69843353647E+03  0.00000000000E+00 0. -1.
         21    1    1    2  502  501  0.47787475198E+02  0.93559103205E+01 -0.75813569307E+01  0.49281363787E+02  0.00000000000E+00 0.  1.
<scales pt_clust_5="13000.00000" pt_clust_6="13000.00000" pt_clust_7="13000.00000" pt_clust_8="13000.00000" pt_clust_9="48.69472"></scales>
<clustering>
<clus scale="   48.695">  1  9  2 -1</clus>
<clus scale="   91.236">  7  8 -1 -1</clus>
<clus scale="   92.217">  5  6 -1 -1</clus>
<clus scale="  185.614">  2  7  1 -1</clus>
<clus scale="  185.614">  2  5  1 -1</clus>
</clustering>
</event>
<event>
 9    1  0.1612788E-005  0.9475677E+02  0.7546771E-02  0.1295060E+00
         -1   -1    0    0    0  501 -0.00000000000E+00  0.00000000000E+00  0.67311848899E+03  0.67311848899E+03  0.00000000000E+00 0.  1.
          1   -1    0    0  502    0  0.00000000000E+00 -0.00000000000E+00 -0.36115344220E+02  0.36115344220E+02  0.00000000000E+00 0. -1.
         23    2    1    2    0    0 -0.78689533462E+01  0.58539294372E+02  0.31364741310E+03  0.33115067050E+03  0.88302306962E+02 0.  0.
         23    2    1    2    0    0  0.12788660005E+02  0.20786111670E+02  0.93400241207E+02  0.13478036546E+03  0.94055991795E+02 0.  0.
        -11    1    4    4    0    0  0.11774535710E+02 -0.29114305795E+02  0.75475366205E+02  0.81748476420E+02  0.00000000000E+00 0.  1.
         11    1    4    4    0    0  0.10141242949E+01  0.49900417464E+02  0.17924875001E+02  0.53031889039E+02  0.00000000000E+00 0. -1.
        -13    1    3    3    0    0 -0.33143551294E+02  0.66833973444E+02  0.26925429621E+03  0.27939783648E+03  0.00000000000E+00 0. -1.
         13    1    3    3    0    0  0.25274597948E+02 -0.82946790715E+01  0.44393116884E+02  0.51752834019E+02  0.00000000000E+00 0.  1.
         21    1    1    2  502  501 -0.49197066588E+01 -0.79325406042E+02  0.22995549046E+03  0.24330279725E+03  0.00000000000E+00 0.  1.
<scales pt_clust_5="13000.00000" pt_clust_6="13000.00000" pt_clust_7="13000.00000" pt_clust_8="13000.00000" pt_clust_9="79.47782"></scales>
<clustering>
<clus scale="   79.478">  1  9  2 -1</clus>
<clus scale="   88.302">  7  8 -1 -1</clus>
<clus scale="   89.048">  1  7  2 -1</clus>
<clus scale="   94.056">  5  6 -1 -1</clus>
<clus scale="   94.757">  2  5  1 -1</clus>
</clustering>
</event>
<event>
 9    1  0.1612788E-005  0.9817925E+02  0.7546771E-02  0.1284388E+00
         -2   -1    0    0    0  501 -0.00000000000E+00  0.00000000000E+00  0.54034243061E+03  0.54034243061E+03  0.00000000000E+00 0.  1.
          2   -1    0    0  502    0  0.00000000000E+00 -0.00000000000E+00 -0.32410281240E+02  0.32410281240E+02  0.00000000000E+00 0. -1.
         23    2    1    2    0    0 -0.53906357717E+02 -0.18141875792E+02  0.19170197256E+03  0.21977062840E+03  0.91183659518E+02 0.  0.
         23    2    1    2    0    0  0.22464051821E+02 -0.11965077626E+02  0.12608541458E+03  0.15791779188E+03  0.91611683290E+02 0.  0.
        -11    1    3    3    0    0  0.13673424056E+02 -0.34902574168E+02  0.58751553247E+02  0.69691442932E+02  0.00000000000E+00 0. -1.
         11    1    3    3    0    0 -0.67579781772E+02  0.16760698376E+02  0.13295041931E+03  0.15007918547E+03  0.00000000000E+00 0.  1.
        -11    1    4    4    0    0 -0.34876518876E+02 -0.12921981943E+02  0.57963943534E+02  0.68870660925E+02  0.00000000000E+00 0.  1.
         11    1    4    4    0    0  0.57340570697E+02  0.95690431742E+00  0.68121471048E+02  0.89047130955E+02  0.00000000000E+00 0. -1.
         21    1    1    2  502  501  0.31442305896E+02  0.30106953418E+02  0.19014476222E+03  0.19506429157E+03  0.00000000000E+00 0. -1.
<scales pt_clust_5="13000.00000" pt_clust_6="13000.00000" pt_clust_7="13000.00000" pt_clust_8="13000.00000" pt_clust_9="43.53214"></scales>
<clustering>
<clus scale="   43.532">  1  9  2 -1</clus>
<clus scale="   91.184">  5  6 -1 -1</clus>
<clus scale="   91.612">  7  8 -1 -1</clus>
<clus scale="   97.780">  1  5  2 -1</clus>
<clus scale="   98.179">  2  5  1 -1</clus>
</clustering>
</event>
<event>
 9    1  0.1612788E-005  0.2071254E+03  0.7546771E-02  0.1144058E+00
          2   -1    0    0  502    0  0.00000000000E+00  0.00000000000E+00  0.15643590082E+03  0.15643590082E+03  0.00000000000E+00 0. -1.
         -2   -1    0    0    0  501 -0.00000000000E+00 -0.00000000000E+00 -0.36254962075E+03  0.36254962075E+03  0.00000000000E+00 0.  1.
         23    2    1    2    0    0 -0.11967416093E+03  0.15948115943E+03 -0.83337578369E+02  0.23467374610E+03  0.91490273434E+02 0.  0.
         23    2    1    2    0    0  0.79690226501E+02 -0.15466640154E+03 -0.54377137100E+02  0.20493721583E+03  0.93649140031E+02 0.  0.
        -11    1    4    4    0    0 -0.10026697589E+02 -0.55822417192E+02 -0.42594689606E+02  0.70929433301E+02  0.00000000000E+00 0.  1.
         11    1    4    4    0    0  0.89716924090E+02 -0.98843984350E+02 -0.11782447494E+02  0.13400778253E+03  0.00000000000E+00 0. -1.
        -13    1    3    3    0    0 -0.59527941688E+02  0.12762032944E+03 -0.21001726007E+02  0.14237835799E+03  0.00000000000E+00 0. -1.
         13    1    3    3    0    0 -0.60146219242E+02  0.31860829984E+02 -0.62335852362E+02  0.92295388108E+02  0.00000000000E+00 0.  1.
         21    1    1    2  502  501  0.39983934429E+02 -0.48147578828E+01 -0.68399004467E+02  0.79374559639E+02  0.00000000000E+00 0.  1.
<scales pt_clust_5="13000.00000" pt_clust_6="13000.00000" pt_clust_7="13000.00000" pt_clust_8="13000.00000" pt_clust_9="40.27278"></scales>
<clustering>
<clus scale="   40.273">  2  9  1 -1</clus>
<clus scale="   91.490">  7  8 -1 -1</clus>
<clus scale="   93.649">  5  6 -1 -1</clus>
<clus scale="  206.158">  2  7  1 -1</clus>
<clus scale="  207.125">  1  5  2 -1</clus>
</clustering>
</event>
<event>
 9    1  0.1612788E-005  0.1519483E+03  0.7546771E-02  0.1201678E+00
         -2   -1    0    0    0  501 -0.00000000000E+00  0.00000000000E+00  0.48811311281E+02  0.48811311281E+02  0.00000000000E+00 0.  1.
          2   -1    0    0  502    0  0.00000000000E+00 -0.00000000000E+00 -0.63715148754E+03  0.63715148754E+03  0.00000000000E+00 0. -1.
         23    2    1    2    0    0 -0.65653227569E+02  0.78068883884E+02 -0.11053879579E+03  0.17836943932E+03  0.95873534344E+02 0.  0.
         23    2    1    2    0    0  0.78271555406E+02 -0.95198034712E+02 -0.44844966975E+03  0.47134211224E+03  0.76597508300E+02 0.  0.
        -11    1    3    3    0    0 -0.42618593454E+02  0.39636091891E+02  0.95506290526E+00  0.58208903387E+02  0.00000000000E+00 0.  1.
         11    1    3    3    0    0 -0.23034634115E+02  0.38432791993E+02 -0.11149385869E+03  0.12016053593E+03  0.00000000000E+00 0. -1.
        -13    1    4    4    0    0  0.10568776699E+02 -0.67414835888E+02 -0.26954316077E+03  0.27804671308E+03  0.00000000000E+00 0.  1.
         13    1    4    4    0    0  0.67702778707E+02 -0.27783198824E+02 -0.17890650898E+03  0.19329539916E+03  0.00000000000E+00 0. -1.
         21    1    1    2  502  501 -0.12618327837E+02  0.17129150828E+02 -0.29351710727E+02  0.36251247263E+02  0.00000000000E+00 0. -1.
<scales pt_clust_5="13000.00000" pt_clust_6="13000.00000" pt_clust_7="13000.00000" pt_clust_8="13000.00000" pt_clust_9="21.27510"></scales>
<clustering>
<clus scale="   21.275">  1  9  2 -1</clus>
<clus scale="   76.598">  7  8 -1 -1</clus>
<clus scale="   95.874">  5  6 -1 -1</clus>
<clus scale="  140.584">  2  7  1 -1</clus>
<clus scale="  140.584">  2  5  1 -1</clus>
</clustering>
</event>
<event>
 9    1  0.1612788E-005  0.9866094E+02  0.7546771E-02  0.1284527E+00
         -1   -1    0    0    0  501 -0.00000000000E+00  0.00000000000E+00  0.11159610075E+03  0.11159610075E+03  0.00000000000E+00 0.  1.
          1   -1    0    0  502    0  0.00000000000E+00 -0.00000000000E+00 -0.13426424637E+03  0.13426424637E+03  0.00000000000E+00 0. -1.
         23    2    1    2    0    0 -0.39452777445E+02 -0.27953495356E+02 -0.60946593400E+01  0.10221467070E+03  0.89848619816E+02 0.  0.
         23    2    1    2    0    0  0.23928786028E+02  0.88670737099E+01 -0.44997112139E+02  0.10605327948E+03  0.92581565066E+02 0.  0.
        -13    1    4    4    0    0  0.14326167499E+02  0.42186406034E+02 -0.54215856578E+02  0.70173292881E+02  0.00000000000E+00 0.  1.
         13    1    4    4    0    0  0.96026185294E+01 -0.33319332324E+02  0.92187444384E+01  0.35879986596E+02  0.00000000000E+00 0. -1.
        -13    1    3    3    0    0  0.25936152230E+02 -0.25008943427E+01 -0.17131816599E+02  0.31183931840E+02  0.00000000000E+00 0.  1.
         13    1    3    3    0    0 -0.65388929675E+02 -0.25452601013E+02  0.11037157259E+02  0.71030738858E+02  0.00000000000E+00 0. -1.
         21    1    1    2  502  501  0.15523991416E+02  0.19086421646E+02  0.28423625866E+02  0.37592396946E+02  0.00000000000E+00 0.  1.
<scales pt_clust_5="13000.00000" pt_clust_6="13000.00000" pt_clust_7="13000.00000" pt_clust_8="13000.00000" pt_clust_9="24.60256"></scales>
<clustering>
<clus scale="   24.603">  1  9  2 -1</clus>
<clus scale="   89.849">  7  8 -1 -1</clus>
<clus scale="   92.582">  5  6 -1 -1</clus>
<clus scale="   96.101">  1  7  2 -1</clus>
<clus scale="   98.661">  2  5  1 -1</clus>
</clustering>
</event>
<event>
 9    1  0.1612788E-005  0.1254732E+03  0.7546771E-02  0.1235508E+00
         -1   -1    0    0    0  501 -0.00000000000E+00  0.00000000000E+00  0.80215856356E+03  0.80215856356E+03  0.00000000000E+00 0.  1.
          1   -1    0    0  502    0  0.00000000000E+00 -0.00000000000E+00 -0.29514875493E+02  0.29514875493E+02  0.00000000000E+00 0. -1.
         23    2    1    2    0    0 -0.49517251069E+02  0.38020618567E+02  0.49293144080E+03  0.50508521145E+03  0.90731140773E+02 0.  0.
         23    2    1    2    0    0  0.59334917890E+02 -0.69055387980E+02  0.18873312038E+03  0.22996139374E+03  0.94724721115E+02 0.  0.
        -11    1    3    3    0    0  0.65570967984E+01 -0.22052402153E+02  0.56858188801E+02  0.61336429574E+02  0.00000000000E+00 0. -1.
         11    1    3    3    0    0 -0.56074347867E+02  0.60073020720E+02  0.43607325200E+03  0.44374878187E+03  0.00000000000E+00 0.  1.
        -11    1    4    4    0    0 -0.11122684574E+02 -0.28425138808E+02  0.11891982235E+03  0.12277469925E+03  0.00000000000E+00 0.  1.
         11    1    4    4    0    0  0.70457602464E+02 -0.40630249172E+02  0.69813298030E+02  0.10718669448E+03  0.00000000000E+00 0. -1.
         21    1    1    2  502  501 -0.98176668212E+01  0.31034769413E+02  0.90979126889E+02  0.96626833870E+02  0.00000000000E+00 0. -1.
<scales pt_clust_5="13000.00000" pt_clust_6="13000.00000" pt_clust_7="13000.00000" pt_clust_8="13000.00000" pt_clust_9="32.55063"></scales>
<clustering>
<clus scale="   32.551">  1  9  2 -1</clus>
<clus scale="   90.731">  5  6 -1 -1</clus>
<clus scale="   94.725">  7  8 -1 -1</clus>
<clus scale="  122.486">  1  5  2 -1</clus>
<clus scale="  125.473">  2  5  1 -1</clus>
</clustering>
</event>
<event>
 9    1  0.1612788E-005  0.1444089E+03  0.7546771E-02  0.1226215E+00
         -3   -1    0    0    0  501 -0.00000000000E+00  0.00000000000E+00  0.86792087544E+03  0.86792087544E+03  0.00000000000E+00 0.  1.
          3   -1    0    0  502    0  0.00000000000E+00 -0.00000000000E+00 -0.39596662039E+02  0.39596662039E+02  0.00000000000E+00 0. -1.
         23    2    1    2    0    0  0.77848277277E+02 -0.31035509328E+02  0.34052330921E+03  0.36516206539E+03  0.10180202734E+03 0.  0.
         23    2    1    2    0    0  0.32185580613E+02 -0.40478834521E+01  0.10796636615E+03  0.14535097511E+03  0.91748966130E+02 0.  0.
        -11    1    3    3    0    0  0.74327362505E+02 -0.62111925139E+02  0.21519060423E+03  0.23598611021E+03  0.00000000000E+00 0. -1.
         11    1    3    3    0    0  0.35209147718E+01  0.31076415810E+02  0.12533270498E+03  0.12917595518E+03  0.00000000000E+00 0.  1.
        -13    1    4    4    0    0  0.48746666337E+01  0.36469751298E+02  0.82315691415E+02  0.90164728068E+02  0.00000000000E+00 0.  1.
         13    1    4    4    0    0  0.27310913980E+02 -0.40517634750E+02  0.25650674731E+02  0.55186247039E+02  0.00000000000E+00 0. -1.
         21    1    1    2  502  501 -0.11003385789E+03  0.35083392780E+02  0.37983453805E+03  0.39700449698E+03  0.00000000000E+00 0.  1.
<scales pt_clust_5="13000.00000" pt_clust_6="13000.00000" pt_clust_7="13000.00000" pt_clust_8="13000.00000" pt_clust_9="102.42210"></scales>
<clustering>
<clus scale="   91.749">  7  8 -1 -1</clus>
<clus scale="   97.315">  2  7  1 -1</clus>
<clus scale="  101.802">  5  6 -1 -1</clus>
<clus scale="  102.422">  1  9  2 -1</clus>
<clus scale="   97.315">  2  5  1 -1</clus>
</clustering>
</event>
<event>
 9    1  0.1612788E-005  0.9786555E+02  0.7546771E-02  0.1286937E+00
         -1   -1    0    0    0  501 -0.00000000000E+00  0.00000000000E+00  0.53001850393E+03  0.53001850393E+03  0.00000000000E+00 0.  1.
          1   -1    0    0  502    0  0.00000000000E+00 -0.00000000000E+00 -0.23793015331E+02  0.23793015331E+02  0.00000000000E+00 0. -1.
         23    2    1    2    0    0  0.15369775410E+02 -0.12544543589E+01  0.24674762718E+03  0.26302764213E+03  0.89784995153E+02 0.  0.
         23    2    1    2    0    0 -0.36869993005E+02  0.68929809740E+00  0.16044828735E+03  0.18944565483E+03  0.93734367788E+02 0.  0.
        -11    1    3    3    0    0 -0.18554921536E+02 -0.26034695679E+02  0.18860506447E+03  0.19129548044E+03  0.00000000000E+00 0.  1.
         11    1    3    3    0    0  0.33924696946E+02  0.24780241320E+02  0.58142562709E+02  0.71732161693E+02  0.00000000000E+00 0. -1.
        -13    1    4    4    0    0  0.97463687649E+01 -0.37310477334E+02  0.44932826836E+02  0.59211674106E+02  0.00000000000E+00 0.  1.
         13    1    4    4    0    0 -0.46616361770E+02  0.37999775431E+02  0.11551546052E+03  0.13023398073E+03  0.00000000000E+00 0. -1.
         21    1    1    2  502  501  0.21500217596E+02  0.56515626152E+00  0.99029574066E+02  0.10133822230E+03  0.00000000000E+00 0. -1.
<scales pt_clust_5="13000.00000" pt_clust_6="13000.00000" pt_clust_7="13000.00000" pt_clust_8="13000.00000" pt_clust_9="21.50764"></scales>
<clustering>
<clus scale="   21.508">  1  9  2 -1</clus>
<clus scale="   89.785">  5  6 -1 -1</clus>
<clus scale="   93.734">  7  8 -1 -1</clus>
<clus scale="   94.090">  1  5  2 -1</clus>
<clus scale="   97.866">  2  5  1 -1</clus>
</clustering>
</event>
<event>
 9    1  0.1612788E-005  0.1124079E+03  0.7546771E-02  0.1257696E+00
          1   -1    0    0  502    0  0.00000000000E+00  0.00000000000E+00  0.55112907630E+03  0.55112907630E+03  0.00000000000E+00 0. -1.
         -1   -1    0    0    0  501 -0.00000000000E+00 -0.00000000000E+00 -0.38328123910E+02  0.38328123910E+02  0.00000000000E+00 0.  1.
         23    2    1    2    0    0 -0.65731487973E+02  0.50476269817E+02  0.14519009556E+03  0.19088783611E+03  0.92138590185E+02 0.  0.
         23    2    1    2    0    0  0.47666290558E+02 -0.14520570671E+02  0.30962488949E+03  0.32798936645E+03  0.96054828550E+02 0.  0.
        -13    1    4    4    0    0 -0.80882378165E+01  0.33405449055E+02  0.87259105057E+02  0.93784300567E+02  0.00000000000E+00 0.  1.
         13    1    4    4    0    0  0.55754528375E+02 -0.47926019726E+02  0.22236578443E+03  0.23420506589E+03  0.00000000000E+00 0. -1.
        -13    1    3    3    0    0  0.11215992285E+02  0.45338342090E+02  0.58574828749E+02  0.74915781444E+02  0.00000000000E+00 0.  1.
         13    1    3    3    0    0 -0.76947480258E+02  0.51379277277E+01  0.86615266807E+02  0.11597205467E+03  0.00000000000E+00 0. -1.
         21    1    1    2  502  501  0.18065197415E+02 -0.35955699147E+02  0.57985967343E+02  0.70579997644E+02  0.00000000000E+00 0.  1.
<scales pt_clust_5="13000.00000" pt_clust_6="13000.00000" pt_clust_7="13000.00000" pt_clust_8="13000.00000" pt_clust_9="40.23883"></scales>
<clustering>
<clus scale="   40.239">  2  9  1 -1</clus>
<clus scale="   92.139">  7  8 -1 -1</clus>
<clus scale="   96.055">  5  6 -1 -1</clus>
<clus scale="  109.080">  2  7  1 -1</clus>
<clus scale="  112.408">  1  5  2 -1</clus>
</clustering>
</event>
<event>
 9    1  0.1612788E-005  0.1424668E+03  0.7546771E-02  0.1210195E+00
          2   -1    0    0  502    0  0.00000000000E+00  0.00000000000E+00  0.14373824532E+03  0.14373824532E+03  0.00000000000E+00 0. -1.
         -2   -1    0    0    0  501 -0.00000000000E+00 -0.00000000000E+00 -0.18194457666E+03  0.18194457666E+03  0.00000000000E+00 0.  1.
         23    2    1    2    0    0 -0.99832751159E+02  0.72453325414E+01 -0.19280102956E+02  0.13644907894E+03  0.90705874809E+02 0.  0.
         23    2    1    2    0    0  0.11755355156E+03  0.75564527759E+01  0.13185664690E+02  0.14968259523E+03  0.91406127253E+02 0.  0.
        -11    1    3    3    0    0 -0.10329234786E+02  0.36091885810E+02  0.83066856170E+01  0.38448905556E+02  0.00000000000E+00 0. -1.
         11    1    3    3    0    0 -0.89503516374E+02 -0.28846553268E+02 -0.27586788573E+02  0.98000173380E+02  0.00000000000E+00 0.  1.
        -11    1    4    4    0    0  0.38652164904E+02 -0.39272368532E+02 -0.75484869142E+01  0.55617339351E+02  0.00000000000E+00 0.  1.
         11    1    4    4    0    0  0.78901386659E+02  0.46828821307E+02  0.20734151604E+02  0.94065255884E+02  0.00000000000E+00 0. -1.
         21    1    1    2  502  501 -0.17720800403E+02 -0.14801785317E+02 -0.32111893074E+02  0.39551147800E+02  0.00000000000E+00 0. -1.
<scales pt_clust_5="13000.00000" pt_clust_6="13000.00000" pt_clust_7="13000.00000" pt_clust_8="13000.00000" pt_clust_9="23.08938"></scales>
<clustering>
<clus scale="   23.089">  2  9  1 -1</clus>
<clus scale="   90.706">  5  6 -1 -1</clus>
<clus scale="   91.406">  7  8 -1 -1</clus>
<clus scale="  142.019">  2  5  1 -1</clus>
<clus scale="  142.467">  1  5  2 -1</clus>
</clustering>
</event>
<event>
 9    1  0.1612788E-005  0.1589151E+03  0.7546771E-02  0.1190287E+00
         -2   -1    0    0    0  501 -0.00000000000E+00  0.00000000000E+00  0.47225016347E+03  0.47225016347E+03  0.00000000000E+00 0. -1.
          2   -1    0    0  502    0  0.00000000000E+00 -0.00000000000E+00 -0.95361036982E+02  0.95361036982E+02  0.00000000000E+00 0.  1.
         23    2    1    2    0    0  0.79233761454E+01 -0.84155339991E+02  0.16838760550E+03  0.20730960142E+03  0.86475337614E+02 0.  0.
         23    2    1    2    0    0 -0.48196856692E+02  0.16767516823E+03  0.10799166881E+03  0.22355458690E+03  0.88749950727E+02 0.  0.
        -11    1    4    4    0    0 -0.18640033609E+02  0.85714182901E+02  0.10439200570E+03  0.13635271489E+03  0.00000000000E+00 0. -1.
         11    1    4    4    0    0 -0.29556823083E+02  0.81960985327E+02  0.35996631074E+01  0.87201872004E+02  0.00000000000E+00 0.  1.
        -11    1    3    3    0    0  0.47362167040E+02 -0.44856195248E+02  0.92558636101E+02  0.11323583459E+03  0.00000000000E+00 0. -1.
         11    1    3    3    0    0 -0.39438790894E+02 -0.39299144742E+02  0.75828969397E+02  0.94073766824E+02  0.00000000000E+00 0.  1.
         21    1    1    2  502  501  0.40273480547E+02 -0.83519828237E+02  0.10050985218E+03  0.13674701214E+03  0.00000000000E+00 0.  1.
<scales pt_clust_5="13000.00000" pt_clust_6="13000.00000" pt_clust_7="13000.00000" pt_clust_8="13000.00000" pt_clust_9="92.72279"></scales>
<clustering>
<clus scale="   86.475">  7  8 -1 -1</clus>
<clus scale="   88.750">  5  6 -1 -1</clus>
<clus scale="   92.723">  1  9  2 -1</clus>
<clus scale="  157.656">  1  7  2 -1</clus>
<clus scale="  158.915">  2  5  1 -1</clus>
</clustering>
</event>
<event>
 9    1  0.1612788E-005  0.9441129E+02  0.7546771E-02  0.1293748E+00
          1   -1    0    0  502    0  0.00000000000E+00  0.00000000000E+00  0.63831941530E+03  0.63831941530E+03  0.00000000000E+00 0. -1.
         -1   -1    0    0    0  501 -0.00000000000E+00 -0.00000000000E+00 -0.21316180888E+02  0.21316180888E+02  0.00000000000E+00 0.  1.
         23    2    1    2    0    0  0.13903053431E+02  0.39143775740E+01  0.24188971773E+03  0.25897354801E+03  0.91367640765E+02 0.  0.
         23    2    1    2    0    0  0.13605000839E+02 -0.19565000776E+02  0.33978144178E+03  0.35322798264E+03  0.93545145472E+02 0.  0.
        -13    1    4    4    0    0 -0.33490702797E+02  0.96821776892E+01  0.75019621823E+02  0.82724333766E+02  0.00000000000E+00 0.  1.
         13    1    4    4    0    0  0.47095703636E+02 -0.29247178465E+02  0.26476181996E+03  0.27050364888E+03  0.00000000000E+00 0. -1.
        -13    1    3    3    0    0  0.28169110051E+02 -0.37028794518E+02  0.94392448601E+02  0.10523575788E+03  0.00000000000E+00 0. -1.
         13    1    3    3    0    0 -0.14266056619E+02  0.40943172092E+02  0.14749726913E+03  0.15373779012E+03  0.00000000000E+00 0.  1.
         21    1    1    2  502  501 -0.27508054271E+02  0.15650623202E+02  0.35332074910E+02  0.47434065542E+02  0.00000000000E+00 0. -1.
<scales pt_clust_5="13000.00000" pt_clust_6="13000.00000" pt_clust_7="13000.00000" pt_clust_8="13000.00000" pt_clust_9="31.64862"></scales>
<clustering>
<clus scale="   31.649">  2  9  1 -1</clus>
<clus scale="   91.368">  7  8 -1 -1</clus>
<clus scale="   92.254">  2  7  1 -1</clus>
<clus scale="   93.545">  5  6 -1 -1</clus>
<clus scale="   94.411">  1  5  2 -1</clus>
</clustering>
</event>
<event>
 9    1  0.1612788E-005  0.1054602E+03  0.7546771E-02  0.1271038E+00
          3   -1    0    0  502    0  0.00000000000E+00  0.00000000000E+00  0.77881583218E+02  0.77881583218E+02  0.00000000000E+00 0. -1.
         -3   -1    0    0    0  501 -0.00000000000E+00 -0.00000000000E+00 -0.26568063561E+03  0.26568063561E+03  0.00000000000E+00 0.  1.
         23    2    1    2    0    0  0.87094386679E+01  0.43088925391E+02 -0.13412469399E+03  0.16679509976E+03  0.88874416743E+02 0.  0.
         23    2    1    2    0    0  0.98514623269E+01 -0.51344810594E+02  0.12589495669E+02  0.10745936307E+03  0.93035898580E+02 0.  0.
        -11    1    3    3    0    0  0.18246776479E+02 -0.10293382652E+02  0.12257387423E+01  0.20985733577E+02  0.00000000000E+00 0. -1.
         11    1    3    3    0    0 -0.95373378116E+01  0.53382308043E+02 -0.13535043273E+03  0.14580936618E+03  0.00000000000E+00 0.  1.
        -13    1    4    4    0    0  0.44500555753E+02 -0.37912414358E+02  0.30797506151E+02  0.66076750902E+02  0.00000000000E+00 0. -1.
         13    1    4    4    0    0 -0.34649093426E+02 -0.13432396236E+02 -0.18208010481E+02  0.41382612164E+02  0.00000000000E+00 0.  1.
         21    1    1    2  502  501 -0.18560900995E+02  0.82558852025E+01 -0.66263854072E+02  0.69307756007E+02  0.00000000000E+00 0.  1.
<scales pt_clust_5="13000.00000" pt_clust_6="13000.00000" pt_clust_7="13000.00000" pt_clust_8="13000.00000" pt_clust_9="20.31420"></scales>
<clustering>
<clus scale="   20.314">  2  9  1 -1</clus>
<clus scale="   88.874">  5  6 -1 -1</clus>
<clus scale="   93.036">  7  8 -1 -1</clus>
<clus scale="  101.808">  2  5  1 -1</clus>
<clus scale="  105.460">  1  5  2 -1</clus>
</clustering>
</event>
<event>
 9    1  0.1612788E-005  0.2437720E+03  0.7546771E-02  0.1117500E+00
         -1   -1    0    0    0  501 -0.00000000000E+00  0.00000000000E+00  0.25942863386E+03  0.25942863386E+03  0.00000000000E+00 0.  1.
          1   -1    0    0  502    0  0.00000000000E+00 -0.00000000000E+00 -0.29617253684E+03  0.29617253684E+03  0.00000000000E+00 0. -1.
         23    2    1    2    0    0  0.65212703254E+01 -0.25329192235E+03  0.56078611696E+01  0.26810189170E+03  0.87451994453E+02 0.  0.
         23    2    1    2    0    0 -0.32488482901E+00  0.20929216133E+03 -0.65608720910E+02  0.23734690915E+03  0.90695847093E+02 0.  0.
        -11    1    4    4    0    0 -0.12472670661E+02  0.84469769953E+02 -0.72117484465E+02  0.11176601055E+03  0.00000000000E+00 0. -1.
         11    1    4    4    0    0  0.12147785832E+02  0.12482239138E+03  0.65087635552E+01  0.12558089860E+03  0.00000000000E+00 0.  1.
        -13    1    3    3    0    0 -0.38141181408E+02 -0.15491400954E+03  0.11058430659E+02  0.15992307200E+03  0.00000000000E+00 0.  1.
         13    1    3    3    0    0  0.44662451733E+02 -0.98377912813E+02 -0.54505694896E+01  0.10817881970E+03  0.00000000000E+00 0. -1.
         21    1    1    2  502  501 -0.61963854964E+01  0.43999761019E+02  0.23256956766E+02  0.50152369843E+02  0.00000000000E+00 0.  1.
<scales pt_clust_5="13000.00000" pt_clust_6="13000.00000" pt_clust_7="13000.00000" pt_clust_8="13000.00000" pt_clust_9="44.43393"></scales>
<clustering>
<clus scale="   44.434">  1  9  2 -1</clus>
<clus scale="   87.452">  7  8 -1 -1</clus>
<clus scale="   90.696">  5  6 -1 -1</clus>
<clus scale="  242.584">  1  7  2 -1</clus>
<clus scale="  243.772">  2  5  1 -1</clus>
</clustering>
</event>
<event>
 9    1  0.1612788E-005  0.9182587E+02  0.7546771E-02  0.1298562E+00
          1   -1    0    0  502    0  0.00000000000E+00  0.00000000000E+00  0.39887389714E+03  0.39887389714E+03  0.00000000000E+00 0. -1.
         -1   -1    0    0    0  501 -0.00000000000E+00 -0.00000000000E+00 -0.24212014829E+03  0.24212014829E+03  0.00000000000E+00 0.  1.
         23    2    1    2    0    0 -0.52369749806E+02 -0.23318004170E+02 -0.21271503283E+02  0.10960414371E+03  0.90963022451E+02 0.  0.
         23    2    1    2    0    0 -0.17357032069E+02  0.68360790122E+00  0.34062890092E+03  0.35302486422E+03  0.91086622143E+02 0.  0.
        -11    1    3    3    0    0 -0.39071064509E+02  0.20324962617E+02 -0.40744527917E+02  0.59998072823E+02  0.00000000000E+00 0.  1.
         11    1    3    3    0    0 -0.13298685297E+02 -0.43642966787E+02  0.19473024634E+02  0.49606070888E+02  0.00000000000E+00 0. -1.
        -13    1    4    4    0    0 -0.40726661739E+02 -0.31197553458E+02  0.15626723665E+03  0.16447309071E+03  0.00000000000E+00 0. -1.
         13    1    4    4    0    0  0.23369629670E+02  0.31881161359E+02  0.18436166427E+03  0.18855177350E+03  0.00000000000E+00 0.  1.
         21    1    1    2  502  501  0.69726781876E+02  0.22634396269E+02 -0.16260364879E+03  0.17836503750E+03  0.00000000000E+00 0.  1.
<scales pt_clust_5="13000.00000" pt_clust_6="13000.00000" pt_clust_7="13000.00000" pt_clust_8="13000.00000" pt_clust_9="73.30853"></scales>
<clustering>
<clus scale="   73.309">  2  9  1 -1</clus>
<clus scale="   90.963">  5  6 -1 -1</clus>
<clus scale="   91.087">  7  8 -1 -1</clus>
<clus scale="   91.703">  2  5  1 -1</clus>
<clus scale="   91.826">  1  5  2 -1</clus>
</clustering>
</event>
<event>
 9    1  0.1612788E-005  0.9996852E+02  0.7546771E-02  0.1280451E+00
          1   -1    0    0  502    0  0.00000000000E+00  0.00000000000E+00  0.34670683562E+03  0.34670683562E+03  0.00000000000E+00 0. -1.
         -1   -1    0    0    0  501 -0.00000000000E+00 -0.00000000000E+00 -0.67902908981E+02  0.67902908981E+02  0.00000000000E+00 0.  1.
         23    2    1    2    0    0 -0.14036245267E+02 -0.46744598396E+02  0.12481280374E+03  0.16148737983E+03  0.90099190924E+02 0.  0.
         23    2    1    2    0    0 -0.99070407040E+01  0.40337422762E+02  0.18704491696E+03  0.21180788614E+03  0.90285782591E+02 0.  0.
        -13    1    3    3    0    0  0.51233373820E+01  0.25469144650E+02  0.20068885155E+02  0.32828129196E+02  0.00000000000E+00 0.  1.
         13    1    3    3    0    0 -0.19159582649E+02 -0.72213743046E+02  0.10474391859E+03  0.12865925063E+03  0.00000000000E+00 0. -1.
        -13    1    4    4    0    0 -0.27731679709E+02  0.59952876042E+02  0.16356177342E+03  0.17639684557E+03  0.00000000000E+00 0.  1.
         13    1    4    4    0    0  0.17824639005E+02 -0.19615453280E+02  0.23483143546E+02  0.35411040564E+02  0.00000000000E+00 0. -1.
         21    1    1    2  502  501  0.23943285971E+02  0.64071756336E+01 -0.33053794066E+02  0.41314478635E+02  0.00000000000E+00 0.  1.
<scales pt_clust_5="13000.00000" pt_clust_6="13000.00000" pt_clust_7="13000.00000" pt_clust_8="13000.00000" pt_clust_9="24.78574"></scales>
<clustering>
<clus scale="   24.786">  2  9  1 -1</clus>
<clus scale="   90.099">  5  6 -1 -1</clus>
<clus scale="   90.286">  7  8 -1 -1</clus>
<clus scale="   99.800">  2  5  1 -1</clus>
<clus scale="   99.969">  1  5  2 -1</clus>
</clustering>
</event>
<event>
 9    1  0.1612788E-005  0.9299342E+02  0.7546771E-02  0.1297366E+00
         -1   -1    0    0    0  501 -0.00000000000E+00  0.00000000000E+00  0.19930846221E+03  0.19930846221E+03  0.00000000000E+00 0.  1.
          1   -1    0    0  502    0  0.00000000000E+00 -0.00000000000E+00 -0.87722303342E+02  0.87722303342E+02  0.00000000000E+00 0. -1.
         23    2    1    2    0    0  0.13398350280E+02  0.32394004750E+01  0.10817989040E+03  0.14083882017E+03  0.89121686899E+02 0.  0.
         23    2    1    2    0    0 -0.27851121676E+01  0.17746574794E+02 -0.35996836227E+02  0.10030451092E+03  0.91883213517E+02 0.  0.
        -11    1    3    3    0    0 -0.16749759502E+02 -0.19612825515E+02  0.98456810942E+02  0.10177898108E+03  0.00000000000E+00 0. -1.
         11    1    3    3    0    0  0.30148109782E+02  0.22852225990E+02  0.97230794536E+01  0.39059839096E+02  0.00000000000E+00 0.  1.
        -11    1    4    4    0    0 -0.39452541709E+01 -0.37152421999E+02 -0.63368643803E+01  0.37894898615E+02  0.00000000000E+00 0. -1.
         11    1    4    4    0    0  0.11601420033E+01  0.54898996793E+02 -0.29659971847E+02  0.62409612307E+02  0.00000000000E+00 0.  1.
         21    1    1    2  502  501 -0.10613238112E+02 -0.20985975269E+02  0.39403104698E+02  0.45887434457E+02  0.00000000000E+00 0. -1.
<scales pt_clust_5="13000.00000" pt_clust_6="13000.00000" pt_clust_7="13000.00000" pt_clust_8="13000.00000" pt_clust_9="23.51706"></scales>
<clustering>
<clus scale="   23.517">  1  9  2 -1</clus>
<clus scale="   89.122">  5  6 -1 -1</clus>
<clus scale="   90.266">  1  5  2 -1</clus>
<clus scale="   91.883">  7  8 -1 -1</clus>
<clus scale="   92.993">  2  5  1 -1</clus>
</clustering>
</event>
<event>
 9    1  0.1612788E-005  0.1697808E+03  0.7546771E-02  0.1178160E+00
         -2   -1    0    0    0  501 -0.00000000000E+00  0.00000000000E+00  0.73733894990E+03  0.73733894990E+03  0.00000000000E+00 0.  1.
          2   -1    0    0  502    0  0.00000000000E+00 -0.00000000000E+00 -0.45461388243E+02  0.45461388243E+02  0.00000000000E+00 0. -1.
         23    2    1    2    0    0  0.58772391754E+02  0.13675895405E+03  0.36511596028E+03  0.40496149369E+03  0.92341439091E+02 0.  0.
         23    2    1    2    0    0 -0.71860207021E+02 -0.11715594694E+03  0.27965348332E+03  0.32516300955E+03  0.92927427542E+02 0.  0.
        -13    1    4    4    0    0  0.21088098211E+02 -0.10504736861E+02  0.52715739984E+02  0.57740857499E+02  0.00000000000E+00 0.  1.
         13    1    4    4    0    0 -0.92948305232E+02 -0.10665121008E+03  0.22693774333E+03  0.26742215205E+03  0.00000000000E+00 0. -1.
        -13    1    3    3    0    0  0.35393770197E+02 -0.47492220436E+00  0.87753096028E+02  0.94623202136E+02  0.00000000000E+00 0. -1.
         13    1    3    3    0    0  0.23378621557E+02  0.13723387625E+03  0.27736286425E+03  0.31033829155E+03  0.00000000000E+00 0.  1.
         21    1    1    2  502  501  0.13087815267E+02 -0.19603007111E+02  0.47108118054E+02  0.52675834904E+02  0.00000000000E+00 0.  1.
<scales pt_clust_5="13000.00000" pt_clust_6="13000.00000" pt_clust_7="13000.00000" pt_clust_8="13000.00000" pt_clust_9="23.57051"></scales>
<clustering>
<clus scale="   23.571">  1  9  2 -1</clus>
<clus scale="   92.341">  7  8 -1 -1</clus>
<clus scale="   92.927">  5  6 -1 -1</clus>
<clus scale="  169.461">  1  7  2 -1</clus>
<clus scale="  169.781">  2  5  1 -1</clus>
</clustering>
</event>
<event>
 9    1  0.1612788E-005  0.1083659E+03  0.7546771E-02  0.1263807E+00
          1   -1    0    0  502    0  0.00000000000E+00  0.00000000000E+00  0.57000072420E+02  0.57000072420E+02  0.00000000000E+00 0. -1.
         -1   -1    0    0    0  501 -0.00000000000E+00 -0.00000000000E+00 -0.59796442997E+03  0.59796442997E+03  0.00000000000E+00 0.  1.
         23    2    1    2    0    0  0.73446037953E+02 -0.38977480610E+02 -0.20814986252E+03  0.24201296452E+03  0.91270725016E+02 0.  0.
         23    2    1    2    0    0 -0.50546460363E+02 -0.33402686048E+02 -0.49911960112E+02  0.12004007779E+03  0.90817027170E+02 0.  0.
        -11    1    4    4    0    0 -0.46039365598E+02 -0.62215877851E+02 -0.47421766336E+02  0.90770383737E+02  0.00000000000E+00 0. -1.
         11    1    4    4    0    0 -0.45070947654E+01  0.28813191803E+02 -0.24901937758E+01  0.29269694056E+02  0.00000000000E+00 0.  1.
        -11    1    3    3    0    0  0.68409269133E+02  0.32449558541E+00 -0.18227394884E+03  0.19468879225E+03  0.00000000000E+00 0.  1.
         11    1    3    3    0    0  0.50367688202E+01 -0.39301976196E+02 -0.25875913681E+02  0.47324172279E+02  0.00000000000E+00 0. -1.
         21    1    1    2  502  501 -0.22899577590E+02  0.72380166658E+02 -0.28290253491E+03  0.29291146007E+03  0.00000000000E+00 0.  1.
<scales pt_clust_5="13000.00000" pt_clust_6="13000.00000" pt_clust_7="13000.00000" pt_clust_8="13000.00000" pt_clust_9="75.91626"></scales>
<clustering>
<clus scale="   75.916">  2  9  1 -1</clus>
<clus scale="   90.817">  5  6 -1 -1</clus>
<clus scale="   91.271">  7  8 -1 -1</clus>
<clus scale="  107.984">  1  5  2 -1</clus>
<clus scale="  107.984">  1  5  2 -1</clus>
</clustering>
</event>
<event>
 9    1  0.1612788E-005  0.1543315E+03  0.7546771E-02  0.1195515E+00
         -1   -1    0    0    0  501 -0.00000000000E+00  0.00000000000E+00  0.20860595930E+03  0.20860595930E+03  0.00000000000E+00 0.  1.
          1   -1    0    0  502    0  0.00000000000E+00 -0.00000000000E+00 -0.16333110716E+03  0.16333110716E+03  0.00000000000E+00 0. -1.
         23    2    1    2    0    0 -0.12482122906E+03  0.17905727575E+02  0.99673030384E+02  0.18934219339E+03  0.10007396718E+03 0.  0.
         23    2    1    2    0    0  0.10111178238E+03  0.31486017784E+01 -0.35627684626E+02  0.14574715840E+03  0.98688378454E+02 0.  0.
        -13    1    4    4    0    0  0.76851624176E+02  0.78889271194E+01 -0.69430743823E+02  0.10387028207E+03  0.00000000000E+00 0. -1.
         13    1    4    4    0    0  0.24260158205E+02 -0.47403253410E+01  0.33803059197E+02  0.41876876334E+02  0.00000000000E+00 0.  1.
        -13    1    3    3    0    0 -0.11953082389E+03 -0.32665112354E+01  0.11237404290E+03  0.16409208839E+03  0.00000000000E+00 0.  1.
         13    1    3    3    0    0 -0.52904051732E+01  0.21172238810E+02 -0.12701012521E+02  0.25250104994E+02  0.00000000000E+00 0. -1.
         21    1    1    2  502  501  0.23709446678E+02 -0.21054329353E+02 -0.18770493619E+02  0.36847714678E+02  0.00000000000E+00 0. -1.
<scales pt_clust_5="13000.00000" pt_clust_6="13000.00000" pt_clust_7="13000.00000" pt_clust_8="13000.00000" pt_clust_9="31.70840"></scales>
<clustering>
<clus scale="   31.708">  2  9  1 -1</clus>
<clus scale="   98.688">  5  6 -1 -1</clus>
<clus scale="  100.074">  7  8 -1 -1</clus>
<clus scale="  153.437">  2  5  1 -1</clus>
<clus scale="   31.708">  2  5  1 -1</clus>
</clustering>
</event>
<event>
 9    1  0.1612788E-005  0.2457948E+03  0.7546771E-02  0.1116199E+00
         -1   -1    0    0    0  501 -0.00000000000E+00  0.00000000000E+00  0.24816736462E+03  0.24816736462E+03  0.00000000000E+00 0.  1.
          1   -1    0    0  502    0  0.00000000000E+00 -0.00000000000E+00 -0.47986858856E+03  0.47986858856E+03  0.00000000000E+00 0. -1.
         23    2    1    2    0    0  0.21054152223E+03  0.13064704115E+03  0.82831139968E+02  0.27603954656E+03  0.89109211488E+02 0.  0.
         23    2    1    2    0    0 -0.20100648455E+03 -0.97810719215E+02 -0.33417204400E+03  0.41256471865E+03  0.92564293681E+02 0.  0.
        -11    1    4    4    0    0 -0.17736495544E+02  0.17828619645E+02 -0.38401231183E+02  0.45903131800E+02  0.00000000000E+00 0.  1.
         11    1    4    4    0    0 -0.18326998901E+03 -0.11563933886E+03 -0.29577081281E+03  0.36666158686E+03  0.00000000000E+00 0. -1.
        -13    1    3    3    0    0  0.58760528196E+02  0.86352916507E+00 -0.26143446492E+01  0.58824996000E+02  0.00000000000E+00 0. -1.
         13    1    3    3    0    0  0.15178099404E+03  0.12978351198E+03  0.85445484617E+02  0.21721455056E+03  0.00000000000E+00 0.  1.
         21    1    1    2  502  501 -0.95350376773E+01 -0.32836321934E+02  0.19639680084E+02  0.39431687961E+02  0.00000000000E+00 0.  1.
<scales pt_clust_5="13000.00000" pt_clust_6="13000.00000" pt_clust_7="13000.00000" pt_clust_8="13000.00000" pt_clust_9="34.19270"></scales>
<clustering>
<clus scale="   34.193">  1  9  2 -1</clus>
<clus scale="   89.109">  7  8 -1 -1</clus>
<clus scale="   92.564">  5  6 -1 -1</clus>
<clus scale="  244.515">  1  7  2 -1</clus>
<clus scale="  245.795">  2  5  1 -1</clus>
</clustering>
</event>
<event>
 9    1  0.1612788E-005  0.1034202E+03  0.7546771E-02  0.1274125E+00
          2   -1    0    0  502    0  0.00000000000E+00  0.00000000000E+00  0.11706091118E+03  0.11706091118E+03  0.00000000000E+00 0. -1.
         -2   -1    0    0    0  501 -0.00000000000E+00 -0.00000000000E+00 -0.27957147350E+03  0.27957147350E+03  0.00000000000E+00 0.  1.
         23    2    1    2    0    0 -0.15972974777E+02  0.62384711039E+02 -0.16723851190E+03  0.20096025375E+03  0.90935777509E+02 0.  0.
         23    2    1    2    0    0 -0.78576095613E+01 -0.47112153617E+02  0.71096955520E+02  0.12351956542E+03  0.89000050059E+02 0.  0.
        -11    1    4    4    0    0  0.15919178205E+02 -0.47338929965E+02  0.83046629950E+02  0.96907880335E+02  0.00000000000E+00 0. -1.
         11    1    4    4    0    0 -0.23776787766E+02  0.22677634780E+00 -0.11949674430E+02  0.26611685083E+02  0.00000000000E+00 0.  1.
        -13    1    3    3    0    0 -0.34516512289E+02  0.28861588228E+02 -0.15398294732E+03  0.16042172222E+03  0.00000000000E+00 0.  1.
         13    1    3    3    0    0  0.18543537512E+02  0.33523122811E+02 -0.13255564584E+02  0.40538531534E+02  0.00000000000E+00 0. -1.
         21    1    1    2  502  501  0.23830584339E+02 -0.15272557422E+02 -0.66369005937E+02  0.72152565507E+02  0.00000000000E+00 0. -1.
<scales pt_clust_5="13000.00000" pt_clust_6="13000.00000" pt_clust_7="13000.00000" pt_clust_8="13000.00000" pt_clust_9="28.30455"></scales>
<clustering>
<clus scale="   28.305">  2  9  1 -1</clus>
<clus scale="   89.000">  5  6 -1 -1</clus>
<clus scale="   90.936">  7  8 -1 -1</clus>
<clus scale="  101.722">  1  5  2 -1</clus>
<clus scale="  101.722">  1  5  2 -1</clus>
</clustering>
</event>
<event>
 9    1  0.1612788E-005  0.1017083E+03  0.7546771E-02  0.1279094E+00
          3   -1    0    0  502    0  0.00000000000E+00  0.00000000000E+00  0.11054349510E+03  0.11054349510E+03  0.00000000000E+00 0. -1.
         -3   -1    0    0    0  501 -0.00000000000E+00 -0.00000000000E+00 -0.11603992205E+03  0.11603992205E+03  0.00000000000E+00 0.  1.
         23    2    1    2    0    0 -0.43659637921E+02 -0.81688404761E+00  0.18316904981E+01  0.10109367721E+03  0.91157803832E+02 0.  0.
         23    2    1    2    0    0  0.22177457088E+02  0.14332399878E+02 -0.16775517736E+01  0.99488160098E+02  0.95905278950E+02 0.  0.
        -11    1    3    3    0    0 -0.54193993719E+02  0.30500919699E+02  0.17388064121E+02  0.64572748366E+02  0.00000000000E+00 0.  1.
         11    1    3    3    0    0  0.10534355798E+02 -0.31317803746E+02 -0.15556373623E+02  0.36520928847E+02  0.00000000000E+00 0. -1.
        -11    1    4    4    0    0 -0.18593025691E+02 -0.11733900435E+02 -0.34575342038E+02  0.40973641537E+02  0.00000000000E+00 0.  1.
         11    1    4    4    0    0  0.40770482779E+02  0.26066300313E+02  0.32897790265E+02  0.58514518561E+02  0.00000000000E+00 0. -1.
         21    1    1    2  502  501  0.21482180833E+02 -0.13515515831E+02 -0.56505656685E+01  0.26001579835E+02  0.00000000000E+00 0.  1.
<scales pt_clust_5="13000.00000" pt_clust_6="13000.00000" pt_clust_7="13000.00000" pt_clust_8="13000.00000" pt_clust_9="25.38017"></scales>
<clustering>
<clus scale="   25.380">  2  9  1 -1</clus>
<clus scale="   91.158">  5  6 -1 -1</clus>
<clus scale="   95.905">  7  8 -1 -1</clus>
<clus scale="   97.245">  2  5  1 -1</clus>
<clus scale="  101.708">  1  5  2 -1</clus>
</clustering>
</event>
<event>
 9    1  0.1612788E-005  0.9360699E+02  0.7546771E-02  0.1295256E+00
          2   -1    0    0  502    0  0.00000000000E+00  0.00000000000E+00  0.51955789589E+03  0.51955789589E+03  0.00000000000E+00 0. -1.
         -2   -1    0    0    0  501 -0.00000000000E+00 -0.00000000000E+00 -0.38517342584E+02  0.38517342584E+02  0.00000000000E+00 0.  1.
         23    2    1    2    0    0  0.20176855583E+02  0.23922933489E+02  0.62525486795E+02  0.11529193894E+03  0.91669964748E+02 0.  0.
         23    2    1    2    0    0  0.81551601284E+01 -0.17571045815E+02  0.39447036912E+03  0.40508453213E+03  0.90063076631E+02 0.  0.
        -11    1    3    3    0    0  0.20310086258E+01 -0.33891135260E+02  0.10817514349E+02  0.35633588957E+02  0.00000000000E+00 0. -1.
         11    1    3    3    0    0  0.18145846958E+02  0.57814068749E+02  0.51707972446E+02  0.79658349980E+02  0.00000000000E+00 0.  1.
        -11    1    4    4    0    0 -0.22463767525E+02  0.27760403761E+02  0.19532008206E+03  0.19855778838E+03  0.00000000000E+00 0.  1.
         11    1    4    4    0    0  0.30618927653E+02 -0.45331449576E+02  0.19915028705E+03  0.20652674375E+03  0.00000000000E+00 0. -1.
         21    1    1    2  502  501 -0.28332015712E+02 -0.63518876742E+01  0.24044697396E+02  0.37698767409E+02  0.00000000000E+00 0.  1.
<scales pt_clust_5="13000.00000" pt_clust_6="13000.00000" pt_clust_7="13000.00000" pt_clust_8="13000.00000" pt_clust_9="29.03532"></scales>
<clustering>
<clus scale="   29.035">  2  9  1 -1</clus>
<clus scale="   90.063">  7  8 -1 -1</clus>
<clus scale="   91.670">  5  6 -1 -1</clus>
<clus scale="   92.034">  1  7  2 -1</clus>
<clus scale="   92.034">  1  5  2 -1</clus>
</clustering>
</event>
<event>
 9    1  0.1612788E-005  0.1133902E+03  0.7546771E-02  0.1254788E+00
         -1   -1    0    0    0  501 -0.00000000000E+00  0.00000000000E+00  0.45563734024E+02  0.45563734024E+02  0.00000000000E+00 0.  1.
          1   -1    0    0  502    0  0.00000000000E+00 -0.00000000000E+00 -0.39888843747E+03  0.39888843747E+03  0.00000000000E+00 0. -1.
         23    2    1    2    0    0 -0.86391272578E+02 -0.34370837999E+01 -0.18736552196E+03  0.22532768840E+03  0.90506700398E+02 0.  0.
         23    2    1    2    0    0  0.48264435443E+02  0.65504463730E+01 -0.13291366651E+03  0.16857396583E+03  0.91535649515E+02 0.  0.
        -13    1    4    4    0    0 -0.20463116853E+02 -0.18984890008E+02 -0.21649449824E+02  0.35325116810E+02  0.00000000000E+00 0.  1.
         13    1    4    4    0    0  0.68727552296E+02  0.25535336381E+02 -0.11126421669E+03  0.13324884902E+03  0.00000000000E+00 0. -1.
        -13    1    3    3    0    0 -0.17554411954E+02 -0.40748838544E+02 -0.47233147046E+02  0.64804285364E+02  0.00000000000E+00 0. -1.
         13    1    3    3    0    0 -0.68836860624E+02  0.37311754744E+02 -0.14013237491E+03  0.16052340303E+03  0.00000000000E+00 0.  1.
         21    1    1    2  502  501  0.38126837136E+02 -0.31133625731E+01 -0.33045514977E+02  0.50550517273E+02  0.00000000000E+00 0. -1.
<scales pt_clust_5="13000.00000" pt_clust_6="13000.00000" pt_clust_7="13000.00000" pt_clust_8="13000.00000" pt_clust_9="38.25374"></scales>
<clustering>
<clus scale="   38.254">  1  9  2 -1</clus>
<clus scale="   90.507">  7  8 -1 -1</clus>
<clus scale="   91.536">  5  6 -1 -1</clus>
<clus scale="  112.561">  1  7  2 -1</clus>
<clus scale="  113.390">  2  5  1 -1</clus>
</clustering>
</event>
<event>
 9    1  0.1612788E-005  0.9220240E+02  0.7546771E-02  0.1298788E+00
          2   -1    0    0  502    0  0.00000000000E+00  0.00000000000E+00  0.18065551445E+03  0.18065551445E+03  0.00000000000E+00 0. -1.
         -2   -1    0    0    0  501 -0.00000000000E+00 -0.00000000000E+00 -0.67936981439E+02  0.67936981439E+02  0.00000000000E+00 0.  1.
         23    2    1    2    0    0 -0.24259212287E+02  0.87711132293E+01  0.49543920007E+02  0.10465935493E+03  0.88507280808E+02 0.  0.
         23    2    1    2    0    0  0.12097506446E+02  0.76533671823E+01  0.76619321904E+02  0.11947029478E+03  0.90541190378E+02 0.  0.
        -11    1    4    4    0    0  0.32393619183E+01 -0.38892554952E+02  0.15162392715E+02  0.41869110919E+02  0.00000000000E+00 0.  1.
         11    1    4    4    0    0  0.88581445277E+01  0.46545922134E+02  0.61456929190E+02  0.77601183865E+02  0.00000000000E+00 0. -1.
        -13    1    3    3    0    0 -0.30819125912E+01 -0.29518141712E+02 -0.95069656350E+01  0.31164102281E+02  0.00000000000E+00 0.  1.
         13    1    3    3    0    0 -0.21177299696E+02  0.38289254942E+02  0.59050885642E+02  0.73495252646E+02  0.00000000000E+00 0. -1.
         21    1    1    2  502  501  0.12161705841E+02 -0.16424480412E+02 -0.13444708900E+02  0.24462846179E+02  0.00000000000E+00 0.  1.
<scales pt_clust_5="13000.00000" pt_clust_6="13000.00000" pt_clust_7="13000.00000" pt_clust_8="13000.00000" pt_clust_9="20.43699"></scales>
<clustering>
<clus scale="   20.437">  2  9  1 -1</clus>
<clus scale="   88.507">  7  8 -1 -1</clus>
<clus scale="   90.206">  2  7  1 -1</clus>
<clus scale="   90.541">  5  6 -1 -1</clus>
<clus scale="   92.202">  1  5  2 -1</clus>
</clustering>
</event>
<event>
 9    1  0.1612788E-005  0.9495467E+02  0.7546771E-02  0.1292071E+00
         -1   -1    0    0    0  501 -0.00000000000E+00  0.00000000000E+00  0.11509857483E+03  0.11509857483E+03  0.00000000000E+00 0.  1.
          1   -1    0    0  502    0  0.00000000000E+00 -0.00000000000E+00 -0.12052485183E+03  0.12052485183E+03  0.00000000000E+00 0. -1.
         23    2    1    2    0    0  0.40008009671E+02 -0.63840393422E+01  0.35328081520E+02  0.10667778790E+03  0.92144887491E+02 0.  0.
         23    2    1    2    0    0 -0.16035274675E+02  0.56030437902E-01 -0.46951572572E+02  0.10338901180E+03  0.90706694468E+02 0.  0.
        -11    1    3    3    0    0 -0.13757499300E+02  0.28793893875E+02  0.27168712564E+02  0.41910572101E+02  0.00000000000E+00 0. -1.
         11    1    3    3    0    0  0.53765508971E+02 -0.35177933217E+02  0.81593689559E+01  0.64767215797E+02  0.00000000000E+00 0.  1.
        -13    1    4    4    0    0  0.31122879139E+02  0.19175739404E+02 -0.36062651813E+02  0.51350340246E+02  0.00000000000E+00 0. -1.
         13    1    4    4    0    0 -0.47158153814E+02 -0.19119708966E+02 -0.10888920759E+02  0.52038671557E+02  0.00000000000E+00 0.  1.
         21    1    1    2  502  501 -0.23972734996E+02  0.63280089043E+01  0.61972140515E+01  0.25556626966E+02  0.00000000000E+00 0. -1.
<scales pt_clust_5="13000.00000" pt_clust_6="13000.00000" pt_clust_7="13000.00000" pt_clust_8="13000.00000" pt_clust_9="24.79386"></scales>
<clustering>
<clus scale="   24.794">  1  9  2 -1</clus>
<clus scale="   90.707">  7  8 -1 -1</clus>
<clus scale="   92.145">  5  6 -1 -1</clus>
<clus scale="   93.560">  2  7  1 -1</clus>
<clus scale="   93.560">  2  5  1 -1</clus>
</clustering>
</event>
<event>
 9    1  0.1612788E-005  0.1021739E+03  0.7546771E-02  0.1276653E+00
         -2   -1    0    0    0  501 -0.00000000000E+00  0.00000000000E+00  0.53643231496E+02  0.53643231496E+02  0.00000000000E+00 0.  1.
          2   -1    0    0  502    0  0.00000000000E+00 -0.00000000000E+00 -0.55244629698E+03  0.55244629698E+03  0.00000000000E+00 0. -1.
         23    2    1    2    0    0  0.60818326012E+02  0.10915146725E+02 -0.64406335281E+02  0.12686650068E+03  0.90160544389E+02 0.  0.
         23    2    1    2    0    0 -0.41349429570E+02  0.44074659649E+01 -0.44193560600E+03  0.45332601954E+03  0.92022818110E+02 0.  0.
        -11    1    3    3    0    0  0.77565165842E+02  0.26922826648E+02 -0.63300524193E+02  0.10367328446E+03  0.00000000000E+00 0.  1.
         11    1    3    3    0    0 -0.16746839830E+02 -0.16007679923E+02 -0.11058110887E+01  0.23193216228E+02  0.00000000000E+00 0. -1.
        -11    1    4    4    0    0  0.23653624339E+02  0.23120055018E+02 -0.16089191311E+03  0.16425662419E+03  0.00000000000E+00 0.  1.
         11    1    4    4    0    0 -0.65003053909E+02 -0.18712589053E+02 -0.28104369290E+03  0.28906939534E+03  0.00000000000E+00 0. -1.
         21    1    1    2  502  501 -0.19468896442E+02 -0.15322612690E+02  0.75388758006E+01  0.25897008257E+02  0.00000000000E+00 0.  1.
<scales pt_clust_5="13000.00000" pt_clust_6="13000.00000" pt_clust_7="13000.00000" pt_clust_8="13000.00000" pt_clust_9="24.77540"></scales>
<clustering>
<clus scale="   24.775">  1  9  2 -1</clus>
<clus scale="   90.161">  5  6 -1 -1</clus>
<clus scale="   92.023">  7  8 -1 -1</clus>
<clus scale="  100.500">  1  5  2 -1</clus>
<clus scale="  102.174">  2  5  1 -1</clus>
</clustering>
</event>
<event>
 9    1  0.1612788E-005  0.9274912E+02  0.7546771E-02  0.1301015E+00
         -1   -1    0    0    0  501 -0.00000000000E+00  0.00000000000E+00  0.14711289183E+03  0.14711289183E+03  0.00000000000E+00 0.  1.
          1   -1    0    0  502    0  0.00000000000E+00 -0.00000000000E+00 -0.87513913746E+02  0.87513913746E+02  0.00000000000E+00 0. -1.
         23    2    1    2    0    0  0.29111151161E+02 -0.25935827306E+01  0.28021556509E+02  0.99426698376E+02  0.90809002458E+02 0.  0.
         23    2    1    2    0    0 -0.54348973238E+01 -0.21126695967E+02 -0.46057219768E+01  0.85880369826E+02  0.82935817685E+02 0.  0.
        -13    1    4    4    0    0 -0.41222122662E+02 -0.26940956905E+02  0.62164679858E+00  0.49249010147E+02  0.00000000000E+00 0.  1.
         13    1    4    4    0    0  0.35787225338E+02  0.58142609377E+01 -0.52273687754E+01  0.36631359679E+02  0.00000000000E+00 0. -1.
        -13    1    3    3    0    0  0.16886526424E+02  0.42181798635E+02  0.27299687697E+02  0.53006903881E+02  0.00000000000E+00 0. -1.
         13    1    3    3    0    0  0.12224624737E+02 -0.44775381365E+02  0.72186881205E+00  0.46419794495E+02  0.00000000000E+00 0.  1.
         21    1    1    2  502  501 -0.23676253837E+02  0.23720278698E+02  0.36183143549E+02  0.49319737371E+02  0.00000000000E+00 0. -1.
<scales pt_clust_5="13000.00000" pt_clust_6="13000.00000" pt_clust_7="13000.00000" pt_clust_8="13000.00000" pt_clust_9="33.51442"></scales>
<clustering>
<clus scale="   33.514">  1  9  2 -1</clus>
<clus scale="   82.936">  5  6 -1 -1</clus>
<clus scale="   85.056">  2  5  1 -1</clus>
<clus scale="   90.809">  7  8 -1 -1</clus>
<clus scale="   85.056">  2  5  1 -1</clus>
</clustering>
</event>
<event>
 9    1  0.1612788E-005  0.1002109E+03  0.7546771E-02  0.1280792E+00
         -1   -1    0    0    0  501 -0.00000000000E+00  0.00000000000E+00  0.26764739644E+02  0.26764739644E+02  0.00000000000E+00 0.  1.
          1   -1    0    0  502    0  0.00000000000E+00 -0.00000000000E+00 -0.85343156380E+03  0.85343156380E+03  0.00000000000E+00 0. -1.
         23    2    1    2    0    0  0.41417002237E+02  0.57595413093E+02 -0.35624539029E+03  0.37509378078E+03  0.93551945974E+02 0.  0.
         23    2    1    2    0    0  0.11317673163E+02 -0.21449677384E+02 -0.39505593477E+03  0.40627227095E+03  0.91650358216E+02 0.  0.
        -11    1    4    4    0    0  0.16016270823E+02 -0.54766230640E+02 -0.30145403908E+03  0.30680677734E+03  0.00000000000E+00 0. -1.
         11    1    4    4    0    0 -0.46985976599E+01  0.33316553256E+02 -0.93601895690E+02  0.99465493602E+02  0.00000000000E+00 0.  1.
        -11    1    3    3    0    0  0.51949464248E+02  0.76766034566E+02 -0.25024564924E+03  0.26686074245E+03  0.00000000000E+00 0.  1.
         11    1    3    3    0    0 -0.10532462011E+02 -0.19170621472E+02 -0.10599974105E+03  0.10823303833E+03  0.00000000000E+00 0. -1.
         21    1    1    2  502  501 -0.52734675399E+02 -0.36145735709E+02 -0.75365499105E+02  0.98830251719E+02  0.00000000000E+00 0. -1.
<scales pt_clust_5="13000.00000" pt_clust_6="13000.00000" pt_clust_7="13000.00000" pt_clust_8="13000.00000" pt_clust_9="63.93325"></scales>
<clustering>
<clus scale="   63.933">  1  9  2 -1</clus>
<clus scale="   91.650">  5  6 -1 -1</clus>
<clus scale="   93.552">  7  8 -1 -1</clus>
<clus scale="   98.438">  2  5  1 -1</clus>
<clus scale="   98.438">  2  5  1 -1</clus>
</clustering>
</event>
<event>
 9    1  0.1612788E-005  0.4769762E+03  0.7546771E-02  0.1019986E+00
         -1   -1    0    0    0  501 -0.00000000000E+00  0.00000000000E+00  0.20606470967E+03  0.20606470967E+03  0.00000000000E+00 0.  1.
          1   -1    0    0  502    0  0.00000000000E+00 -0.00000000000E+00 -0.27756151127E+04  0.27756151127E+04  0.00000000000E+00 0. -1.
         23    2    1    2    0    0 -0.25639392359E+03  0.36894107354E+03 -0.11344006825E+04  0.12236542206E+04  0.92786762250E+02 0.  0.
         23    2    1    2    0    0  0.28202252544E+03 -0.39299204879E+03 -0.15560769476E+04  0.16320943949E+04  0.91526999840E+02 0.  0.
        -11    1    3    3    0    0 -0.18263233153E+03  0.19998290061E+03 -0.59836623280E+03  0.65680276919E+03  0.00000000000E+00 0.  1.
         11    1    3    3    0    0 -0.73761592059E+02  0.16895817293E+03 -0.53603444969E+03  0.56685145136E+03  0.00000000000E+00 0. -1.
        -11    1    4    4    0    0  0.55907329126E+02 -0.53959455826E+02 -0.16190916816E+03  0.17958794798E+03  0.00000000000E+00 0.  1.
         11    1    4    4    0    0  0.22611519632E+03 -0.33903259296E+03 -0.13941677794E+04  0.14525064469E+04  0.00000000000E+00 0. -1.
         21    1    1    2  502  501 -0.25628601853E+02  0.24050975241E+02  0.12092722704E+03  0.12593120694E+03  0.00000000000E+00 0.  1.
<scales pt_clust_5="13000.00000" pt_clust_6="13000.00000" pt_clust_7="13000.00000" pt_clust_8="13000.00000" pt_clust_9="35.14647"></scales>
<clustering>
<clus scale="   35.146">  1  9  2 -1</clus>
<clus scale="   91.527">  7  8 -1 -1</clus>
<clus scale="   92.787">  5  6 -1 -1</clus>
<clus scale="  476.733">  2  7  1 -1</clus>
<clus scale="  476.733">  2  5  1 -1</clus>
</clustering>
</event>
<event>
 9    1  0.1612788E-005  0.1124252E+03  0.7546771E-02  0.1256336E+00
          1   -1    0    0  502    0  0.00000000000E+00  0.00000000000E+00  0.29456080378E+03  0.29456080378E+03  0.00000000000E+00 0. -1.
         -1   -1    0    0    0  501 -0.00000000000E+00 -0.00000000000E+00 -0.54349981971E+02  0.54349981971E+02  0.00000000000E+00 0.  1.
         23    2    1    2    0    0  0.26946361026E+02 -0.71286826724E+02  0.89755340121E+02  0.14911526944E+03  0.91495488756E+02 0.  0.
         23    2    1    2    0    0 -0.29265709689E+02  0.51070717567E+02  0.13965299105E+03  0.17675719494E+03  0.90969489929E+02 0.  0.
        -11    1    3    3    0    0  0.25736501364E+02  0.12633607448E+02  0.36986428775E+01  0.28907706563E+02  0.00000000000E+00 0.  1.
         11    1    3    3    0    0  0.12098596619E+01 -0.83920434172E+02  0.86056697244E+02  0.12020756288E+03  0.00000000000E+00 0. -1.
        -11    1    4    4    0    0 -0.39649859781E+02  0.72274561215E+02  0.91699903262E+02  0.12330691723E+03  0.00000000000E+00 0.  1.
         11    1    4    4    0    0  0.10384150092E+02 -0.21203843648E+02  0.47953087785E+02  0.53450277705E+02  0.00000000000E+00 0. -1.
         21    1    1    2  502  501  0.23193486632E+01  0.20216109158E+02  0.10802490642E+02  0.23038321374E+02  0.00000000000E+00 0.  1.
<scales pt_clust_5="13000.00000" pt_clust_6="13000.00000" pt_clust_7="13000.00000" pt_clust_8="13000.00000" pt_clust_9="20.34872"></scales>
<clustering>
<clus scale="   20.349">  2  9  1 -1</clus>
<clus scale="   90.969">  7  8 -1 -1</clus>
<clus scale="   91.495">  5  6 -1 -1</clus>
<clus scale="  111.998">  1  7  2 -1</clus>
<clus scale="  111.998">  1  5  2 -1</clus>
</clustering>
</event>
<event>
 9    1  0.1612788E-005  0.1020951E+03  0.7546771E-02  0.1277060E+00
         -1   -1    0    0    0  501 -0.00000000000E+00  0.00000000000E+00  0.62683538867E+02  0.62683538867E+02  0.00000000000E+00 0.  1.
          1   -1    0    0  502    0  0.00000000000E+00 -0.00000000000E+00 -0.23756878088E+03  0.23756878088E+03  0.00000000000E+00 0. -1.
         23    2    1    2    0    0  0.52215833402E+02  0.10972585596E+02 -0.30123372347E+02  0.10684042497E+03  0.87524670545E+02 0.  0.
         23    2    1    2    0    0 -0.46275035365E+02  0.10614167534E+02 -0.13487883814E+03  0.16893833141E+03  0.89965656724E+02 0.  0.
        -11    1    3    3    0    0  0.61936308645E+02 -0.23813426242E+02 -0.18252594723E+02  0.68821092785E+02  0.00000000000E+00 0.  1.
         11    1    3    3    0    0 -0.97204752434E+01  0.34786011838E+02 -0.11870777624E+02  0.38019332187E+02  0.00000000000E+00 0. -1.
        -11    1    4    4    0    0 -0.38999929627E+02 -0.29960003131E+02 -0.33515188190E+02  0.59513562639E+02  0.00000000000E+00 0.  1.
         11    1    4    4    0    0 -0.72751057378E+01  0.40574170665E+02 -0.10136364995E+03  0.10942476877E+03  0.00000000000E+00 0. -1.
         21    1    1    2  502  501 -0.59407980367E+01 -0.21586753130E+02 -0.98830315303E+01  0.24473563375E+02  0.00000000000E+00 0.  1.
<scales pt_clust_5="13000.00000" pt_clust_6="13000.00000" pt_clust_7="13000.00000" pt_clust_8="13000.00000" pt_clust_9="22.38931"></scales>
<clustering>
<clus scale="   22.389">  1  9  2 -1</clus>
<clus scale="   87.525">  5  6 -1 -1</clus>
<clus scale="   89.966">  7  8 -1 -1</clus>
<clus scale="   99.951">  1  5  2 -1</clus>
<clus scale="  102.095">  2  5  1 -1</clus>
</clustering>
</event>
<event>
 9    1  0.1612788E-005  0.1989104E+03  0.7546771E-02  0.1151414E+00
          3   -1    0    0  502    0  0.00000000000E+00  0.00000000000E+00  0.42809688419E+03  0.42809688419E+03  0.00000000000E+00 0. -1.
         -3   -1    0    0    0  501 -0.00000000000E+00 -0.00000000000E+00 -0.17514268744E+03  0.17514268744E+03  0.00000000000E+00 0.  1.
         23    2    1    2    0    0  0.15992182449E+03 -0.73760039670E+02 -0.55622721368E+02  0.20774649055E+03  0.95127198007E+02 0.  0.
         23    2    1    2    0    0 -0.13418686542E+03  0.10953045910E+03  0.28690308533E+03  0.34638538258E+03  0.87558075434E+02 0.  0.
        -11    1    3    3    0    0  0.12721992165E+03 -0.68408454565E+02 -0.81364909866E+02  0.16578562566E+03  0.00000000000E+00 0.  1.
         11    1    3    3    0    0  0.32701902849E+02 -0.53515851050E+01  0.25742188498E+02  0.41960864883E+02  0.00000000000E+00 0. -1.
        -13    1    4    4    0    0 -0.63340648163E+02  0.14370446324E+02  0.15991752941E+03  0.17260406614E+03  0.00000000000E+00 0. -1.
         13    1    4    4    0    0 -0.70846217257E+02  0.95160012773E+02  0.12698555592E+03  0.17378131644E+03  0.00000000000E+00 0.  1.
         21    1    1    2  502  501 -0.25734959075E+02 -0.35770419427E+02  0.21673832783E+02  0.49107698501E+02  0.00000000000E+00 0. -1.
<scales pt_clust_5="13000.00000" pt_clust_6="13000.00000" pt_clust_7="13000.00000" pt_clust_8="13000.00000" pt_clust_9="44.06598"></scales>
<clustering>
<clus scale="   44.066">  1  9  2 -1</clus>
<clus scale="   87.558">  7  8 -1 -1</clus>
<clus scale="   95.127">  5  6 -1 -1</clus>
<clus scale="  195.404">  1  7  2 -1</clus>
<clus scale="   44.066">  1  5  2 -1</clus>
</clustering>
</event>
<event>
 9    1  0.1612788E-005  0.1253986E+03  0.7546771E-02  0.1239029E+00
         -1   -1    0    0    0  501 -0.00000000000E+00  0.00000000000E+00  0.85494055376E+02  0.85494055376E+02  0.00000000000E+00 0.  1.
          1   -1    0    0  502    0  0.00000000000E+00 -0.00000000000E+00 -0.45311097406E+03  0.45311097406E+03  0.00000000000E+00 0. -1.
         23    2    1    2    0    0  0.62027144602E+02  0.14840654681E+02 -0.35935865952E+02  0.11949129705E+03  0.94441367585E+02 0.  0.
         23    2    1    2    0    0 -0.76320386228E+02 -0.42060516013E+02 -0.35913263859E+03  0.37789714380E+03  0.78969049824E+02 0.  0.
        -11    1    3    3    0    0  0.55155324648E+02 -0.28788272498E+02  0.52588849790E+00  0.62218574631E+02  0.00000000000E+00 0.  1.
         11    1    3    3    0    0  0.68718199539E+01  0.43628927179E+02 -0.36461754449E+02  0.57272722424E+02  0.00000000000E+00 0. -1.
        -13    1    4    4    0    0 -0.38308717039E+02  0.21116691607E+02 -0.14231100565E+03  0.14888215070E+03  0.00000000000E+00 0. -1.
         13    1    4    4    0    0 -0.38011669189E+02 -0.63177207621E+02 -0.21682163294E+03  0.22901499311E+03  0.00000000000E+00 0.  1.
         21    1    1    2  502  501  0.14293241626E+02  0.27219861332E+02  0.27451585865E+02  0.41216588574E+02  0.00000000000E+00 0.  1.
<scales pt_clust_5="13000.00000" pt_clust_6="13000.00000" pt_clust_7="13000.00000" pt_clust_8="13000.00000" pt_clust_9="30.74439"></scales>
<clustering>
<clus scale="   30.744">  1  9  2 -1</clus>
<clus scale="   78.969">  7  8 -1 -1</clus>
<clus scale="   94.441">  5  6 -1 -1</clus>
<clus scale="  114.201">  2  7  1 -1</clus>
<clus scale="  114.201">  2  5  1 -1</clus>
</clustering>
</event>
<event>
 9    1  0.1612788E-005  0.1264064E+03  0.7546771E-02  0.1233074E+00
          1   -1    0    0  502    0  0.00000000000E+00  0.00000000000E+00  0.21527754385E+03  0.21527754385E+03  0.00000000000E+00 0. -1.
         -1   -1    0    0    0  501 -0.00000000000E+00 -0.00000000000E+00 -0.19850343389E+03  0.19850343389E+03  0.00000000000E+00 0.  1.
         23    2    1    2    0    0 -0.39344288631E+02 -0.95809056217E+02 -0.11637594146E+03  0.18095503269E+03  0.92054417625E+02 0.  0.
         23    2    1    2    0    0  0.36808074642E+02  0.74810235841E+02  0.15729884700E+03  0.20072380857E+03  0.92713075190E+02 0.  0.
        -11    1    3    3    0    0  0.25254549227E+02 -0.28278293783E+02 -0.62454835959E+02  0.73062033168E+02  0.00000000000E+00 0. -1.
         11    1    3    3    0    0 -0.64598837859E+02 -0.67530762433E+02 -0.53921105502E+02  0.10789299952E+03  0.00000000000E+00 0.  1.
        -11    1    4    4    0    0 -0.24813320904E+02  0.40061634788E+02  0.96712079998E+02  0.10758188460E+03  0.00000000000E+00 0. -1.
         11    1    4    4    0    0  0.61621395546E+02  0.34748601053E+02  0.60586767005E+02  0.93141923967E+02  0.00000000000E+00 0.  1.
         21    1    1    2  502  501  0.25362139894E+01  0.20998820375E+02 -0.24148795587E+02  0.32102136484E+02  0.00000000000E+00 0. -1.
<scales pt_clust_5="13000.00000" pt_clust_6="13000.00000" pt_clust_7="13000.00000" pt_clust_8="13000.00000" pt_clust_9="21.15143"></scales>
<clustering>
<clus scale="   21.151">  2  9  1 -1</clus>
<clus scale="   92.054">  5  6 -1 -1</clus>
<clus scale="   92.713">  7  8 -1 -1</clus>
<clus scale="  125.924">  2  5  1 -1</clus>
<clus scale="  126.406">  1  5  2 -1</clus>
</clustering>
</event>
<event>
 9    1  0.1612788E-005  0.9094281E+02  0.7546771E-02  0.1301114E+00
          1   -1    0    0  502    0  0.00000000000E+00  0.00000000000E+00  0.51161144722E+03  0.51161144722E+03  0.00000000000E+00 0. -1.
         -1   -1    0    0    0  501 -0.00000000000E+00 -0.00000000000E+00 -0.10336394712E+03  0.10336394712E+03  0.00000000000E+00 0.  1.
         23    2    1    2    0    0 -0.21929951058E+02  0.87433780282E+01  0.14160147923E+03  0.16982225921E+03  0.90726244215E+02 0.  0.
         23    2    1    2    0    0 -0.18205251821E+01 -0.17536402483E+01  0.34836184790E+03  0.35976919083E+03  0.89841549565E+02 0.  0.
        -11    1    3    3    0    0 -0.56921526049E+02  0.13049209308E+02  0.91945141322E+02  0.10892314265E+03  0.00000000000E+00 0. -1.
         11    1    3    3    0    0  0.34991574991E+02 -0.43058312801E+01  0.49656337908E+02  0.60899116560E+02  0.00000000000E+00 0.  1.
        -13    1    4    4    0    0  0.55127563602E+01 -0.44679066332E+02  0.20760792254E+03  0.21243271629E+03  0.00000000000E+00 0. -1.
         13    1    4    4    0    0 -0.73332815424E+01  0.42925426084E+02  0.14075392536E+03  0.14733647453E+03  0.00000000000E+00 0.  1.
         21    1    1    2  502  501  0.23750476240E+02 -0.69897377800E+01 -0.81715827043E+02  0.85383944305E+02  0.00000000000E+00 0.  1.
<scales pt_clust_5="13000.00000" pt_clust_6="13000.00000" pt_clust_7="13000.00000" pt_clust_8="13000.00000" pt_clust_9="24.75766"></scales>
<clustering>
<clus scale="   24.758">  2  9  1 -1</clus>
<clus scale="   89.842">  7  8 -1 -1</clus>
<clus scale="   90.060">  1  7  2 -1</clus>
<clus scale="   90.726">  5  6 -1 -1</clus>
<clus scale="   90.060">  1  5  2 -1</clus>
</clustering>
</event>
<event>
 9    1  0.1612788E-005  0.9304396E+02  0.7546771E-02  0.1297343E+00
         -1   -1    0    0    0  501 -0.00000000000E+00  0.00000000000E+00  0.51674479239E+02  0.51674479239E+02  0.00000000000E+00 0.  1.
          1   -1    0    0  502    0  0.00000000000E+00 -0.00000000000E+00 -0.29002276946E+03  0.29002276946E+03  0.00000000000E+00 0. -1.
         23    2    1    2    0    0 -0.31745511765E+02  0.29417791101E+01 -0.81875131289E+02  0.12406129671E+03  0.87585596058E+02 0.  0.
         23    2    1    2    0    0  0.60239730046E+01  0.25042166300E+02 -0.15276706963E+03  0.17944650508E+03  0.90553146153E+02 0.  0.
        -11    1    4    4    0    0  0.24328562041E+02  0.11947053914E+02 -0.15451325676E+03  0.15687242442E+03  0.00000000000E+00 0. -1.
         11    1    4    4    0    0 -0.18304589036E+02  0.13095112386E+02  0.17461871310E+01  0.22574080661E+02  0.00000000000E+00 0.  1.
        -11    1    3    3    0    0 -0.23949720911E+02  0.44604044548E+02 -0.40553790546E+02  0.64866939572E+02  0.00000000000E+00 0.  1.
         11    1    3    3    0    0 -0.77957908539E+01 -0.41662265438E+02 -0.41321340743E+02  0.59194357141E+02  0.00000000000E+00 0. -1.
         21    1    1    2  502  501  0.25721538760E+02 -0.27983945410E+02 -0.37060892977E+01  0.38189446903E+02  0.00000000000E+00 0. -1.
<scales pt_clust_5="13000.00000" pt_clust_6="13000.00000" pt_clust_7="13000.00000" pt_clust_8="13000.00000" pt_clust_9="38.00919"></scales>
<clustering>
<clus scale="   38.009">  1  9  2 -1</clus>
<clus scale="   87.586">  7  8 -1 -1</clus>
<clus scale="   90.158">  1  7  2 -1</clus>
<clus scale="   90.553">  5  6 -1 -1</clus>
<clus scale="   93.044">  2  5  1 -1</clus>
</clustering>
</event>
<event>
 9    1  0.1612788E-005  0.1330119E+03  0.7546771E-02  0.1223401E+00
          1   -1    0    0  502    0  0.00000000000E+00  0.00000000000E+00  0.68557523326E+03  0.68557523326E+03  0.00000000000E+00 0. -1.
         -1   -1    0    0    0  501 -0.00000000000E+00 -0.00000000000E+00 -0.45950764824E+02  0.45950764824E+02  0.00000000000E+00 0.  1.
         23    2    1    2    0    0  0.10517021050E+03  0.34807590497E+02  0.21048050393E+03  0.25521173891E+03  0.92512959130E+02 0.  0.
         23    2    1    2    0    0 -0.83843763848E+02 -0.30900594416E+02  0.43542278216E+03  0.45374203075E+03  0.91127425991E+02 0.  0.
        -11    1    4    4    0    0 -0.87690887502E+02 -0.52835869204E+02  0.38911074948E+03  0.40235369538E+03  0.00000000000E+00 0.  1.
         11    1    4    4    0    0  0.38471236545E+01  0.21935274787E+02  0.46312032679E+02  0.51388335362E+02  0.00000000000E+00 0. -1.
        -13    1    3    3    0    0  0.21750859625E+02 -0.16652157962E+02  0.54111724231E+01  0.27922661875E+02  0.00000000000E+00 0.  1.
         13    1    3    3    0    0  0.83419350878E+02  0.51459748459E+02  0.20506933151E+03  0.22728907703E+03  0.00000000000E+00 0. -1.
         21    1    1    2  502  501 -0.21326446655E+02 -0.39069960811E+01 -0.62788176565E+01  0.22572228434E+02  0.00000000000E+00 0.  1.
<scales pt_clust_5="13000.00000" pt_clust_6="13000.00000" pt_clust_7="13000.00000" pt_clust_8="13000.00000" pt_clust_9="21.68137"></scales>
<clustering>
<clus scale="   21.681">  2  9  1 -1</clus>
<clus scale="   91.127">  5  6 -1 -1</clus>
<clus scale="   92.513">  7  8 -1 -1</clus>
<clus scale="  132.052">  1  5  2 -1</clus>
<clus scale="  132.052">  1  5  2 -1</clus>
</clustering>
</event>
<event>
 9    1  0.1612788E-005  0.1379575E+03  0.7546771E-02  0.1218204E+00
         -3   -1    0    0    0  501 -0.00000000000E+00  0.00000000000E+00  0.17221878298E+03  0.17221878298E+03  0.00000000000E+00 0.  1.
          3   -1    0    0  502    0  0.00000000000E+00 -0.00000000000E+00 -0.23529085289E+03  0.23529085289E+03  0.00000000000E+00 0. -1.
         23    2    1    2    0    0  0.20225286477E+02 -0.12363133401E+03 -0.43347830285E+02  0.15912417910E+03  0.88021026015E+02 0.  0.
         23    2    1    2    0    0 -0.13566563850E+01  0.83854185254E+02 -0.96192377308E+02  0.16014928025E+03  0.96754605121E+02 0.  0.
        -11    1    4    4    0    0 -0.15364144645E+02 -0.18561810008E+02 -0.24416967286E+02  0.34304314931E+02  0.00000000000E+00 0.  1.
         11    1    4    4    0    0  0.14007488260E+02  0.10241599526E+03 -0.71775410022E+02  0.12584496532E+03  0.00000000000E+00 0. -1.
        -11    1    3    3    0    0  0.45777031511E+02 -0.38315478123E+02  0.84588089912E+00  0.59701993202E+02  0.00000000000E+00 0.  1.
         11    1    3    3    0    0 -0.25551745034E+02 -0.85315855890E+02 -0.44193711185E+02  0.99422185898E+02  0.00000000000E+00 0. -1.
         21    1    1    2  502  501 -0.18868630092E+02  0.39777148759E+02  0.76468137687E+02  0.88236176516E+02  0.00000000000E+00 0.  1.
<scales pt_clust_5="13000.00000" pt_clust_6="13000.00000" pt_clust_7="13000.00000" pt_clust_8="13000.00000" pt_clust_9="44.02552"></scales>
<clustering>
<clus scale="   44.026">  1  9  2 -1</clus>
<clus scale="   88.021">  7  8 -1 -1</clus>
<clus scale="   96.755">  5  6 -1 -1</clus>
<clus scale="  131.979">  1  7  2 -1</clus>
<clus scale="  137.958">  2  5  1 -1</clus>
</clustering>
</event>
<event>
 9    1  0.1612788E-005  0.1123776E+03  0.7546771E-02  0.1256582E+00
         -2   -1    0    0    0  501 -0.00000000000E+00  0.00000000000E+00  0.35317452131E+03  0.35317452131E+03  0.00000000000E+00 0.  1.
          2   -1    0    0  502    0  0.00000000000E+00 -0.00000000000E+00 -0.91531892686E+02  0.91531892686E+02  0.00000000000E+00 0. -1.
         23    2    1    2    0    0  0.44666128377E+02  0.13790862004E+02  0.96836703228E+02  0.14181449658E+03  0.92459469230E+02 0.  0.
         23    2    1    2    0    0 -0.56778365686E+02 -0.44446384312E+02 -0.17341044538E+02  0.11778657984E+03  0.91507937781E+02 0.  0.
        -11    1    4    4    0    0 -0.82171432216E+02 -0.36280006310E+02 -0.12912345349E+02  0.90747516730E+02  0.00000000000E+00 0. -1.
         11    1    4    4    0    0  0.25393066530E+02 -0.81663780013E+01 -0.44286991897E+01  0.27039063112E+02  0.00000000000E+00 0.  1.
        -13    1    3    3    0    0  0.45436207836E+02  0.41293891536E+02  0.27608402284E+02  0.67319078554E+02  0.00000000000E+00 0.  1.
         13    1    3    3    0    0 -0.77007945867E+00 -0.27503029532E+02  0.69228300945E+02  0.74495418030E+02  0.00000000000E+00 0. -1.
         21    1    1    2  502  501  0.12112237308E+02  0.30655522307E+02  0.18214696993E+03  0.18510533757E+03  0.00000000000E+00 0.  1.
<scales pt_clust_5="13000.00000" pt_clust_6="13000.00000" pt_clust_7="13000.00000" pt_clust_8="13000.00000" pt_clust_9="32.96160"></scales>
<clustering>
<clus scale="   32.962">  1  9  2 -1</clus>
<clus scale="   91.508">  5  6 -1 -1</clus>
<clus scale="   92.459">  7  8 -1 -1</clus>
<clus scale="  111.596">  2  5  1 -1</clus>
<clus scale="  111.596">  2  5  1 -1</clus>
</clustering>
</event>
<event>
 9    1  0.1612788E-005  0.1442838E+03  0.7546771E-02  0.1208233E+00
          2   -1    0    0  502    0  0.00000000000E+00  0.00000000000E+00  0.71132581133E+03  0.71132581133E+03  0.00000000000E+00 0. -1.
         -2   -1    0    0    0  501 -0.00000000000E+00 -0.00000000000E+00 -0.34809888855E+02  0.34809888855E+02  0.00000000000E+00 0.  1.
         23    2    1    2    0    0  0.80533038464E+02  0.81315543718E+02  0.27622829711E+03  0.31104408132E+03  0.85723745063E+02 0.  0.
         23    2    1    2    0    0 -0.95407734516E+02 -0.63434082707E+02  0.36657839036E+03  0.39413657332E+03  0.88529111012E+02 0.  0.
        -11    1    3    3    0    0  0.67111304273E+02  0.46935355874E+02  0.25637170216E+03  0.26913436135E+03  0.00000000000E+00 0. -1.
         11    1    3    3    0    0  0.13421734191E+02  0.34380187844E+02  0.19856594946E+02  0.41909719967E+02  0.00000000000E+00 0.  1.
        -13    1    4    4    0    0 -0.19144950304E+02 -0.59104347760E+02  0.10891027660E+03  0.12538461387E+03  0.00000000000E+00 0.  1.
         13    1    4    4    0    0 -0.76262784212E+02 -0.43297349466E+01  0.25766811376E+03  0.26875195945E+03  0.00000000000E+00 0. -1.
         21    1    1    2  502  501  0.14874696052E+02 -0.17881461011E+02  0.33709235008E+02  0.40955045542E+02  0.00000000000E+00 0. -1.
<scales pt_clust_5="13000.00000" pt_clust_6="13000.00000" pt_clust_7="13000.00000" pt_clust_8="13000.00000" pt_clust_9="23.25948"></scales>
<clustering>
<clus scale="   23.259">  2  9  1 -1</clus>
<clus scale="   85.724">  5  6 -1 -1</clus>
<clus scale="   88.529">  7  8 -1 -1</clus>
<clus scale="  142.580">  2  5  1 -1</clus>
<clus scale="  144.284">  1  5  2 -1</clus>
</clustering>
</event>
<event>
 9    1  0.1612788E-005  0.1194377E+03  0.7546771E-02  0.1244198E+00
         -1   -1    0    0    0  501 -0.00000000000E+00  0.00000000000E+00  0.12924590673E+03  0.12924590673E+03  0.00000000000E+00 0.  1.
          1   -1    0    0  502    0  0.00000000000E+00 -0.00000000000E+00 -0.23709345392E+03  0.23709345392E+03  0.00000000000E+00 0. -1.
         23    2    1    2    0    0 -0.55945511770E+02  0.15671323492E+02  0.40123751965E+02  0.11444647028E+03  0.90069908525E+02 0.  0.
         23    2    1    2    0    0  0.77268516277E+02 -0.31925838561E+02 -0.17513784884E+03  0.21372351517E+03  0.89525371077E+02 0.  0.
        -11    1    3    3    0    0 -0.57008353496E+02  0.44694285948E+02  0.10916866203E+02  0.73257829154E+02  0.00000000000E+00 0.  1.
         11    1    3    3    0    0  0.10628417260E+01 -0.29022962456E+02  0.29206885762E+02  0.41188641130E+02  0.00000000000E+00 0. -1.
        -13    1    4    4    0    0  0.43998162898E+02 -0.11547739556E+02 -0.16801451216E+03  0.17406339341E+03  0.00000000000E+00 0. -1.
         13    1    4    4    0    0  0.33270353379E+02 -0.20378099006E+02 -0.71233366757E+01  0.39660121765E+02  0.00000000000E+00 0.  1.
         21    1    1    2  502  501 -0.21323004506E+02  0.16254515070E+02  0.27166549680E+02  0.38169375196E+02  0.00000000000E+00 0. -1.
<scales pt_clust_5="13000.00000" pt_clust_6="13000.00000" pt_clust_7="13000.00000" pt_clust_8="13000.00000" pt_clust_9="26.81193"></scales>
<clustering>
<clus scale="   26.812">  1  9  2 -1</clus>
<clus scale="   89.525">  7  8 -1 -1</clus>
<clus scale="   90.070">  5  6 -1 -1</clus>
<clus scale="  119.028">  2  7  1 -1</clus>
<clus scale="  119.028">  2  5  1 -1</clus>
</clustering>
</event>
<event>
 9    1  0.1612788E-005  0.1849773E+03  0.7546771E-02  0.1163677E+00
         -2   -1    0    0    0  501 -0.00000000000E+00  0.00000000000E+00  0.96006424529E+02  0.96006424529E+02  0.00000000000E+00 0.  1.
          2   -1    0    0  502    0  0.00000000000E+00 -0.00000000000E+00 -0.78240030881E+03  0.78240030881E+03  0.00000000000E+00 0. -1.
         23    2    1    2    0    0 -0.15058513141E+03 -0.73017499702E+02 -0.10750724019E+03  0.21861084118E+03  0.90694300404E+02 0.  0.
         23    2    1    2    0    0  0.15448943011E+03  0.28743741020E+02 -0.58650925780E+03  0.61470139696E+03  0.95768007575E+02 0.  0.
        -13    1    3    3    0    0 -0.22936528967E+02 -0.41053494259E+02 -0.65194992087E+02  0.80385699879E+02  0.00000000000E+00 0. -1.
         13    1    3    3    0    0 -0.12764860244E+03 -0.31964005443E+02 -0.42312248105E+02  0.13822514131E+03  0.00000000000E+00 0.  1.
        -13    1    4    4    0    0  0.36956662598E+02  0.44489791776E+02 -0.11791696156E+03  0.13133752817E+03  0.00000000000E+00 0.  1.
         13    1    4    4    0    0  0.11753276752E+03 -0.15746050757E+02 -0.46859229625E+03  0.48336386880E+03  0.00000000000E+00 0. -1.
         21    1    1    2  502  501 -0.39042987047E+01  0.44273758682E+02  0.76226137188E+01  0.45094495187E+02  0.00000000000E+00 0.  1.
<scales pt_clust_5="13000.00000" pt_clust_6="13000.00000" pt_clust_7="13000.00000" pt_clust_8="13000.00000" pt_clust_9="44.44558"></scales>
<clustering>
<clus scale="   44.446">  1  9  2 -1</clus>
<clus scale="   90.694">  5  6 -1 -1</clus>
<clus scale="   95.768">  7  8 -1 -1</clus>
<clus scale="  182.402">  1  5  2 -1</clus>
<clus scale="  184.977">  2  5  1 -1</clus>
</clustering>
</event>
<event>
 9    1  0.1612788E-005  0.1254842E+03  0.7546771E-02  0.1234897E+00
         -1   -1    0    0    0  501 -0.00000000000E+00  0.00000000000E+00  0.33585825501E+03  0.33585825501E+03  0.00000000000E+00 0.  1.
          1   -1    0    0  502    0  0.00000000000E+00 -0.00000000000E+00 -0.10544617633E+03  0.10544617633E+03  0.00000000000E+00 0. -1.
         23    2    1    2    0    0  0.37440331721E+01 -0.59355122820E+02  0.54735030110E+02  0.12059204312E+03  0.89495636501E+02 0.  0.
         23    2    1    2    0    0  0.92868158128E+02  0.98634258753E+02  0.11691071186E+03  0.20100337286E+03  0.91547963173E+02 0.  0.
        -11    1    4    4    0    0  0.87178641775E+01  0.34510405571E+02 -0.88314317798E+01  0.36673743138E+02  0.00000000000E+00 0. -1.
         11    1    4    4    0    0  0.84150293950E+02  0.64123853182E+02  0.12574214364E+03  0.16432962972E+03  0.00000000000E+00 0.  1.
        -13    1    3    3    0    0 -0.37554216502E+02 -0.14227989126E+02  0.41997527209E+02  0.58108064357E+02  0.00000000000E+00 0.  1.
         13    1    3    3    0    0  0.41298249674E+02 -0.45127133694E+02  0.12737502901E+02  0.62483978761E+02  0.00000000000E+00 0. -1.
         21    1    1    2  502  501 -0.96612191300E+02 -0.39279135934E+02  0.58766336715E+02  0.11970901536E+03  0.00000000000E+00 0. -1.
<scales pt_clust_5="13000.00000" pt_clust_6="13000.00000" pt_clust_7="13000.00000" pt_clust_8="13000.00000" pt_clust_9="104.29174"></scales>
<clustering>
<clus scale="   89.496">  7  8 -1 -1</clus>
<clus scale="   91.548">  5  6 -1 -1</clus>
<clus scale="  104.292">  2  9  1 -1</clus>
<clus scale="  123.995">  1  7  2 -1</clus>
<clus scale="  104.292">  2  5  1 -1</clus>
</clustering>
</event>
<event>
 9    1  0.1612788E-005  0.1114207E+03  0.7546771E-02  0.1258292E+00
         -1   -1    0    0    0  501 -0.00000000000E+00  0.00000000000E+00  0.10123018756E+03  0.10123018756E+03  0.00000000000E+00 0.  1.
          1   -1    0    0  502    0  0.00000000000E+00 -0.00000000000E+00 -0.46976674356E+03  0.46976674356E+03  0.00000000000E+00 0. -1.
         23    2    1    2    0    0 -0.99513421097E+02 -0.56903222979E+02 -0.19543362161E+03  0.24440699666E+03  0.91649232381E+02 0.  0.
         23    2    1    2    0    0  0.37601277705E+02  0.10236539157E+02 -0.21585081900E+03  0.23805590419E+03  0.92522400736E+02 0.  0.
        -11    1    3    3    0    0 -0.17878439491E+02  0.24714302858E+02 -0.52050121503E+02  0.60329516100E+02  0.00000000000E+00 0. -1.
         11    1    3    3    0    0 -0.81634981606E+02 -0.81617525837E+02 -0.14338350011E+03  0.18407748056E+03  0.00000000000E+00 0.  1.
        -13    1    4    4    0    0  0.43755388258E+02 -0.33110463713E+02 -0.97700197236E+02  0.11205429643E+03  0.00000000000E+00 0.  1.
         13    1    4    4    0    0 -0.61541105537E+01  0.43347002870E+02 -0.11815062176E+03  0.12600160775E+03  0.00000000000E+00 0. -1.
         21    1    1    2  502  501  0.61912143392E+02  0.46666683823E+02  0.42747884605E+02  0.88534030274E+02  0.00000000000E+00 0. -1.
<scales pt_clust_5="13000.00000" pt_clust_6="13000.00000" pt_clust_7="13000.00000" pt_clust_8="13000.00000" pt_clust_9="77.52995"></scales>
<clustering>
<clus scale="   77.530">  1  9  2 -1</clus>
<clus scale="   91.649">  5  6 -1 -1</clus>
<clus scale="   92.522">  7  8 -1 -1</clus>
<clus scale="  110.697">  1  5  2 -1</clus>
<clus scale="  111.421">  2  5  1 -1</clus>
</clustering>
</event>
<event>
 9    1  0.1612788E-005  0.1156620E+03  0.7546771E-02  0.1254501E+00
          1   -1    0    0  502    0  0.00000000000E+00  0.00000000000E+00  0.70010516467E+02  0.70010516467E+02  0.00000000000E+00 0. -1.
         -1   -1    0    0    0  501 -0.00000000000E+00 -0.00000000000E+00 -0.22073839387E+03  0.22073839387E+03  0.00000000000E+00 0.  1.
         23    2    1    2    0    0 -0.37787313608E+02  0.44454341106E+02 -0.75443947958E+02  0.13242088380E+03  0.91866379436E+02 0.  0.
         23    2    1    2    0    0  0.53387947294E+02 -0.59617869546E+02 -0.47102579928E+02  0.12272604869E+03  0.80240056735E+02 0.  0.
        -11    1    3    3    0    0  0.13271823548E+02  0.17635406956E+02 -0.71254874417E+02  0.74594946256E+02  0.00000000000E+00 0.  1.
         11    1    3    3    0    0 -0.51059137156E+02  0.26818934150E+02 -0.41890735418E+01  0.57825937547E+02  0.00000000000E+00 0. -1.
        -13    1    4    4    0    0 -0.19169975817E+02 -0.98323156710E+01 -0.22945332496E+02  0.31474603852E+02  0.00000000000E+00 0.  1.
         13    1    4    4    0    0  0.72557923111E+02 -0.49785553875E+02 -0.24157247432E+02  0.91251444834E+02  0.00000000000E+00 0. -1.
         21    1    1    2  502  501 -0.15600633686E+02  0.15163528440E+02 -0.28181349518E+02  0.35601977849E+02  0.00000000000E+00 0. -1.
<scales pt_clust_5="13000.00000" pt_clust_6="13000.00000" pt_clust_7="13000.00000" pt_clust_8="13000.00000" pt_clust_9="21.75574"></scales>
<clustering>
<clus scale="   21.756">  2  9  1 -1</clus>
<clus scale="   80.240">  7  8 -1 -1</clus>
<clus scale="   91.866">  5  6 -1 -1</clus>
<clus scale="  106.662">  1  7  2 -1</clus>
<clus scale="  106.662">  1  5  2 -1</clus>
</clustering>
</event>
<event>
 9    1  0.1612788E-005  0.1086779E+03  0.7546771E-02  0.1264267E+00
         -1   -1    0    0    0  501 -0.00000000000E+00  0.00000000000E+00  0.14665605790E+03  0.14665605790E+03  0.00000000000E+00 0.  1.
          1   -1    0    0  502    0  0.00000000000E+00 -0.00000000000E+00 -0.46151614354E+03  0.46151614354E+03  0.00000000000E+00 0. -1.
         23    2    1    2    0    0  0.61047799105E+02 -0.13057147492E+02 -0.49419510701E+02  0.12184290285E+03  0.92228423281E+02 0.  0.
         23    2    1    2    0    0 -0.41873263455E+02  0.29373862594E+02 -0.36654314253E+03  0.38213895746E+03  0.95184628382E+02 0.  0.
        -13    1    4    4    0    0  0.26678384586E+02 -0.76674606501E+01 -0.64749317010E+02  0.70448564288E+02  0.00000000000E+00 0.  1.
         13    1    4    4    0    0 -0.68551648040E+02  0.37041323244E+02 -0.30179382552E+03  0.31169039318E+03  0.00000000000E+00 0. -1.
        -13    1    3    3    0    0 -0.11578262526E+02 -0.30215066109E+02 -0.36329253815E-01  0.32357498403E+02  0.00000000000E+00 0.  1.
         13    1    3    3    0    0  0.72626061631E+02  0.17157918617E+02 -0.49383181447E+02  0.89485404447E+02  0.00000000000E+00 0. -1.
         21    1    1    2  502  501 -0.19174535650E+02 -0.16316715102E+02  0.10110256759E+03  0.10419034112E+03  0.00000000000E+00 0.  1.
<scales pt_clust_5="13000.00000" pt_clust_6="13000.00000" pt_clust_7="13000.00000" pt_clust_8="13000.00000" pt_clust_9="25.17733"></scales>
<clustering>
<clus scale="   25.177">  1  9  2 -1</clus>
<clus scale="   92.228">  7  8 -1 -1</clus>
<clus scale="   95.185">  5  6 -1 -1</clus>
<clus scale="  106.098">  1  7  2 -1</clus>
<clus scale="  108.678">  2  5  1 -1</clus>
</clustering>
</event>
<event>
 9    1  0.1612788E-005  0.1646177E+03  0.7546771E-02  0.1183770E+00
         -2   -1    0    0    0  501 -0.00000000000E+00  0.00000000000E+00  0.33826665979E+03  0.33826665979E+03  0.00000000000E+00 0.  1.
          2   -1    0    0  502    0  0.00000000000E+00 -0.00000000000E+00 -0.24485133620E+03  0.24485133620E+03  0.00000000000E+00 0. -1.
         23    2    1    2    0    0  0.13464550345E+03 -0.60504849569E+02  0.12255033080E+02  0.17363933039E+03  0.90610059050E+02 0.  0.
         23    2    1    2    0    0 -0.12935936916E+03  0.29594784237E+02 -0.12300059960E+03  0.20292348072E+03  0.91864540947E+02 0.  0.
        -11    1    4    4    0    0 -0.91697729983E+02  0.52998830762E+02 -0.11758672911E+03  0.15825292607E+03  0.00000000000E+00 0.  1.
         11    1    4    4    0    0 -0.37661639182E+02 -0.23404046526E+02 -0.54138704855E+01  0.44670554656E+02  0.00000000000E+00 0. -1.
        -13    1    3    3    0    0  0.73328446996E+01  0.20467602943E+02 -0.31724018702E+01  0.21971743564E+02  0.00000000000E+00 0.  1.
         13    1    3    3    0    0  0.12731265875E+03 -0.80972452511E+02  0.15427434950E+02  0.15166758682E+03  0.00000000000E+00 0. -1.
         21    1    1    2  502  501 -0.52861342845E+01  0.30910065332E+02  0.20416089010E+03  0.20655518488E+03  0.00000000000E+00 0. -1.
<scales pt_clust_5="13000.00000" pt_clust_6="13000.00000" pt_clust_7="13000.00000" pt_clust_8="13000.00000" pt_clust_9="31.35882"></scales>
<clustering>
<clus scale="   31.359">  1  9  2 -1</clus>
<clus scale="   90.610">  7  8 -1 -1</clus>
<clus scale="   91.865">  5  6 -1 -1</clus>
<clus scale="  163.921">  1  7  2 -1</clus>
<clus scale="  164.618">  2  5  1 -1</clus>
</clustering>
</event>
<event>
 9    1  0.1612788E-005  0.1107587E+03  0.7546771E-02  0.1259596E+00
          1   -1    0    0  502    0  0.00000000000E+00  0.00000000000E+00  0.19086120525E+03  0.19086120525E+03  0.00000000000E+00 0. -1.
         -1   -1    0    0    0  501 -0.00000000000E+00 -0.00000000000E+00 -0.28738776258E+03  0.28738776258E+03  0.00000000000E+00 0.  1.
         23    2    1    2    0    0  0.49831722160E+02 -0.52138898211E+01 -0.91806161703E+02  0.13890673737E+03  0.91412937697E+02 0.  0.
         23    2    1    2    0    0 -0.62533219410E+02 -0.18015805423E+02  0.14753070245E+03  0.18480633289E+03  0.90294516643E+02 0.  0.
        -11    1    4    4    0    0 -0.51248974071E+02 -0.35794800318E+02  0.37753584361E+02  0.73027790636E+02  0.00000000000E+00 0.  1.
         11    1    4    4    0    0 -0.11284245339E+02  0.17778994895E+02  0.10977711809E+03  0.11177854225E+03  0.00000000000E+00 0. -1.
        -11    1    3    3    0    0  0.41655108697E+01  0.35262874789E+02 -0.10078364707E+02  0.36910638770E+02  0.00000000000E+00 0. -1.
         11    1    3    3    0    0  0.45666211290E+02 -0.40476764610E+02 -0.81727796996E+02  0.10199609860E+03  0.00000000000E+00 0.  1.
         21    1    1    2  502  501  0.12701497250E+02  0.23229695244E+02 -0.15225109808E+03  0.15453589758E+03  0.00000000000E+00 0.  1.
<scales pt_clust_5="13000.00000" pt_clust_6="13000.00000" pt_clust_7="13000.00000" pt_clust_8="13000.00000" pt_clust_9="26.47540"></scales>
<clustering>
<clus scale="   26.475">  2  9  1 -1</clus>
<clus scale="   90.295">  5  6 -1 -1</clus>
<clus scale="   91.413">  7  8 -1 -1</clus>
<clus scale="  109.837">  1  5  2 -1</clus>
<clus scale="  109.837">  1  5  2 -1</clus>
</clustering>
</event>
<event>
 9    1  0.1612788E-005  0.9424713E+02  0.7546771E-02  0.1296455E+00
          1   -1    0    0  502    0  0.00000000000E+00  0.00000000000E+00  0.60872069765E+03  0.60872069765E+03  0.00000000000E+00 0. -1.
         -1   -1    0    0    0  501 -0.00000000000E+00 -0.00000000000E+00 -0.45253034909E+02  0.45253034909E+02  0.00000000000E+00 0.  1.
         23    2    1    2    0    0 -0.13855350314E+02  0.29366809150E+00  0.24225609829E+03  0.25951178537E+03  0.92012459028E+02 0.  0.
         23    2    1    2    0    0 -0.21222542595E+02  0.34914419128E+02  0.33051002884E+03  0.34389981297E+03  0.85795041905E+02 0.  0.
        -11    1    3    3    0    0 -0.49542743218E+02 -0.18118193916E+02  0.13041285168E+03  0.14067787402E+03  0.00000000000E+00 0.  1.
         11    1    3    3    0    0  0.35687392904E+02  0.18411862008E+02  0.11184324661E+03  0.11883391135E+03  0.00000000000E+00 0. -1.
        -13    1    4    4    0    0  0.31671352679E+02  0.69180974021E+01  0.15835562145E+03  0.16163983883E+03  0.00000000000E+00 0.  1.
         13    1    4    4    0    0 -0.52893895274E+02  0.27996321726E+02  0.17215440740E+03  0.18225997414E+03  0.00000000000E+00 0. -1.
         21    1    1    2  502  501  0.35077892909E+02 -0.35208087220E+02 -0.92984643920E+01  0.50562134218E+02  0.00000000000E+00 0.  1.
<scales pt_clust_5="13000.00000" pt_clust_6="13000.00000" pt_clust_7="13000.00000" pt_clust_8="13000.00000" pt_clust_9="49.69978"></scales>
<clustering>
<clus scale="   49.700">  2  9  1 -1</clus>
<clus scale="   85.795">  7  8 -1 -1</clus>
<clus scale="   88.187">  1  7  2 -1</clus>
<clus scale="   92.012">  5  6 -1 -1</clus>
<clus scale="   88.187">  1  5  2 -1</clus>
</clustering>
</event>
<event>
 9    1  0.1612788E-005  0.1067608E+03  0.7546771E-02  0.1267489E+00
          3   -1    0    0  502    0  0.00000000000E+00  0.00000000000E+00  0.20149644028E+03  0.20149644028E+03  0.00000000000E+00 0. -1.
         -3   -1    0    0    0  501 -0.00000000000E+00 -0.00000000000E+00 -0.14151121876E+03  0.14151121876E+03  0.00000000000E+00 0.  1.
         23    2    1    2    0    0  0.46790441163E+02 -0.18452619780E+02 -0.78760620072E+02  0.13258702958E+03  0.94054455385E+02 0.  0.
         23    2    1    2    0    0 -0.24165020746E+02  0.34869333761E+02  0.47730518176E+02  0.11520924756E+03  0.95891343160E+02 0.  0.
        -11    1    3    3    0    0 -0.96023342882E+01 -0.42821856695E+02 -0.22648070930E+02  0.49384727917E+02  0.00000000000E+00 0. -1.
         11    1    3    3    0    0  0.56392775451E+02  0.24369236915E+02 -0.56112549142E+02  0.83202301664E+02  0.00000000000E+00 0.  1.
        -13    1    4    4    0    0 -0.50997505320E+02 -0.10036291737E+02  0.29785607461E+02  0.59905384670E+02  0.00000000000E+00 0. -1.
         13    1    4    4    0    0  0.26832484574E+02  0.44905625498E+02  0.17944910714E+02  0.55303862888E+02  0.00000000000E+00 0.  1.
         21    1    1    2  502  501 -0.22625420417E+02 -0.16416713981E+02  0.91015323420E+02  0.95211381905E+02  0.00000000000E+00 0. -1.
<scales pt_clust_5="13000.00000" pt_clust_6="13000.00000" pt_clust_7="13000.00000" pt_clust_8="13000.00000" pt_clust_9="27.95386"></scales>
<clustering>
<clus scale="   27.954">  1  9  2 -1</clus>
<clus scale="   94.054">  5  6 -1 -1</clus>
<clus scale="   95.891">  7  8 -1 -1</clus>
<clus scale="  105.114">  2  5  1 -1</clus>
<clus scale="   27.954">  1  5  2 -1</clus>
</clustering>
</event>
<event>
 9    1  0.1612788E-005  0.1289482E+03  0.7546771E-02  0.1230464E+00
          1   -1    0    0  502    0  0.00000000000E+00  0.00000000000E+00  0.80123499401E+03  0.80123499401E+03  0.00000000000E+00 0. -1.
         -1   -1    0    0    0  501 -0.00000000000E+00 -0.00000000000E+00 -0.32214022475E+02  0.32214022475E+02  0.00000000000E+00 0.  1.
         23    2    1    2    0    0  0.10487614392E+03 -0.38158467346E+02  0.37015184843E+03  0.39736760116E+03  0.91834336504E+02 0.  0.
         23    2    1    2    0    0 -0.48407278653E+02  0.45385774297E+02  0.29701570120E+03  0.31939771353E+03  0.96919758115E+02 0.  0.
        -11    1    4    4    0    0 -0.39883550877E+02  0.73074306979E+02  0.25589606427E+03  0.26909728293E+03  0.00000000000E+00 0. -1.
         11    1    4    4    0    0 -0.85237277760E+01 -0.27688532682E+02  0.41119636929E+02  0.50300430599E+02  0.00000000000E+00 0.  1.
        -11    1    3    3    0    0  0.30790495851E+02 -0.45106781566E+02  0.73761260608E+02  0.91779082281E+02  0.00000000000E+00 0.  1.
         11    1    3    3    0    0  0.74085648074E+02  0.69483142197E+01  0.29639058782E+03  0.30558851888E+03  0.00000000000E+00 0. -1.
         21    1    1    2  502  501 -0.56468865272E+02 -0.72273069506E+01  0.10185342191E+03  0.11668370180E+03  0.00000000000E+00 0. -1.
<scales pt_clust_5="13000.00000" pt_clust_6="13000.00000" pt_clust_7="13000.00000" pt_clust_8="13000.00000" pt_clust_9="56.92949"></scales>
<clustering>
<clus scale="   56.929">  2  9  1 -1</clus>
<clus scale="   91.834">  7  8 -1 -1</clus>
<clus scale="   96.920">  5  6 -1 -1</clus>
<clus scale="  125.171">  2  7  1 -1</clus>
<clus scale="  128.948">  1  5  2 -1</clus>
</clustering>
</event>
<event>
 9    1  0.1612788E-005  0.9830542E+02  0.7546771E-02  0.1284063E+00
         -1   -1    0    0    0  501 -0.00000000000E+00  0.00000000000E+00  0.13072656637E+03  0.13072656637E+03  0.00000000000E+00 0.  1.
          1   -1    0    0  502    0  0.00000000000E+00 -0.00000000000E+00 -0.99363138781E+02  0.99363138781E+02  0.00000000000E+00 0. -1.
         23    2    1    2    0    0  0.33001403529E+02  0.31555372523E+01  0.46383520642E+02  0.10776096869E+03  0.91443673023E+02 0.  0.
         23    2    1    2    0    0 -0.35045964924E+02 -0.23449822745E+02 -0.11804645681E+02  0.10167982954E+03  0.91767773385E+02 0.  0.
        -11    1    3    3    0    0  0.41978697528E+01  0.39874890163E+02  0.46092763323E+02  0.61091503556E+02  0.00000000000E+00 0.  1.
         11    1    3    3    0    0  0.28803533776E+02 -0.36719352911E+02  0.29075731876E+00  0.46669465135E+02  0.00000000000E+00 0. -1.
        -13    1    4    4    0    0 -0.65254584883E+02 -0.17401001546E+02  0.27836409084E+01  0.67592191559E+02  0.00000000000E+00 0. -1.
         13    1    4    4    0    0  0.30208619959E+02 -0.60488211989E+01 -0.14588286589E+02  0.34087637984E+02  0.00000000000E+00 0.  1.
         21    1    1    2  502  501  0.20445613957E+01  0.20294285493E+02 -0.32154473729E+01  0.20648906914E+02  0.00000000000E+00 0.  1.
<scales pt_clust_5="13000.00000" pt_clust_6="13000.00000" pt_clust_7="13000.00000" pt_clust_8="13000.00000" pt_clust_9="20.39702"></scales>
<clustering>
<clus scale="   20.397">  2  9  1 -1</clus>
<clus scale="   91.444">  5  6 -1 -1</clus>
<clus scale="   91.768">  7  8 -1 -1</clus>
<clus scale="   98.003">  1  5  2 -1</clus>
<clus scale="   20.397">  2  5  1 -1</clus>
</clustering>
</event>
<event>
 9    1  0.1612788E-005  0.9997880E+02  0.7546771E-02  0.1280342E+00
          2   -1    0    0  502    0  0.00000000000E+00  0.00000000000E+00  0.32734844567E+03  0.32734844567E+03  0.00000000000E+00 0.  1.
         -2   -1    0    0    0  501 -0.00000000000E+00 -0.00000000000E+00 -0.13124750720E+03  0.13124750720E+03  0.00000000000E+00 0. -1.
         23    2    1    2    0    0 -0.75803056225E+01 -0.13881705326E+02 -0.34553981770E+02  0.99402582965E+02  0.91851690610E+02 0.  0.
         23    2    1    2    0    0  0.37833415185E+01  0.42597355608E+02  0.28232736583E+03  0.29995615913E+03  0.91848285352E+02 0.  0.
        -13    1    4    4    0    0 -0.91321257008E+01 -0.21134536784E+02  0.22785348638E+02  0.32391919941E+02  0.00000000000E+00 0. -1.
         13    1    4    4    0    0  0.12915467219E+02  0.63731892393E+02  0.25954201720E+03  0.26756423919E+03  0.00000000000E+00 0.  1.
        -13    1    3    3    0    0  0.28584989720E+02 -0.37396516643E+02 -0.54944145042E+01  0.47389763505E+02  0.00000000000E+00 0.  1.
         13    1    3    3    0    0 -0.36165295343E+02  0.23514811317E+02 -0.29059567265E+02  0.52012819460E+02  0.00000000000E+00 0. -1.
         21    1    1    2  502  501  0.37969641040E+01 -0.28715650283E+02 -0.51672445595E+02  0.59237210783E+02  0.00000000000E+00 0. -1.
<scales pt_clust_5="13000.00000" pt_clust_6="13000.00000" pt_clust_7="13000.00000" pt_clust_8="13000.00000" pt_clust_9="28.96559"></scales>
<clustering>
<clus scale="   28.966">  2  9  1 -1</clus>
<clus scale="   91.848">  5  6 -1 -1</clus>
<clus scale="   91.852">  7  8 -1 -1</clus>
<clus scale="   99.976">  1  5  2 -1</clus>
<clus scale="   99.976">  1  5  2 -1</clus>
</clustering>
</event>
<event>
 9    1  0.1612788E-005  0.1074834E+03  0.7546771E-02  0.1266373E+00
         -1   -1    0    0    0  501 -0.00000000000E+00  0.00000000000E+00  0.44618817378E+02  0.44618817378E+02  0.00000000000E+00 0.  1.
          1   -1    0    0  502    0  0.00000000000E+00 -0.00000000000E+00 -0.54502853482E+03  0.54502853482E+03  0.00000000000E+00 0. -1.
         23    2    1    2    0    0 -0.43075045326E+02 -0.79437549970E+00 -0.13775162456E+03  0.17071309899E+03  0.91166669004E+02 0.  0.
         23    2    1    2    0    0  0.55305527658E+02 -0.17449105384E+02 -0.37694935533E+03  0.39273025589E+03  0.93718006511E+02 0.  0.
        -11    1    3    3    0    0  0.41051098301E+01 -0.27466673197E+02 -0.62296447079E+01  0.28461878652E+02  0.00000000000E+00 0.  1.
         11    1    3    3    0    0 -0.47180155156E+02  0.26672297697E+02 -0.13152197985E+03  0.14225122034E+03  0.00000000000E+00 0. -1.
        -13    1    4    4    0    0  0.54196196731E+02 -0.49056884625E+02 -0.19921232822E+03  0.21220121909E+03  0.00000000000E+00 0.  1.
         13    1    4    4    0    0  0.11093309274E+01  0.31607779241E+02 -0.17773702711E+03  0.18052903680E+03  0.00000000000E+00 0. -1.
         21    1    1    2  502  501 -0.12230482332E+02  0.18243480884E+02  0.14291262443E+02  0.26203997311E+02  0.00000000000E+00 0.  1.
<scales pt_clust_5="13000.00000" pt_clust_6="13000.00000" pt_clust_7="13000.00000" pt_clust_8="13000.00000" pt_clust_9="21.96382"></scales>
<clustering>
<clus scale="   21.964">  1  9  2 -1</clus>
<clus scale="   91.167">  5  6 -1 -1</clus>
<clus scale="   93.718">  7  8 -1 -1</clus>
<clus scale="  105.266">  1  5  2 -1</clus>
<clus scale="  107.483">  2  5  1 -1</clus>
</clustering>
</event>
<event>
 9    1  0.1612788E-005  0.9971133E+02  0.7546771E-02  0.1285079E+00
          2   -1    0    0  502    0  0.00000000000E+00  0.00000000000E+00  0.60199221630E+02  0.60199221630E+02  0.00000000000E+00 0. -1.
         -2   -1    0    0    0  501 -0.00000000000E+00 -0.00000000000E+00 -0.21096857223E+03  0.21096857223E+03  0.00000000000E+00 0.  1.
         23    2    1    2    0    0 -0.50833096532E+02 -0.18246858572E+02 -0.53843839519E+02  0.11794877057E+03  0.89976674057E+02 0.  0.
         23    2    1    2    0    0  0.31943876099E+02  0.98171856135E+01 -0.48478078519E+02  0.10054060497E+03  0.81495403532E+02 0.  0.
        -13    1    3    3    0    0  0.19889360246E+02  0.16295170384E+02 -0.18466189645E+02  0.31656269346E+02  0.00000000000E+00 0. -1.
         13    1    3    3    0    0 -0.70722456779E+02 -0.34542028957E+02 -0.35377649873E+02  0.86292501226E+02  0.00000000000E+00 0.  1.
        -13    1    4    4    0    0  0.53871374545E+02  0.10943525170E+02 -0.94752418243E+01  0.55782308541E+02  0.00000000000E+00 0. -1.
         13    1    4    4    0    0 -0.21927498445E+02 -0.11263395561E+01 -0.39002836695E+02  0.44758296428E+02  0.00000000000E+00 0.  1.
         21    1    1    2  502  501  0.18889220433E+02  0.84296729589E+01 -0.48447432559E+02  0.52678418316E+02  0.00000000000E+00 0. -1.
<scales pt_clust_5="13000.00000" pt_clust_6="13000.00000" pt_clust_7="13000.00000" pt_clust_8="13000.00000" pt_clust_9="20.68483"></scales>
<clustering>
<clus scale="   20.685">  2  9  1 -1</clus>
<clus scale="   81.495">  7  8 -1 -1</clus>
<clus scale="   89.977">  5  6 -1 -1</clus>
<clus scale="   92.131">  1  7  2 -1</clus>
<clus scale="   92.131">  1  5  2 -1</clus>
</clustering>
</event>
<event>
 9    1  0.1612788E-005  0.1044662E+03  0.7546771E-02  0.1275931E+00
         -2   -1    0    0    0  501 -0.00000000000E+00  0.00000000000E+00  0.33899743097E+03  0.33899743097E+03  0.00000000000E+00 0.  1.
          2   -1    0    0  502    0  0.00000000000E+00 -0.00000000000E+00 -0.36927487778E+02  0.36927487778E+02  0.00000000000E+00 0. -1.
         23    2    1    2    0    0  0.27695997884E+02 -0.84473596757E+01  0.14825187757E+03  0.17556707180E+03  0.89480452127E+02 0.  0.
         23    2    1    2    0    0 -0.28533822743E+02  0.29409151699E+02  0.13181632404E+03  0.16995759518E+03  0.99151215979E+02 0.  0.
        -11    1    3    3    0    0 -0.10432200878E+02 -0.41477377926E+02  0.56502534866E+02  0.70864237391E+02  0.00000000000E+00 0. -1.
         11    1    3    3    0    0  0.38128198762E+02  0.33030018250E+02  0.91749342707E+02  0.10470283441E+03  0.00000000000E+00 0.  1.
        -13    1    4    4    0    0 -0.65657414695E+02  0.22980566198E+02  0.87860151545E+02  0.11206430635E+03  0.00000000000E+00 0. -1.
         13    1    4    4    0    0  0.37123591952E+02  0.64285855006E+01  0.43956172496E+02  0.57893288830E+02  0.00000000000E+00 0.  1.
         21    1    1    2  502  501  0.83782485864E+00 -0.20961792023E+02  0.22001741581E+02  0.30400251774E+02  0.00000000000E+00 0.  1.
<scales pt_clust_5="13000.00000" pt_clust_6="13000.00000" pt_clust_7="13000.00000" pt_clust_8="13000.00000" pt_clust_9="20.97853"></scales>
<clustering>
<clus scale="   20.979">  2  9  1 -1</clus>
<clus scale="   89.480">  5  6 -1 -1</clus>
<clus scale="   95.336">  1  5  2 -1</clus>
<clus scale="   99.151">  7  8 -1 -1</clus>
<clus scale="   20.979">  2  5  1 -1</clus>
</clustering>
</event>
<event>
 9    1  0.1612788E-005  0.9553756E+02  0.7546771E-02  0.1291847E+00
          2   -1    0    0  502    0  0.00000000000E+00  0.00000000000E+00  0.31358452896E+03  0.31358452896E+03  0.00000000000E+00 0. -1.
         -2   -1    0    0    0  501 -0.00000000000E+00 -0.00000000000E+00 -0.56421732395E+02  0.56421732395E+02  0.00000000000E+00 0.  1.
         23    2    1    2    0    0 -0.12301044138E+02  0.60483720258E+01  0.54207591792E+02  0.10983491548E+03  0.94537543649E+02 0.  0.
         23    2    1    2    0    0 -0.10583969439E+02 -0.21407346790E+02  0.53922808473E+02  0.10861186218E+03  0.91206208268E+02 0.  0.
        -11    1    3    3    0    0  0.36796485473E+01 -0.26405667461E+02 -0.15830208007E+02  0.31006363428E+02  0.00000000000E+00 0.  1.
         11    1    3    3    0    0 -0.15980692685E+02  0.32454039487E+02  0.70037799799E+02  0.78828552050E+02  0.00000000000E+00 0. -1.
        -11    1    4    4    0    0 -0.33348622485E+02 -0.42460859690E+02  0.10099143107E+02  0.54927660779E+02  0.00000000000E+00 0.  1.
         11    1    4    4    0    0  0.22764653045E+02  0.21053512900E+02  0.43823665367E+02  0.53684201399E+02  0.00000000000E+00 0. -1.
         21    1    1    2  502  501  0.22885013577E+02  0.15358974764E+02  0.14903239630E+03  0.15155948370E+03  0.00000000000E+00 0. -1.
<scales pt_clust_5="13000.00000" pt_clust_6="13000.00000" pt_clust_7="13000.00000" pt_clust_8="13000.00000" pt_clust_9="27.56124"></scales>
<clustering>
<clus scale="   27.561">  1  9  2 -1</clus>
<clus scale="   91.206">  7  8 -1 -1</clus>
<clus scale="   92.242">  1  7  2 -1</clus>
<clus scale="   94.538">  5  6 -1 -1</clus>
<clus scale="   27.561">  1  5  2 -1</clus>
</clustering>
</event>
<event>
 9    1  0.1612788E-005  0.9274302E+02  0.7546771E-02  0.1299050E+00
          1   -1    0    0  502    0  0.00000000000E+00  0.00000000000E+00  0.26369521523E+03  0.26369521523E+03  0.00000000000E+00 0. -1.
         -1   -1    0    0    0  501 -0.00000000000E+00 -0.00000000000E+00 -0.52381476608E+02  0.52381476608E+02  0.00000000000E+00 0.  1.
         23    2    1    2    0    0  0.13144204213E+02 -0.85343317427E+01  0.42250425639E+02  0.10272971362E+03  0.92318419998E+02 0.  0.
         23    2    1    2    0    0  0.24080420261E+02  0.93999286831E+01  0.13361350884E+03  0.16193578742E+03  0.87763342028E+02 0.  0.
        -11    1    4    4    0    0  0.53551199888E+01  0.27229842168E+02  0.20185616918E+01  0.27824740895E+02  0.00000000000E+00 0. -1.
         11    1    4    4    0    0  0.18725300272E+02 -0.17829913485E+02  0.13159494715E+03  0.13411104653E+03  0.00000000000E+00 0.  1.
        -13    1    3    3    0    0  0.21227632543E+01 -0.37862792683E+02  0.56711540367E+02  0.68222401045E+02  0.00000000000E+00 0. -1.
         13    1    3    3    0    0  0.11021440959E+02  0.29328460940E+02 -0.14461114728E+02  0.34507312574E+02  0.00000000000E+00 0.  1.
         21    1    1    2  502  501 -0.37224624474E+02 -0.86559694042E+00  0.35449804138E+02  0.51411190792E+02  0.00000000000E+00 0. -1.
<scales pt_clust_5="13000.00000" pt_clust_6="13000.00000" pt_clust_7="13000.00000" pt_clust_8="13000.00000" pt_clust_9="37.23469"></scales>
<clustering>
<clus scale="   37.235">  1  9  2 -1</clus>
<clus scale="   87.763">  5  6 -1 -1</clus>
<clus scale="   88.210">  1  5  2 -1</clus>
<clus scale="   92.318">  7  8 -1 -1</clus>
<clus scale="   37.235">  1  5  2 -1</clus>
</clustering>
</event>
<event>
 9    1  0.1612788E-005  0.1314849E+03  0.7546771E-02  0.1230330E+00
          2   -1    0    0  502    0  0.00000000000E+00  0.00000000000E+00  0.92580676975E+03  0.92580676975E+03  0.00000000000E+00 0. -1.
         -2   -1    0    0    0  501 -0.00000000000E+00 -0.00000000000E+00 -0.45479084880E+02  0.45479084880E+02  0.00000000000E+00 0.  1.
         23    2    1    2    0    0 -0.37390343858E+02 -0.55732579718E+02  0.23444602257E+03  0.25952107981E+03  0.88781164171E+02 0.  0.
         23    2    1    2    0    0  0.10048055788E+03  0.18517212212E+01  0.59896408913E+03  0.61645065892E+03  0.10561090582E+03 0.  0.
        -11    1    4    4    0    0  0.77107828526E+02 -0.45292425297E+02  0.44026932316E+03  0.44925949954E+03  0.00000000000E+00 0. -1.
         11    1    4    4    0    0  0.23372729356E+02  0.47144146518E+02  0.15869476597E+03  0.16719115938E+03  0.00000000000E+00 0.  1.
        -13    1    3    3    0    0 -0.24761442867E+02  0.27376019106E+01  0.93447521203E+01  0.26607290529E+02  0.00000000000E+00 0.  1.
         13    1    3    3    0    0 -0.12628900991E+02 -0.58470181628E+02  0.22510127045E+03  0.23291378928E+03  0.00000000000E+00 0. -1.
         21    1    1    2  502  501 -0.63090214024E+02  0.53880858496E+02  0.46917573172E+02  0.95314115902E+02  0.00000000000E+00 0.  1.
<scales pt_clust_5="13000.00000" pt_clust_6="13000.00000" pt_clust_7="13000.00000" pt_clust_8="13000.00000" pt_clust_9="82.96699"></scales>
<clustering>
<clus scale="   82.967">  2  9  1 -1</clus>
<clus scale="   88.781">  7  8 -1 -1</clus>
<clus scale="  105.611">  5  6 -1 -1</clus>
<clus scale="  118.392">  2  7  1 -1</clus>
<clus scale="  131.485">  1  5  2 -1</clus>
</clustering>
</event>
<event>
 9    1  0.1612788E-005  0.1293783E+03  0.7546771E-02  0.1229020E+00
         -2   -1    0    0    0  501 -0.00000000000E+00  0.00000000000E+00  0.55027082661E+02  0.55027082661E+02  0.00000000000E+00 0.  1.
          2   -1    0    0  502    0  0.00000000000E+00 -0.00000000000E+00 -0.50460408329E+03  0.50460408329E+03  0.00000000000E+00 0. -1.
         23    2    1    2    0    0 -0.65079301934E+02  0.80787395062E+02 -0.98172430785E+02  0.16877031849E+03  0.89909262562E+02 0.  0.
         23    2    1    2    0    0  0.61916795392E+02 -0.28229426488E+02 -0.27615202542E+03  0.29901702921E+03  0.92307380778E+02 0.  0.
        -11    1    3    3    0    0 -0.80822973457E+02  0.46860406539E+02 -0.44836061213E+02  0.10362684558E+03  0.00000000000E+00 0.  1.
         11    1    3    3    0    0  0.15743671523E+02  0.33926988523E+02 -0.53336369573E+02  0.65143472908E+02  0.00000000000E+00 0. -1.
        -13    1    4    4    0    0  0.25820456510E+02  0.28978746311E+02 -0.15965543082E+03  0.16430556991E+03  0.00000000000E+00 0.  1.
         13    1    4    4    0    0  0.36096338882E+02 -0.57208172799E+02 -0.11649659460E+03  0.13471145931E+03  0.00000000000E+00 0. -1.
         21    1    1    2  502  501  0.31625065420E+01 -0.52557968574E+02 -0.75252544424E+02  0.91843818249E+02  0.00000000000E+00 0.  1.
<scales pt_clust_5="13000.00000" pt_clust_6="13000.00000" pt_clust_7="13000.00000" pt_clust_8="13000.00000" pt_clust_9="52.65303"></scales>
<clustering>
<clus scale="   52.653">  2  9  1 -1</clus>
<clus scale="   89.909">  5  6 -1 -1</clus>
<clus scale="   92.307">  7  8 -1 -1</clus>
<clus scale="  127.678">  1  5  2 -1</clus>
<clus scale="   52.653">  2  5  1 -1</clus>
</clustering>
</event>
<event>
 9    1  0.1612788E-005  0.2986875E+03  0.7546771E-02  0.1085986E+00
         -1   -1    0    0    0  501 -0.00000000000E+00  0.00000000000E+00  0.83011296882E+02  0.83011296882E+02  0.00000000000E+00 0.  1.
          1   -1    0    0  502    0  0.00000000000E+00 -0.00000000000E+00 -0.12574090941E+04  0.12574090941E+04  0.00000000000E+00 0. -1.
         23    2    1    2    0    0 -0.22675363516E+03  0.14627724173E+03 -0.50435131218E+03  0.57895873455E+03  0.89491495157E+02 0.  0.
         23    2    1    2    0    0  0.25726994515E+03 -0.15016892992E+03 -0.65859707679E+03  0.72863667570E+03  0.91775614542E+02 0.  0.
        -11    1    4    4    0    0  0.12615673068E+03 -0.40420561743E+02 -0.37231620774E+03  0.39518185820E+03  0.00000000000E+00 0.  1.
         11    1    4    4    0    0  0.13111321447E+03 -0.10974836817E+03 -0.28628086905E+03  0.33345481749E+03  0.00000000000E+00 0. -1.
        -13    1    3    3    0    0 -0.19765000636E+03  0.10597586077E+03 -0.34040932030E+03  0.40764557329E+03  0.00000000000E+00 0.  1.
         13    1    3    3    0    0 -0.29103628798E+02  0.40301380955E+02 -0.16394199188E+03  0.17131316125E+03  0.00000000000E+00 0. -1.
         21    1    1    2  502  501 -0.30516309992E+02  0.38916881902E+01 -0.11449408279E+02  0.32824980769E+02  0.00000000000E+00 0.  1.
<scales pt_clust_5="13000.00000" pt_clust_6="13000.00000" pt_clust_7="13000.00000" pt_clust_8="13000.00000" pt_clust_9="30.76346"></scales>
<clustering>
<clus scale="   30.763">  1  9  2 -1</clus>
<clus scale="   89.491">  7  8 -1 -1</clus>
<clus scale="   91.776">  5  6 -1 -1</clus>
<clus scale="  297.994">  1  7  2 -1</clus>
<clus scale="  298.688">  2  5  1 -1</clus>
</clustering>
</event>
<event>
 9    1  0.1612788E-005  0.1119683E+03  0.7546771E-02  0.1259323E+00
         -2   -1    0    0    0  501 -0.00000000000E+00  0.00000000000E+00  0.31826756111E+02  0.31826756111E+02  0.00000000000E+00 0.  1.
          2   -1    0    0  502    0  0.00000000000E+00 -0.00000000000E+00 -0.59554453472E+03  0.59554453472E+03  0.00000000000E+00 0. -1.
         23    2    1    2    0    0 -0.21254921821E+01  0.25227621386E+02 -0.14852595143E+03  0.18035662094E+03  0.99134261854E+02 0.  0.
         23    2    1    2    0    0  0.21884606010E+02 -0.64464935964E+02 -0.34848935976E+03  0.36714472188E+03  0.93358175795E+02 0.  0.
        -11    1    4    4    0    0  0.57920784057E+02 -0.29448944793E+02 -0.20993853840E+03  0.21976407232E+03  0.00000000000E+00 0. -1.
         11    1    4    4    0    0 -0.36036178047E+02 -0.35015991171E+02 -0.13855082136E+03  0.14738064956E+03  0.00000000000E+00 0.  1.
        -13    1    3    3    0    0 -0.44851599289E+02 -0.10481579665E+02 -0.76799033848E+02  0.89552337050E+02  0.00000000000E+00 0.  1.
         13    1    3    3    0    0  0.42726107107E+02  0.35709201051E+02 -0.71726917579E+02  0.90804283895E+02  0.00000000000E+00 0. -1.
         21    1    1    2  502  501 -0.19759113828E+02  0.39237314578E+02 -0.66702467417E+02  0.79869948004E+02  0.00000000000E+00 0.  1.
<scales pt_clust_5="13000.00000" pt_clust_6="13000.00000" pt_clust_7="13000.00000" pt_clust_8="13000.00000" pt_clust_9="43.93165"></scales>
<clustering>
<clus scale="   43.932">  1  9  2 -1</clus>
<clus scale="   93.358">  5  6 -1 -1</clus>
<clus scale="   99.134">  7  8 -1 -1</clus>
<clus scale="  106.888">  2  5  1 -1</clus>
<clus scale="  106.888">  2  5  1 -1</clus>
</clustering>
</event>
<event>
 9    1  0.1612788E-005  0.9271078E+02  0.7546771E-02  0.1296497E+00
         -2   -1    0    0    0  501 -0.00000000000E+00  0.00000000000E+00  0.29207186833E+02  0.29207186833E+02  0.00000000000E+00 0.  1.
          2   -1    0    0  502    0  0.00000000000E+00 -0.00000000000E+00 -0.63672760750E+03  0.63672760750E+03  0.00000000000E+00 0. -1.
         23    2    1    2    0    0 -0.12117714887E+02 -0.44943222292E+02 -0.10308759079E+03  0.14477123383E+03  0.90359982987E+02 0.  0.
         23    2    1    2    0    0  0.63482711026E+01  0.13585867210E+02 -0.43837565126E+03  0.44781425208E+03  0.90219268528E+02 0.  0.
        -11    1    4    4    0    0 -0.39439789708E+02 -0.72983616209E+01 -0.22814306781E+03  0.23164201364E+03  0.00000000000E+00 0.  1.
         11    1    4    4    0    0  0.45788060811E+02  0.20884228831E+02 -0.21023258345E+03  0.21617223844E+03  0.00000000000E+00 0. -1.
        -13    1    3    3    0    0 -0.43157503038E+02  0.43661321161E+01 -0.44365460036E+02  0.62047781768E+02  0.00000000000E+00 0. -1.
         13    1    3    3    0    0  0.31039788151E+02 -0.49309354409E+02 -0.58722130750E+02  0.82723452059E+02  0.00000000000E+00 0.  1.
         21    1    1    2  502  501  0.57694437848E+01  0.31357355083E+02 -0.66057178628E+02  0.73349308433E+02  0.00000000000E+00 0. -1.
<scales pt_clust_5="13000.00000" pt_clust_6="13000.00000" pt_clust_7="13000.00000" pt_clust_8="13000.00000" pt_clust_9="31.88370"></scales>
<clustering>
<clus scale="   31.884">  1  9  2 -1</clus>
<clus scale="   90.219">  5  6 -1 -1</clus>
<clus scale="   90.360">  7  8 -1 -1</clus>
<clus scale="   92.574">  2  5  1 -1</clus>
<clus scale="   92.574">  2  5  1 -1</clus>
</clustering>
</event>
<event>
 9    1  0.1612788E-005  0.1544085E+03  0.7546771E-02  0.1195854E+00
         -1   -1    0    0    0  501 -0.00000000000E+00  0.00000000000E+00  0.62635134104E+02  0.62635134104E+02  0.00000000000E+00 0.  1.
          1   -1    0    0  502    0  0.00000000000E+00 -0.00000000000E+00 -0.49554964929E+03  0.49554964929E+03  0.00000000000E+00 0. -1.
         23    2    1    2    0    0 -0.79160671936E+02  0.79612628054E+02 -0.18499988613E+03  0.23613177600E+03  0.94491667592E+02 0.  0.
         23    2    1    2    0    0  0.10546398078E+03 -0.79015022113E+02 -0.24874966460E+03  0.29572966275E+03  0.90628984509E+02 0.  0.
        -13    1    4    4    0    0  0.57467607809E+02 -0.28944664623E+02 -0.20221648146E+03  0.21220703318E+03  0.00000000000E+00 0. -1.
         13    1    4    4    0    0  0.47996372968E+02 -0.50070357490E+02 -0.46533183133E+02  0.83522629566E+02  0.00000000000E+00 0.  1.
        -13    1    3    3    0    0 -0.66682621137E+02  0.14470786161E+01 -0.71768746460E+02  0.97976624594E+02  0.00000000000E+00 0.  1.
         13    1    3    3    0    0 -0.12478050798E+02  0.78165549438E+02 -0.11323113967E+03  0.13815515141E+03  0.00000000000E+00 0. -1.
         21    1    1    2  502  501 -0.26303308841E+02 -0.59760594137E+00  0.83503553413E+00  0.26323344643E+02  0.00000000000E+00 0.  1.
<scales pt_clust_5="13000.00000" pt_clust_6="13000.00000" pt_clust_7="13000.00000" pt_clust_8="13000.00000" pt_clust_9="26.31010"></scales>
<clustering>
<clus scale="   26.310">  1  9  2 -1</clus>
<clus scale="   90.629">  5  6 -1 -1</clus>
<clus scale="   94.492">  7  8 -1 -1</clus>
<clus scale="  152.075">  2  5  1 -1</clus>
<clus scale="  152.075">  2  5  1 -1</clus>
</clustering>
</event>
<event>
 9    1  0.1612788E-005  0.1204231E+03  0.7546771E-02  0.1243140E+00
         -2   -1    0    0    0  501 -0.00000000000E+00  0.00000000000E+00  0.92958218665E+02  0.92958218665E+02  0.00000000000E+00 0.  1.
          2   -1    0    0  502    0  0.00000000000E+00 -0.00000000000E+00 -0.19657069276E+03  0.19657069276E+03  0.00000000000E+00 0. -1.
         23    2    1    2    0    0  0.24612179698E+02  0.75458491348E+02 -0.56835544386E+02  0.13456136844E+03  0.92610687641E+02 0.  0.
         23    2    1    2    0    0  0.52724141155E+00 -0.70862884945E+02 -0.51213865825E+02  0.12902922203E+03  0.94888638086E+02 0.  0.
        -11    1    4    4    0    0  0.33694833785E+02 -0.46657693347E+02 -0.63954270728E+02  0.86037380926E+02  0.00000000000E+00 0.  1.
         11    1    4    4    0    0 -0.33167592373E+02 -0.24205191598E+02  0.12740404903E+02  0.42991841101E+02  0.00000000000E+00 0. -1.
        -13    1    3    3    0    0 -0.18353194923E+02  0.34700229960E+02 -0.63822676302E+02  0.74928497473E+02  0.00000000000E+00 0. -1.
         13    1    3    3    0    0  0.42965374621E+02  0.40758261388E+02  0.69871319158E+01  0.59632870970E+02  0.00000000000E+00 0.  1.
         21    1    1    2  502  501 -0.25139421110E+02 -0.45956064030E+01  0.44369361153E+01  0.25938320956E+02  0.00000000000E+00 0. -1.
<scales pt_clust_5="13000.00000" pt_clust_6="13000.00000" pt_clust_7="13000.00000" pt_clust_8="13000.00000" pt_clust_9="25.55602"></scales>
<clustering>
<clus scale="   25.556">  1  9  2 -1</clus>
<clus scale="   92.611">  7  8 -1 -1</clus>
<clus scale="   94.889">  5  6 -1 -1</clus>
<clus scale="  118.636">  1  7  2 -1</clus>
<clus scale="  120.423">  2  5  1 -1</clus>
</clustering>
</event>
<event>
 9    1  0.1612788E-005  0.1200415E+03  0.7546771E-02  0.1243171E+00
          1   -1    0    0  502    0  0.00000000000E+00  0.00000000000E+00  0.12480517672E+03  0.12480517672E+03  0.00000000000E+00 0. -1.
         -1   -1    0    0    0  501 -0.00000000000E+00 -0.00000000000E+00 -0.23657106264E+03  0.23657106264E+03  0.00000000000E+00 0.  1.
         23    2    1    2    0    0 -0.99910355400E+02 -0.63915338559E+01 -0.59794746638E+02  0.14828993339E+03  0.91605468172E+02 0.  0.
         23    2    1    2    0    0  0.64648524371E+02 -0.29191301381E+02  0.27883980758E+02  0.11881873419E+03  0.91152681980E+02 0.  0.
        -13    1    4    4    0    0  0.48177727351E+02  0.24761960365E+02  0.30835195626E+02  0.62330228486E+02  0.00000000000E+00 0.  1.
         13    1    4    4    0    0  0.16470797020E+02 -0.53953261747E+02 -0.29512148678E+01  0.56488505705E+02  0.00000000000E+00 0. -1.
        -13    1    3    3    0    0 -0.77844287691E+02  0.49908084546E+01 -0.83285254240E+02  0.11410992450E+03  0.00000000000E+00 0.  1.
         13    1    3    3    0    0 -0.22066067710E+02 -0.11382342310E+02  0.23490507602E+02  0.34180008895E+02  0.00000000000E+00 0. -1.
         21    1    1    2  502  501  0.35261831029E+02  0.35582835237E+02 -0.79855120048E+02  0.94267571778E+02  0.00000000000E+00 0.  1.
<scales pt_clust_5="13000.00000" pt_clust_6="13000.00000" pt_clust_7="13000.00000" pt_clust_8="13000.00000" pt_clust_9="50.09526"></scales>
<clustering>
<clus scale="   50.095">  2  9  1 -1</clus>
<clus scale="   91.153">  5  6 -1 -1</clus>
<clus scale="   91.605">  7  8 -1 -1</clus>
<clus scale="  119.696">  1  5  2 -1</clus>
<clus scale="  119.696">  1  5  2 -1</clus>
</clustering>
</event>
<event>
 9    1  0.1612788E-005  0.9710496E+02  0.7546771E-02  0.1286974E+00
          1   -1    0    0  502    0  0.00000000000E+00  0.00000000000E+00  0.52240084402E+03  0.52240084402E+03  0.00000000000E+00 0. -1.
         -1   -1    0    0    0  501 -0.00000000000E+00 -0.00000000000E+00 -0.30982765167E+03  0.30982765167E+03  0.00000000000E+00 0.  1.
         23    2    1    2    0    0 -0.35195347825E+02  0.29504388787E+02 -0.26834323828E+03  0.28756699157E+03  0.92614575764E+02 0.  0.
         23    2    1    2    0    0  0.11489634422E+02 -0.26617419429E+02  0.50301212261E+03  0.51212667595E+03  0.91717163105E+02 0.  0.
        -11    1    3    3    0    0 -0.35539364580E+02 -0.23770297841E+02 -0.17444022244E+03  0.17960363220E+03  0.00000000000E+00 0.  1.
         11    1    3    3    0    0  0.34401675467E+00  0.53274686628E+02 -0.93903015842E+02  0.10796335937E+03  0.00000000000E+00 0. -1.
        -13    1    4    4    0    0  0.14629696666E+02 -0.59635352165E+02  0.36882250123E+03  0.37389897121E+03  0.00000000000E+00 0. -1.
         13    1    4    4    0    0 -0.31400622441E+01  0.33017932736E+02  0.13418962138E+03  0.13822770474E+03  0.00000000000E+00 0.  1.
         21    1    1    2  502  501  0.23705713404E+02 -0.28869693579E+01 -0.22095691975E+02  0.32534828168E+02  0.00000000000E+00 0. -1.
<scales pt_clust_5="13000.00000" pt_clust_6="13000.00000" pt_clust_7="13000.00000" pt_clust_8="13000.00000" pt_clust_9="23.88086"></scales>
<clustering>
<clus scale="   23.881">  2  9  1 -1</clus>
<clus scale="   91.717">  7  8 -1 -1</clus>
<clus scale="   92.615">  5  6 -1 -1</clus>
<clus scale="   96.249">  1  7  2 -1</clus>
<clus scale="   96.249">  1  5  2 -1</clus>
</clustering>
</event>
<event>
 9    1  0.1818264E-005  0.2449195E+03  0.7546771E-02  0.1116665E+00
         -1   -1    0    0    0  501 -0.00000000000E+00  0.00000000000E+00  0.36775154382E+03  0.36775154382E+03  0.00000000000E+00 0.  1.
          1   -1    0    0  502    0  0.00000000000E+00 -0.00000000000E+00 -0.29534981575E+03  0.29534981575E+03  0.00000000000E+00 0. -1.
         23    2    1    2    0    0 -0.22373127525E+03 -0.64842059420E+02  0.22518346613E+03  0.33649294920E+03  0.90883085626E+02 0.  0.
         23    2    1    2    0    0  0.20895054430E+03  0.84926140456E+02 -0.16917118695E+03  0.29676792858E+03  0.92625772036E+02 0.  0.
        -11    1    3    3    0    0 -0.17579928238E+03 -0.25506991092E+02  0.11993384981E+03  0.21433647056E+03  0.00000000000E+00 0.  1.
         11    1    3    3    0    0 -0.47931992864E+02 -0.39335068328E+02  0.10524961631E+03  0.12215647864E+03  0.00000000000E+00 0. -1.
        -13    1    4    4    0    0  0.10959548561E+03  0.85885489292E+02 -0.12827919050E+03  0.18932257777E+03  0.00000000000E+00 0.  1.
         13    1    4    4    0    0  0.99355058698E+02 -0.95934883606E+00 -0.40891996444E+02  0.10744535082E+03  0.00000000000E+00 0. -1.
         21    1    1    2  502  501  0.14780730943E+02 -0.20084081036E+02  0.16389448892E+02  0.29840481787E+02  0.00000000000E+00 0.  1.
<scales pt_clust_5="13000.00000" pt_clust_6="13000.00000" pt_clust_7="13000.00000" pt_clust_8="13000.00000" pt_clust_9="24.93673"></scales>
<clustering>
<clus scale="   24.937">  1  9  2 -1</clus>
<clus scale="   90.883">  5  6 -1 -1</clus>
<clus scale="   92.626">  7  8 -1 -1</clus>
<clus scale="  244.266">  1  5  2 -1</clus>
<clus scale="  244.920">  2  5  1 -1</clus>
</clustering>
</event>
<event>
 9    1  0.1612788E-005  0.1574400E+03  0.7546771E-02  0.1192322E+00
         -1   -1    0    0    0  501 -0.00000000000E+00  0.00000000000E+00  0.60458501640E+03  0.60458501640E+03  0.00000000000E+00 0.  1.
          1   -1    0    0  502    0  0.00000000000E+00 -0.00000000000E+00 -0.22004032700E+03  0.22004032700E+03  0.00000000000E+00 0. -1.
         23    2    1    2    0    0  0.17963169295E+02 -0.13589976840E+03  0.49526674626E+03  0.52177517907E+03  0.90381220611E+02 0.  0.
         23    2    1    2    0    0 -0.92291862902E+02  0.51939547668E+02  0.46044064372E+01  0.14199536491E+03  0.94477396915E+02 0.  0.
        -13    1    4    4    0    0 -0.81706362868E+02  0.24291474138E+02  0.41404719137E+02  0.94764741417E+02  0.00000000000E+00 0. -1.
         13    1    4    4    0    0 -0.10585500034E+02  0.27648073529E+02 -0.36800312700E+02  0.47230623494E+02  0.00000000000E+00 0.  1.
        -13    1    3    3    0    0  0.26313996280E+02 -0.40168269769E+02  0.64455792214E+02  0.80377020636E+02  0.00000000000E+00 0. -1.
         13    1    3    3    0    0 -0.83508269851E+01 -0.95731498632E+02  0.43081095404E+03  0.44139815843E+03  0.00000000000E+00 0.  1.
         21    1    1    2  502  501  0.74328693607E+02  0.83960220734E+02 -0.11532646330E+03  0.16085479942E+03  0.00000000000E+00 0. -1.
<scales pt_clust_5="13000.00000" pt_clust_6="13000.00000" pt_clust_7="13000.00000" pt_clust_8="13000.00000" pt_clust_9="112.13418"></scales>
<clustering>
<clus scale="   90.381">  7  8 -1 -1</clus>
<clus scale="   94.477">  5  6 -1 -1</clus>
<clus scale="  112.134">  2  9  1 -1</clus>
<clus scale="  155.017">  1  7  2 -1</clus>
<clus scale="  112.134">  2  5  1 -1</clus>
</clustering>
</event>
<event>
 9    1  0.1612788E-005  0.1079684E+03  0.7546771E-02  0.1267520E+00
         -4   -1    0    0    0  501 -0.00000000000E+00  0.00000000000E+00  0.60892269935E+03  0.60892269935E+03  0.00000000000E+00 0.  1.
          4   -1    0    0  502    0  0.00000000000E+00 -0.00000000000E+00 -0.24415739560E+02  0.24415739560E+02  0.00000000000E+00 0. -1.
         23    2    1    2    0    0 -0.36892852100E+02  0.32470405149E+02  0.29293946854E+03  0.31158414967E+03  0.94104943302E+02 0.  0.
         23    2    1    2    0    0  0.25716680546E+02 -0.50570180078E+02  0.17585300686E+03  0.20410077012E+03  0.86684217536E+02 0.  0.
        -11    1    3    3    0    0  0.28883385442E+02  0.22865931950E+02  0.72234535763E+02  0.81085935620E+02  0.00000000000E+00 0.  1.
         11    1    3    3    0    0 -0.65776237541E+02  0.96044731994E+01  0.22070493278E+03  0.23049821405E+03  0.00000000000E+00 0. -1.
        -11    1    4    4    0    0  0.41628538797E+02  0.80296340342E+01  0.62769258131E+02  0.75745561133E+02  0.00000000000E+00 0. -1.
         11    1    4    4    0    0 -0.15911858251E+02 -0.58599814113E+02  0.11308374873E+03  0.12835520899E+03  0.00000000000E+00 0.  1.
         21    1    1    2  502  501  0.11176171553E+02  0.18099774929E+02  0.11571448439E+03  0.11765351912E+03  0.00000000000E+00 0. -1.
<scales pt_clust_5="13000.00000" pt_clust_6="13000.00000" pt_clust_7="13000.00000" pt_clust_8="13000.00000" pt_clust_9="21.27225"></scales>
<clustering>
<clus scale="   21.272">  1  9  2 -1</clus>
<clus scale="   86.684">  7  8 -1 -1</clus>
<clus scale="   94.105">  5  6 -1 -1</clus>
<clus scale="  101.566">  2  7  1 -1</clus>
<clus scale="  101.566">  2  5  1 -1</clus>
</clustering>
</event>
<event>
 9    1  0.1612788E-005  0.1033295E+03  0.7546771E-02  0.1275515E+00
          2   -1    0    0  502    0  0.00000000000E+00  0.00000000000E+00  0.36628435944E+03  0.36628435944E+03  0.00000000000E+00 0. -1.
         -2   -1    0    0    0  501 -0.00000000000E+00 -0.00000000000E+00 -0.50485354115E+02  0.50485354115E+02  0.00000000000E+00 0.  1.
         23    2    1    2    0    0 -0.53343024801E+02  0.48831652695E+02  0.16375713696E+03  0.20153444528E+03  0.92572804476E+02 0.  0.
         23    2    1    2    0    0 -0.14765396804E+01 -0.29330514809E+02  0.10700003358E+03  0.14165370870E+03  0.88058541516E+02 0.  0.
        -13    1    3    3    0    0 -0.51258870237E+02  0.75164454038E+02  0.12377907596E+03  0.15361779381E+03  0.00000000000E+00 0. -1.
         13    1    3    3    0    0 -0.20841545644E+01 -0.26332801344E+02  0.39978060999E+02  0.47916651470E+02  0.00000000000E+00 0.  1.
        -13    1    4    4    0    0  0.17512859605E+02 -0.18328235603E+02 -0.64033283744E+01  0.26146263330E+02  0.00000000000E+00 0.  1.
         13    1    4    4    0    0 -0.18989399286E+02 -0.11002279206E+02  0.11340336196E+03  0.11550744537E+03  0.00000000000E+00 0. -1.
         21    1    1    2  502  501  0.54819564481E+02 -0.19501137886E+02  0.45041834777E+02  0.73581559571E+02  0.00000000000E+00 0.  1.
<scales pt_clust_5="13000.00000" pt_clust_6="13000.00000" pt_clust_7="13000.00000" pt_clust_8="13000.00000" pt_clust_9="58.18487"></scales>
<clustering>
<clus scale="   58.185">  2  9  1 -1</clus>
<clus scale="   88.059">  7  8 -1 -1</clus>
<clus scale="   92.573">  5  6 -1 -1</clus>
<clus scale="   99.305">  1  7  2 -1</clus>
<clus scale="   99.305">  1  5  2 -1</clus>
</clustering>
</event>
<event>
 9    1  0.1612788E-005  0.9529793E+02  0.7546771E-02  0.1290990E+00
          2   -1    0    0  502    0  0.00000000000E+00  0.00000000000E+00  0.65708836719E+02  0.65708836719E+02  0.00000000000E+00 0. -1.
         -2   -1    0    0    0  501 -0.00000000000E+00 -0.00000000000E+00 -0.27624368558E+03  0.27624368558E+03  0.00000000000E+00 0.  1.
         23    2    1    2    0    0  0.98708724655E+00  0.16721749092E+02 -0.88300988843E+02  0.12889200415E+03  0.92387731156E+02 0.  0.
         23    2    1    2    0    0 -0.29467169115E+02  0.43536009691E+02 -0.57629715989E+02  0.12023914140E+03  0.91501741861E+02 0.  0.
        -11    1    4    4    0    0 -0.34536614422E+02  0.81043689043E+01 -0.73094857929E+02  0.81248487905E+02  0.00000000000E+00 0.  1.
         11    1    4    4    0    0  0.50694453079E+01  0.35431640787E+02  0.15465141940E+02  0.38990653493E+02  0.00000000000E+00 0. -1.
        -13    1    3    3    0    0 -0.28188699041E+02 -0.26245243683E+02 -0.55184020879E+02  0.67295555054E+02  0.00000000000E+00 0.  1.
         13    1    3    3    0    0  0.29175786288E+02  0.42966992775E+02 -0.33116967964E+02  0.61596449092E+02  0.00000000000E+00 0. -1.
         21    1    1    2  502  501  0.28480081868E+02 -0.60257758783E+02 -0.64604144025E+02  0.92821376751E+02  0.00000000000E+00 0. -1.
<scales pt_clust_5="13000.00000" pt_clust_6="13000.00000" pt_clust_7="13000.00000" pt_clust_8="13000.00000" pt_clust_9="66.64918"></scales>
<clustering>
<clus scale="   66.649">  2  9  1 -1</clus>
<clus scale="   91.502">  5  6 -1 -1</clus>
<clus scale="   92.388">  7  8 -1 -1</clus>
<clus scale="   94.439">  1  5  2 -1</clus>
<clus scale="   94.439">  1  5  2 -1</clus>
</clustering>
</event>
<event>
 9    1  0.1612788E-005  0.1415242E+03  0.7546771E-02  0.1212114E+00
          1   -1    0    0  502    0  0.00000000000E+00  0.00000000000E+00  0.86473159830E+03  0.86473159830E+03  0.00000000000E+00 0. -1.
         -1   -1    0    0    0  501 -0.00000000000E+00 -0.00000000000E+00 -0.62910218643E+02  0.62910218643E+02  0.00000000000E+00 0.  1.
         23    2    1    2    0    0 -0.10990710231E+03  0.15582642165E+02  0.29300892110E+03  0.32716660336E+03  0.94134842836E+02 0.  0.
         23    2    1    2    0    0  0.88448677254E+02 -0.59722192524E+02  0.52916942329E+03  0.54734170321E+03  0.90403278388E+02 0.  0.
        -13    1    3    3    0    0 -0.24003787190E+02  0.41047097882E+02  0.15904930809E+03  0.16600520609E+03  0.00000000000E+00 0.  1.
         13    1    3    3    0    0 -0.85903315118E+02 -0.25464455718E+02  0.13395961301E+03  0.16116139727E+03  0.00000000000E+00 0. -1.
        -13    1    4    4    0    0  0.62763468596E+02  0.81570995100E+01  0.18269314866E+03  0.19334574686E+03  0.00000000000E+00 0.  1.
         13    1    4    4    0    0  0.25685208658E+02 -0.67879292034E+02  0.34647627463E+03  0.35399595635E+03  0.00000000000E+00 0. -1.
         21    1    1    2  502  501  0.21458425053E+02  0.44139550359E+02 -0.20356964728E+02  0.53133510374E+02  0.00000000000E+00 0.  1.
<scales pt_clust_5="13000.00000" pt_clust_6="13000.00000" pt_clust_7="13000.00000" pt_clust_8="13000.00000" pt_clust_9="49.07916"></scales>
<clustering>
<clus scale="   49.079">  2  9  1 -1</clus>
<clus scale="   90.403">  7  8 -1 -1</clus>
<clus scale="   94.135">  5  6 -1 -1</clus>
<clus scale="  139.070">  1  7  2 -1</clus>
<clus scale="  139.070">  1  5  2 -1</clus>
</clustering>
</event>
<event>
 9    1  0.1612788E-005  0.9509619E+02  0.7546771E-02  0.1292064E+00
          2   -1    0    0  502    0  0.00000000000E+00  0.00000000000E+00  0.32894315781E+03  0.32894315781E+03  0.00000000000E+00 0. -1.
         -2   -1    0    0    0  501 -0.00000000000E+00 -0.00000000000E+00 -0.54190769378E+02  0.54190769378E+02  0.00000000000E+00 0.  1.
         23    2    1    2    0    0 -0.14271703344E+01 -0.12690680379E+02  0.12676948826E+03  0.15790053357E+03  0.93268350279E+02 0.  0.
         23    2    1    2    0    0  0.23082548460E+02  0.12793344809E+02  0.16974449249E+03  0.19453269588E+03  0.91286928524E+02 0.  0.
        -13    1    4    4    0    0 -0.10093659846E+02  0.26025571356E+02  0.15220008341E+03  0.15473874022E+03  0.00000000000E+00 0. -1.
         13    1    4    4    0    0  0.33176208306E+02 -0.13232226548E+02  0.17544409075E+02  0.39793955656E+02  0.00000000000E+00 0.  1.
        -13    1    3    3    0    0 -0.73892695890E+01  0.35903965856E+02  0.88396189271E+02  0.95695257703E+02  0.00000000000E+00 0. -1.
         13    1    3    3    0    0  0.59620992546E+01 -0.48594646235E+02  0.38373298991E+02  0.62205275867E+02  0.00000000000E+00 0.  1.
         21    1    1    2  502  501 -0.21655378125E+02 -0.10266442916E+00 -0.21761592317E+02  0.30700697743E+02  0.00000000000E+00 0.  1.
<scales pt_clust_5="13000.00000" pt_clust_6="13000.00000" pt_clust_7="13000.00000" pt_clust_8="13000.00000" pt_clust_9="21.65562"></scales>
<clustering>
<clus scale="   21.656">  2  9  1 -1</clus>
<clus scale="   91.287">  5  6 -1 -1</clus>
<clus scale="   93.154">  1  5  2 -1</clus>
<clus scale="   93.268">  7  8 -1 -1</clus>
<clus scale="   93.154">  1  5  2 -1</clus>
</clustering>
</event>
<event>
 9    1  0.1612788E-005  0.1022735E+03  0.7546771E-02  0.1276999E+00
         -1   -1    0    0    0  501 -0.00000000000E+00  0.00000000000E+00  0.77798609634E+02  0.77798609634E+02  0.00000000000E+00 0.  1.
          1   -1    0    0  502    0  0.00000000000E+00 -0.00000000000E+00 -0.19053185173E+03  0.19053185173E+03  0.00000000000E+00 0. -1.
         23    2    1    2    0    0 -0.11912573899E+02  0.54823120969E+02 -0.22401214231E+02  0.11102837181E+03  0.93155788535E+02 0.  0.
         23    2    1    2    0    0  0.59155342102E+01 -0.35377291167E+02 -0.95674752347E+02  0.13626285271E+03  0.90151874734E+02 0.  0.
        -11    1    3    3    0    0  0.24659447621E+02  0.18997065440E+02  0.26012461578E+02  0.40566303869E+02  0.00000000000E+00 0.  1.
         11    1    3    3    0    0 -0.36572021520E+02  0.35826055529E+02 -0.48413675809E+02  0.70462067938E+02  0.00000000000E+00 0. -1.
        -11    1    4    4    0    0  0.46035447265E+02 -0.74703983977E+01 -0.34758205637E+02  0.58165299932E+02  0.00000000000E+00 0.  1.
         11    1    4    4    0    0 -0.40119913055E+02 -0.27906892769E+02 -0.60916546710E+02  0.78097552782E+02  0.00000000000E+00 0. -1.
         21    1    1    2  502  501  0.59970396892E+01 -0.19445829802E+02  0.53427244860E+01  0.21039236837E+02  0.00000000000E+00 0.  1.
<scales pt_clust_5="13000.00000" pt_clust_6="13000.00000" pt_clust_7="13000.00000" pt_clust_8="13000.00000" pt_clust_9="20.34956"></scales>
<clustering>
<clus scale="   20.350">  1  9  2 -1</clus>
<clus scale="   90.152">  7  8 -1 -1</clus>
<clus scale="   93.156">  5  6 -1 -1</clus>
<clus scale="   99.545">  2  7  1 -1</clus>
<clus scale="   99.545">  2  5  1 -1</clus>
</clustering>
</event>
<event>
 9    1  0.1612788E-005  0.2110304E+03  0.7546771E-02  0.1140987E+00
          3   -1    0    0  502    0  0.00000000000E+00  0.00000000000E+00  0.13393055245E+03  0.13393055245E+03  0.00000000000E+00 0. -1.
         -3   -1    0    0    0  501 -0.00000000000E+00 -0.00000000000E+00 -0.56240605934E+03  0.56240605934E+03  0.00000000000E+00 0.  1.
         23    2    1    2    0    0 -0.18815441038E+03  0.51701822254E+02 -0.36999348464E+03  0.42770738244E+03  0.89237132150E+02 0.  0.
         23    2    1    2    0    0  0.18022918919E+03  0.52590238966E+01 -0.30599262895E+02  0.20471682527E+03  0.91991552280E+02 0.  0.
        -13    1    3    3    0    0 -0.14942199796E+03  0.40583524945E+01 -0.22363266261E+03  0.26898879435E+03  0.00000000000E+00 0.  1.
         13    1    3    3    0    0 -0.38732412416E+02  0.47643469760E+02 -0.14636082203E+03  0.15871858809E+03  0.00000000000E+00 0. -1.
        -13    1    4    4    0    0  0.58108494988E+02  0.45373968823E+02 -0.73495032889E+01  0.74090548892E+02  0.00000000000E+00 0.  1.
         13    1    4    4    0    0  0.12212069420E+03 -0.40114944927E+02 -0.23249759606E+02  0.13062627638E+03  0.00000000000E+00 0. -1.
         21    1    1    2  502  501  0.79252211844E+01 -0.56960846151E+02 -0.27882759356E+02  0.63912404073E+02  0.00000000000E+00 0. -1.
<scales pt_clust_5="13000.00000" pt_clust_6="13000.00000" pt_clust_7="13000.00000" pt_clust_8="13000.00000" pt_clust_9="57.50954"></scales>
<clustering>
<clus scale="   57.510">  1  9  2 -1</clus>
<clus scale="   89.237">  5  6 -1 -1</clus>
<clus scale="   91.992">  7  8 -1 -1</clus>
<clus scale="  209.844">  2  5  1 -1</clus>
<clus scale="   57.510">  1  5  2 -1</clus>
</clustering>
</event>
<event>
 9    1  0.1612788E-005  0.2073284E+03  0.7546771E-02  0.1143888E+00
         -2   -1    0    0    0  501 -0.00000000000E+00  0.00000000000E+00  0.14462137373E+03  0.14462137373E+03  0.00000000000E+00 0.  1.
          2   -1    0    0  502    0  0.00000000000E+00 -0.00000000000E+00 -0.36825054148E+03  0.36825054148E+03  0.00000000000E+00 0. -1.
         23    2    1    2    0    0  0.16243682123E+03  0.55351634995E+02 -0.55539160954E+02  0.20305939985E+03  0.93268414164E+02 0.  0.
         23    2    1    2    0    0 -0.17702524600E+03 -0.81526995706E+02 -0.17693248183E+03  0.27856893985E+03  0.91164479765E+02 0.  0.
        -11    1    4    4    0    0  0.21050151330E+01 -0.21724500625E+02 -0.33843330962E+01  0.22087071481E+02  0.00000000000E+00 0.  1.
         11    1    4    4    0    0 -0.17913026113E+03 -0.59802495081E+02 -0.17354814874E+03  0.25648186837E+03  0.00000000000E+00 0. -1.
        -13    1    3    3    0    0  0.93949396047E+02  0.77947177915E+02 -0.45342218888E+02  0.13022353234E+03  0.00000000000E+00 0.  1.
         13    1    3    3    0    0  0.68487425186E+02 -0.22595542920E+02 -0.10196942066E+02  0.72835867510E+02  0.00000000000E+00 0. -1.
         21    1    1    2  502  501  0.14588424767E+02  0.26175360711E+02  0.88424750466E+01  0.31243575507E+02  0.00000000000E+00 0.  1.
<scales pt_clust_5="13000.00000" pt_clust_6="13000.00000" pt_clust_7="13000.00000" pt_clust_8="13000.00000" pt_clust_9="29.96618"></scales>
<clustering>
<clus scale="   29.966">  1  9  2 -1</clus>
<clus scale="   91.164">  5  6 -1 -1</clus>
<clus scale="   93.268">  7  8 -1 -1</clus>
<clus scale="  206.390">  2  5  1 -1</clus>
<clus scale="  206.390">  2  5  1 -1</clus>
</clustering>
</event>
<event>
 9    1  0.1612788E-005  0.1121280E+03  0.7546771E-02  0.1256721E+00
         -3   -1    0    0    0  501 -0.00000000000E+00  0.00000000000E+00  0.11364811270E+03  0.11364811270E+03  0.00000000000E+00 0.  1.
          3   -1    0    0  502    0  0.00000000000E+00 -0.00000000000E+00 -0.15804920785E+03  0.15804920785E+03  0.00000000000E+00 0. -1.
         23    2    1    2    0    0 -0.74541746208E+02  0.11925555820E+02 -0.16270680875E+02  0.11970221166E+03  0.91461432362E+02 0.  0.
         23    2    1    2    0    0  0.58339961537E+02  0.33568112931E+01 -0.51207720784E+02  0.11992314845E+03  0.91348298129E+02 0.  0.
        -11    1    3    3    0    0 -0.66588974643E+02  0.38844709627E+02 -0.36309679297E+02  0.85213824117E+02  0.00000000000E+00 0. -1.
         11    1    3    3    0    0 -0.79527715646E+01 -0.26919153807E+02  0.20038998422E+02  0.34488387538E+02  0.00000000000E+00 0.  1.
        -13    1    4    4    0    0  0.45996218908E+02 -0.38569422492E+02 -0.46566866069E+02  0.75971873221E+02  0.00000000000E+00 0.  1.
         13    1    4    4    0    0  0.12343742628E+02  0.41926233785E+02 -0.46408547156E+01  0.43951275225E+02  0.00000000000E+00 0. -1.
         21    1    1    2  502  501  0.16201784671E+02 -0.15282367113E+02  0.23077306508E+02  0.32071960444E+02  0.00000000000E+00 0.  1.
<scales pt_clust_5="13000.00000" pt_clust_6="13000.00000" pt_clust_7="13000.00000" pt_clust_8="13000.00000" pt_clust_9="22.27215"></scales>
<clustering>
<clus scale="   22.272">  1  9  2 -1</clus>
<clus scale="   91.348">  7  8 -1 -1</clus>
<clus scale="   91.461">  5  6 -1 -1</clus>
<clus scale="  112.036">  2  7  1 -1</clus>
<clus scale="  112.036">  2  5  1 -1</clus>
</clustering>
</event>
<event>
 9    1  0.1612788E-005  0.1943705E+03  0.7546771E-02  0.1155763E+00
          2   -1    0    0  502    0  0.00000000000E+00  0.00000000000E+00  0.21520422570E+03  0.21520422570E+03  0.00000000000E+00 0. -1.
         -2   -1    0    0    0  501 -0.00000000000E+00 -0.00000000000E+00 -0.34832207260E+03  0.34832207260E+03  0.00000000000E+00 0.  1.
         23    2    1    2    0    0  0.16823856178E+03  0.11175394178E+03  0.45520546442E+00  0.21715102984E+03  0.79757165037E+02 0.  0.
         23    2    1    2    0    0 -0.11517381052E+03 -0.96617467749E+02  0.25571624017E+02  0.17793534239E+03  0.91690437951E+02 0.  0.
        -11    1    3    3    0    0  0.39761171245E+02  0.66982792187E+02 -0.17726960058E+02  0.79886734198E+02  0.00000000000E+00 0.  1.
         11    1    3    3    0    0  0.12847739054E+03  0.44771149594E+02  0.18182165522E+02  0.13726429564E+03  0.00000000000E+00 0. -1.
        -13    1    4    4    0    0 -0.35490027425E+02 -0.71150664433E+02  0.45951685591E+02  0.91834179392E+02  0.00000000000E+00 0. -1.
         13    1    4    4    0    0 -0.79683783095E+02 -0.25466803316E+02 -0.20380061573E+02  0.86101162995E+02  0.00000000000E+00 0.  1.
         21    1    1    2  502  501 -0.53064751261E+02 -0.15136474032E+02 -0.15914467639E+03  0.16843992607E+03  0.00000000000E+00 0.  1.
<scales pt_clust_5="13000.00000" pt_clust_6="13000.00000" pt_clust_7="13000.00000" pt_clust_8="13000.00000" pt_clust_9="55.18134"></scales>
<clustering>
<clus scale="   55.181">  2  9  1 -1</clus>
<clus scale="   79.757">  5  6 -1 -1</clus>
<clus scale="   91.690">  7  8 -1 -1</clus>
<clus scale="  189.034">  2  5  1 -1</clus>
<clus scale="  194.371">  1  5  2 -1</clus>
</clustering>
</event>
<event>
 9    1  0.1612788E-005  0.1291715E+03  0.7546771E-02  0.1245870E+00
         -2   -1    0    0    0  501 -0.00000000000E+00  0.00000000000E+00  0.71739694710E+02  0.71739694710E+02  0.00000000000E+00 0.  1.
          2   -1    0    0  502    0  0.00000000000E+00 -0.00000000000E+00 -0.68658003500E+03  0.68658003500E+03  0.00000000000E+00 0. -1.
         23    2    1    2    0    0 -0.68820650833E+02 -0.57281273625E+02 -0.16054146613E+02  0.12866823468E+03  0.90996443349E+02 0.  0.
         23    2    1    2    0    0 -0.20054005910E+02  0.87647739415E+01 -0.33387119307E+03  0.34604523118E+03  0.88308233153E+02 0.  0.
        -11    1    3    3    0    0 -0.26778917345E+01 -0.61298885256E+02 -0.93425858773E+01  0.62064549855E+02  0.00000000000E+00 0. -1.
         11    1    3    3    0    0 -0.66142759098E+02  0.40176116307E+01 -0.67115607353E+01  0.66603684822E+02  0.00000000000E+00 0.  1.
        -13    1    4    4    0    0 -0.11974967913E+02  0.47134668582E+02 -0.22842321933E+03  0.23354280971E+03  0.00000000000E+00 0.  1.
         13    1    4    4    0    0 -0.80790379965E+01 -0.38369894640E+02 -0.10544797374E+03  0.11250242147E+03  0.00000000000E+00 0. -1.
         21    1    1    2  502  501  0.88874656742E+02  0.48516499684E+02 -0.26491500060E+03  0.28360626385E+03  0.00000000000E+00 0. -1.
<scales pt_clust_5="13000.00000" pt_clust_6="13000.00000" pt_clust_7="13000.00000" pt_clust_8="13000.00000" pt_clust_9="91.67833"></scales>
<clustering>
<clus scale="   88.308">  7  8 -1 -1</clus>
<clus scale="   90.980">  2  7  1 -1</clus>
<clus scale="   90.996">  5  6 -1 -1</clus>
<clus scale="   91.678">  2  9  1 -1</clus>
<clus scale="   90.980">  2  5  1 -1</clus>
</clustering>
</event>
<event>
 9    1  0.1612788E-005  0.1289597E+03  0.7546771E-02  0.1229296E+00
         -2   -1    0    0    0  501 -0.00000000000E+00  0.00000000000E+00  0.17871482426E+03  0.17871482426E+03  0.00000000000E+00 0.  1.
          2   -1    0    0  502    0  0.00000000000E+00 -0.00000000000E+00 -0.12277385182E+03  0.12277385182E+03  0.00000000000E+00 0. -1.
         23    2    1    2    0    0  0.16859639891E+02  0.81587319987E+02  0.72575411357E+02  0.14283103115E+03  0.90513948572E+02 0.  0.
         23    2    1    2    0    0  0.23098144262E+01 -0.95380377890E+02 -0.22893475846E+02  0.13422627230E+03  0.91596010892E+02 0.  0.
        -13    1    3    3    0    0 -0.35580021056E+02  0.22561073994E+02  0.13564995629E+02  0.44260016544E+02  0.00000000000E+00 0.  1.
         13    1    3    3    0    0  0.52439660946E+02  0.59026245993E+02  0.59010415728E+02  0.98571014607E+02  0.00000000000E+00 0. -1.
        -13    1    4    4    0    0  0.27018311622E+02 -0.27565553169E+02  0.26453480755E+02  0.46793541525E+02  0.00000000000E+00 0.  1.
         13    1    4    4    0    0 -0.24708497196E+02 -0.67814824721E+02 -0.49346956601E+02  0.87432730779E+02  0.00000000000E+00 0. -1.
         21    1    1    2  502  501 -0.19169454317E+02  0.13793057902E+02  0.62590369214E+01  0.24431372624E+02  0.00000000000E+00 0.  1.
<scales pt_clust_5="13000.00000" pt_clust_6="13000.00000" pt_clust_7="13000.00000" pt_clust_8="13000.00000" pt_clust_9="23.61602"></scales>
<clustering>
<clus scale="   23.616">  1  9  2 -1</clus>
<clus scale="   90.514">  5  6 -1 -1</clus>
<clus scale="   91.596">  7  8 -1 -1</clus>
<clus scale="  128.193">  1  5  2 -1</clus>
<clus scale="  128.960">  2  5  1 -1</clus>
</clustering>
</event>
<event>
 9    1  0.1612788E-005  0.2074837E+03  0.7546771E-02  0.1152685E+00
          2   -1    0    0  502    0  0.00000000000E+00  0.00000000000E+00  0.54652801107E+03  0.54652801107E+03  0.00000000000E+00 0. -1.
         -2   -1    0    0    0  501 -0.00000000000E+00 -0.00000000000E+00 -0.57624378678E+03  0.57624378678E+03  0.00000000000E+00 0.  1.
         23    2    1    2    0    0 -0.14641065931E+02  0.16415010704E+03 -0.59243191986E+02  0.19789906495E+03  0.92166510494E+02 0.  0.
         23    2    1    2    0    0 -0.13631938498E+03 -0.24997596398E+02  0.43740900020E+03  0.46823297834E+03  0.93314704114E+02 0.  0.
        -11    1    4    4    0    0 -0.31555109147E+02 -0.27692857372E+02  0.42834930509E+02  0.59978750691E+02  0.00000000000E+00 0.  1.
         11    1    4    4    0    0 -0.10476427583E+03  0.26952609746E+01  0.39457406969E+03  0.40825422765E+03  0.00000000000E+00 0. -1.
        -13    1    3    3    0    0  0.31495653433E+02  0.19771535080E+02 -0.96152919066E+01  0.38410202070E+02  0.00000000000E+00 0. -1.
         13    1    3    3    0    0 -0.46136719365E+02  0.14437857196E+03 -0.49627900079E+02  0.15948886288E+03  0.00000000000E+00 0.  1.
         21    1    1    2  502  501  0.15096045091E+03 -0.13915251065E+03 -0.40788158391E+03  0.45663975457E+03  0.00000000000E+00 0.  1.
<scales pt_clust_5="13000.00000" pt_clust_6="13000.00000" pt_clust_7="13000.00000" pt_clust_8="13000.00000" pt_clust_9="185.88922"></scales>
<clustering>
<clus scale="   92.167">  7  8 -1 -1</clus>
<clus scale="   93.315">  5  6 -1 -1</clus>
<clus scale="  167.079">  1  5  2 -1</clus>
<clus scale="  185.889">  2  9  1 -1</clus>
<clus scale="  167.079">  1  5  2 -1</clus>
</clustering>
</event>
<event>
 9    1  0.1612788E-005  0.1021751E+03  0.7546771E-02  0.1277547E+00
          1   -1    0    0  502    0  0.00000000000E+00  0.00000000000E+00  0.36579551725E+03  0.36579551725E+03  0.00000000000E+00 0. -1.
         -1   -1    0    0    0  501 -0.00000000000E+00 -0.00000000000E+00 -0.63182720548E+02  0.63182720548E+02  0.00000000000E+00 0.  1.
         23    2    1    2    0    0  0.52460195242E+02  0.10020223224E+01  0.14793890285E+03  0.18198240612E+03  0.92079319204E+02 0.  0.
         23    2    1    2    0    0 -0.23571285458E+02 -0.13464900524E+00  0.18215768085E+03  0.20711250192E+03  0.95700282814E+02 0.  0.
        -11    1    3    3    0    0  0.45922494720E+02 -0.41666278331E+02  0.98039941845E+02  0.11600338128E+03  0.00000000000E+00 0.  1.
         11    1    3    3    0    0  0.65377005222E+01  0.42668300654E+02  0.49898961007E+02  0.65979024837E+02  0.00000000000E+00 0. -1.
        -13    1    4    4    0    0  0.21929304525E+02 -0.28344451239E+02  0.33299051780E+02  0.48919619402E+02  0.00000000000E+00 0.  1.
         13    1    4    4    0    0 -0.45500589983E+02  0.28209802234E+02  0.14885862907E+03  0.15819288252E+03  0.00000000000E+00 0. -1.
         21    1    1    2  502  501 -0.28888909784E+02 -0.86737331715E+00 -0.27483787000E+02  0.39883329761E+02  0.00000000000E+00 0.  1.
<scales pt_clust_5="13000.00000" pt_clust_6="13000.00000" pt_clust_7="13000.00000" pt_clust_8="13000.00000" pt_clust_9="28.90193"></scales>
<clustering>
<clus scale="   28.902">  2  9  1 -1</clus>
<clus scale="   92.079">  5  6 -1 -1</clus>
<clus scale="   95.700">  7  8 -1 -1</clus>
<clus scale="   98.792">  2  5  1 -1</clus>
<clus scale="  102.175">  1  5  2 -1</clus>
</clustering>
</event>
<event>
 9    1  0.1612788E-005  0.9803233E+02  0.7546771E-02  0.1286427E+00
          2   -1    0    0  502    0  0.00000000000E+00  0.00000000000E+00  0.40764684083E+03  0.40764684083E+03  0.00000000000E+00 0.  1.
         -2   -1    0    0    0  501 -0.00000000000E+00 -0.00000000000E+00 -0.67384776156E+02  0.67384776156E+02  0.00000000000E+00 0. -1.
         23    2    1    2    0    0 -0.33091510442E+02  0.46934870208E+02  0.27001515566E+02  0.10848222689E+03  0.87985121488E+02 0.  0.
         23    2    1    2    0    0  0.31522286391E+01 -0.31292874665E+02  0.31797742965E+03  0.33244247611E+03  0.91756054853E+02 0.  0.
        -11    1    4    4    0    0 -0.17951012684E+02 -0.54959422357E+02  0.13687588297E+03  0.14858594920E+03  0.00000000000E+00 0. -1.
         11    1    4    4    0    0  0.21103241323E+02  0.23666547693E+02  0.18110154669E+03  0.18385652691E+03  0.00000000000E+00 0.  1.
        -13    1    3    3    0    0 -0.60209177712E+02  0.39939171916E+02  0.42090859370E+01  0.72374021158E+02  0.00000000000E+00 0.  1.
         13    1    3    3    0    0  0.27117667270E+02  0.69956982919E+01  0.22792429629E+02  0.36108205732E+02  0.00000000000E+00 0. -1.
         21    1    1    2  502  501  0.29939281803E+02 -0.15641995543E+02 -0.47168805489E+01  0.34106913985E+02  0.00000000000E+00 0. -1.
<scales pt_clust_5="13000.00000" pt_clust_6="13000.00000" pt_clust_7="13000.00000" pt_clust_8="13000.00000" pt_clust_9="33.77917"></scales>
<clustering>
<clus scale="   33.779">  2  9  1 -1</clus>
<clus scale="   87.985">  7  8 -1 -1</clus>
<clus scale="   91.756">  5  6 -1 -1</clus>
<clus scale="   94.512">  2  7  1 -1</clus>
<clus scale="   98.032">  1  5  2 -1</clus>
</clustering>
</event>
<event>
 9    1  0.1612788E-005  0.1137315E+03  0.7546771E-02  0.1254136E+00
          1   -1    0    0  502    0  0.00000000000E+00  0.00000000000E+00  0.25359082203E+03  0.25359082203E+03  0.00000000000E+00 0. -1.
         -1   -1    0    0    0  501 -0.00000000000E+00 -0.00000000000E+00 -0.12940565536E+03  0.12940565536E+03  0.00000000000E+00 0.  1.
         23    2    1    2    0    0  0.66710630950E+02  0.79238699039E+02 -0.38056203753E+02  0.14269972442E+03  0.90475726017E+02 0.  0.
         23    2    1    2    0    0 -0.56939245700E+02 -0.24520801440E+02  0.14467422808E+03  0.18200324752E+03  0.91384913605E+02 0.  0.
        -11    1    3    3    0    0 -0.14641822467E+02  0.44548453881E+02 -0.25485040773E+02  0.53370731787E+02  0.00000000000E+00 0.  1.
         11    1    3    3    0    0  0.81352453417E+02  0.34690245158E+02 -0.12571162981E+02  0.89328992633E+02  0.00000000000E+00 0. -1.
        -13    1    4    4    0    0 -0.71752820512E+02  0.57485871438E+01  0.12109282398E+03  0.14087223121E+03  0.00000000000E+00 0. -1.
         13    1    4    4    0    0  0.14813574812E+02 -0.30269388584E+02  0.23581404097E+02  0.41131016315E+02  0.00000000000E+00 0.  1.
         21    1    1    2  502  501 -0.97713852501E+01 -0.54717897599E+02  0.17567142350E+02  0.58293505450E+02  0.00000000000E+00 0. -1.
<scales pt_clust_5="13000.00000" pt_clust_6="13000.00000" pt_clust_7="13000.00000" pt_clust_8="13000.00000" pt_clust_9="55.58353"></scales>
<clustering>
<clus scale="   55.584">  2  9  1 -1</clus>
<clus scale="   90.476">  5  6 -1 -1</clus>
<clus scale="   91.385">  7  8 -1 -1</clus>
<clus scale="  113.002">  2  5  1 -1</clus>
<clus scale="  113.731">  1  5  2 -1</clus>
</clustering>
</event>
<event>
 9    1  0.1612788E-005  0.1108429E+03  0.7546771E-02  0.1260136E+00
         -2   -1    0    0    0  501 -0.00000000000E+00  0.00000000000E+00  0.73648306227E+02  0.73648306227E+02  0.00000000000E+00 0.  1.
          2   -1    0    0  502    0  0.00000000000E+00 -0.00000000000E+00 -0.35378437516E+03  0.35378437516E+03  0.00000000000E+00 0. -1.
         23    2    1    2    0    0  0.65676585473E+01 -0.48849155820E+02 -0.68301976548E+02  0.12413449291E+03  0.91185734448E+02 0.  0.
         23    2    1    2    0    0 -0.16740551487E+02  0.67144724017E+02 -0.24192038103E+03  0.26664576250E+03  0.88237360992E+02 0.  0.
        -13    1    4    4    0    0  0.46008774428E+01  0.72734692816E+02 -0.23061376304E+03  0.24185576552E+03  0.00000000000E+00 0. -1.
         13    1    4    4    0    0 -0.21341428930E+02 -0.55899687985E+01 -0.11306617990E+02  0.24789996981E+02  0.00000000000E+00 0.  1.
        -13    1    3    3    0    0  0.28146455823E+02 -0.63378350617E+02 -0.25187458822E+02  0.73779715262E+02  0.00000000000E+00 0.  1.
         13    1    3    3    0    0 -0.21578797275E+02  0.14529194797E+02 -0.43114517726E+02  0.50354777648E+02  0.00000000000E+00 0. -1.
         21    1    1    2  502  501  0.10172892940E+02 -0.18295568197E+02  0.30086288637E+02  0.36652425982E+02  0.00000000000E+00 0. -1.
<scales pt_clust_5="13000.00000" pt_clust_6="13000.00000" pt_clust_7="13000.00000" pt_clust_8="13000.00000" pt_clust_9="20.93360"></scales>
<clustering>
<clus scale="   20.934">  1  9  2 -1</clus>
<clus scale="   88.237">  5  6 -1 -1</clus>
<clus scale="   91.186">  7  8 -1 -1</clus>
<clus scale="  108.430">  2  5  1 -1</clus>
<clus scale="  108.430">  2  5  1 -1</clus>
</clustering>
</event>
<event>
 9    1  0.1612788E-005  0.9897382E+02  0.7546771E-02  0.1283526E+00
         -2   -1    0    0    0  501 -0.00000000000E+00  0.00000000000E+00  0.88820134792E+02  0.88820134792E+02  0.00000000000E+00 0.  1.
          2   -1    0    0  502    0  0.00000000000E+00 -0.00000000000E+00 -0.24447884295E+03  0.24447884295E+03  0.00000000000E+00 0. -1.
         23    2    1    2    0    0  0.24085562404E+02 -0.59071511527E+00  0.11448792309E+02  0.97875166378E+02  0.94170112496E+02 0.  0.
         23    2    1    2    0    0 -0.24952619447E+02  0.21505977715E+02 -0.18409203011E+03  0.20846691532E+03  0.92105585798E+02 0.  0.
        -11    1    4    4    0    0  0.33754436979E+02  0.16536663893E+01 -0.45752742961E+02  0.56880665579E+02  0.00000000000E+00 0.  1.
         11    1    4    4    0    0 -0.58707056426E+02  0.19852311325E+02 -0.13833928715E+03  0.15158624974E+03  0.00000000000E+00 0. -1.
        -13    1    3    3    0    0 -0.10706301196E+01  0.27666659952E+02 -0.30630287795E+02  0.41289282534E+02  0.00000000000E+00 0. -1.
         13    1    3    3    0    0  0.25156192524E+02 -0.28257375067E+02  0.42079080104E+02  0.56585883844E+02  0.00000000000E+00 0.  1.
         21    1    1    2  502  501  0.86705704282E+00 -0.20915262599E+02  0.16984529643E+02  0.26956896051E+02  0.00000000000E+00 0.  1.
<scales pt_clust_5="13000.00000" pt_clust_6="13000.00000" pt_clust_7="13000.00000" pt_clust_8="13000.00000" pt_clust_9="20.93323"></scales>
<clustering>
<clus scale="   20.933">  1  9  2 -1</clus>
<clus scale="   92.106">  5  6 -1 -1</clus>
<clus scale="   94.170">  7  8 -1 -1</clus>
<clus scale="   97.012">  2  5  1 -1</clus>
<clus scale="   97.012">  2  5  1 -1</clus>
</clustering>
</event>
<event>
 9    1  0.1612788E-005  0.1029377E+03  0.7546771E-02  0.1285747E+00
         -1   -1    0    0    0  501 -0.00000000000E+00  0.00000000000E+00  0.64281905910E+02  0.64281905910E+02  0.00000000000E+00 0.  1.
          1   -1    0    0  502    0  0.00000000000E+00 -0.00000000000E+00 -0.19318228489E+03  0.19318228489E+03  0.00000000000E+00 0. -1.
         23    2    1    2    0    0  0.57351177782E+02 -0.11587009520E+02 -0.47098487826E+02  0.11958983575E+03  0.93059362112E+02 0.  0.
         23    2    1    2    0    0 -0.32582692958E+02  0.20031572971E+02 -0.77746836593E+02  0.11139357032E+03  0.70007578964E+02 0.  0.
        -11    1    4    4    0    0 -0.14226203879E+02  0.35599275161E+02 -0.10176216256E+02  0.39664198543E+02  0.00000000000E+00 0.  1.
         11    1    4    4    0    0 -0.18356489079E+02 -0.15567702190E+02 -0.67570620337E+02  0.71729371777E+02  0.00000000000E+00 0. -1.
        -13    1    3    3    0    0  0.61595660292E+01 -0.27733298010E+02 -0.58211556593E+02  0.64773925257E+02  0.00000000000E+00 0. -1.
         13    1    3    3    0    0  0.51191611752E+02  0.16146288490E+02  0.11113068767E+02  0.54815910494E+02  0.00000000000E+00 0.  1.
         21    1    1    2  502  501 -0.24768484824E+02 -0.84445634505E+01 -0.40550545592E+01  0.26480784728E+02  0.00000000000E+00 0.  1.
<scales pt_clust_5="13000.00000" pt_clust_6="13000.00000" pt_clust_7="13000.00000" pt_clust_8="13000.00000" pt_clust_9="26.16846"></scales>
<clustering>
<clus scale="   26.168">  1  9  2 -1</clus>
<clus scale="   70.008">  5  6 -1 -1</clus>
<clus scale="   82.687">  2  5  1 -1</clus>
<clus scale="   93.059">  7  8 -1 -1</clus>
<clus scale="   82.687">  2  5  1 -1</clus>
</clustering>
</event>
<event>
 9    1  0.1612788E-005  0.1090205E+03  0.7546771E-02  0.1262767E+00
          1   -1    0    0  502    0  0.00000000000E+00  0.00000000000E+00  0.91376157934E+03  0.91376157934E+03  0.00000000000E+00 0. -1.
         -1   -1    0    0    0  501 -0.00000000000E+00 -0.00000000000E+00 -0.16748761232E+02  0.16748761232E+02  0.00000000000E+00 0.  1.
         23    2    1    2    0    0  0.41876950846E+02  0.55888732366E+02  0.42164410237E+03  0.43695992920E+03  0.90956040173E+02 0.  0.
         23    2    1    2    0    0 -0.31598423870E+02 -0.38531209450E+02  0.44484461150E+03  0.45696280886E+03  0.91897583226E+02 0.  0.
        -11    1    3    3    0    0  0.69250058220E+02  0.48034667372E+02  0.34645750426E+03  0.35656093742E+03  0.00000000000E+00 0.  1.
         11    1    3    3    0    0 -0.27373107374E+02  0.78540649936E+01  0.75186598112E+02  0.80398991784E+02  0.00000000000E+00 0. -1.
        -11    1    4    4    0    0 -0.27413641692E+02 -0.68241700711E+02  0.28562077752E+03  0.29493671527E+03  0.00000000000E+00 0. -1.
         11    1    4    4    0    0 -0.41847821779E+01  0.29710491262E+02  0.15922383398E+03  0.16202609358E+03  0.00000000000E+00 0.  1.
         21    1    1    2  502  501 -0.10278526976E+02 -0.17357522916E+02  0.30524104234E+02  0.36587602516E+02  0.00000000000E+00 0. -1.
<scales pt_clust_5="13000.00000" pt_clust_6="13000.00000" pt_clust_7="13000.00000" pt_clust_8="13000.00000" pt_clust_9="20.17255"></scales>
<clustering>
<clus scale="   20.173">  2  9  1 -1</clus>
<clus scale="   90.956">  5  6 -1 -1</clus>
<clus scale="   91.898">  7  8 -1 -1</clus>
<clus scale="  108.228">  2  5  1 -1</clus>
<clus scale="  109.020">  1  5  2 -1</clus>
</clustering>
</event>
<event>
 9    1  0.1612788E-005  0.1572690E+03  0.7546771E-02  0.1210125E+00
         -2   -1    0    0    0  501 -0.00000000000E+00  0.00000000000E+00  0.53369787536E+02  0.53369787536E+02  0.00000000000E+00 0.  1.
          2   -1    0    0  502    0  0.00000000000E+00 -0.00000000000E+00 -0.74816991675E+03  0.74816991675E+03  0.00000000000E+00 0. -1.
         23    2    1    2    0    0  0.46684258840E+02  0.11949103927E+03 -0.33584521898E+03  0.37155534880E+03  0.93828767532E+02 0.  0.
         23    2    1    2    0    0 -0.51756979281E+02  0.93005068465E+01 -0.19051030758E+03  0.21788395708E+03  0.91727624649E+02 0.  0.
        -11    1    3    3    0    0  0.17559029545E+02 -0.11331449799E+02 -0.80564890215E+02  0.83231140857E+02  0.00000000000E+00 0.  1.
         11    1    3    3    0    0  0.29125229295E+02  0.13082248907E+03 -0.25528032877E+03  0.28832420794E+03  0.00000000000E+00 0. -1.
        -13    1    4    4    0    0 -0.38410431950E+02 -0.13531222469E+02 -0.18678907945E+03  0.19117692190E+03  0.00000000000E+00 0.  1.
         13    1    4    4    0    0 -0.13346547330E+02  0.22831729316E+02 -0.37212281319E+01  0.26707035178E+02  0.00000000000E+00 0. -1.
         21    1    1    2  502  501  0.50727204410E+01 -0.12879154612E+03 -0.16844460265E+03  0.21210039841E+03  0.00000000000E+00 0.  1.
<scales pt_clust_5="13000.00000" pt_clust_6="13000.00000" pt_clust_7="13000.00000" pt_clust_8="13000.00000" pt_clust_9="126.21289"></scales>
<clustering>
<clus scale="   91.728">  7  8 -1 -1</clus>
<clus scale="   93.829">  5  6 -1 -1</clus>
<clus scale="  105.732">  2  7  1 -1</clus>
<clus scale="  126.213">  1  9  2 -1</clus>
<clus scale="  105.732">  2  5  1 -1</clus>
</clustering>
</event>
<event>
 9    1  0.1612788E-005  0.1024799E+03  0.7546771E-02  0.1278343E+00
          1   -1    0    0  502    0  0.00000000000E+00  0.00000000000E+00  0.56976090201E+02  0.56976090201E+02  0.00000000000E+00 0. -1.
         -1   -1    0    0    0  501 -0.00000000000E+00 -0.00000000000E+00 -0.24860934905E+03  0.24860934905E+03  0.00000000000E+00 0.  1.
         23    2    1    2    0    0  0.48207588544E+02  0.11017261506E+02 -0.69217612495E+02  0.12251407753E+03  0.88166148091E+02 0.  0.
         23    2    1    2    0    0 -0.25897487993E+02 -0.16385304104E+02 -0.59249716731E+02  0.11586651716E+03  0.94738391322E+02 0.  0.
        -11    1    4    4    0    0 -0.50007311095E+02  0.18980599859E+02 -0.18034907886E+02  0.56446897491E+02  0.00000000000E+00 0.  1.
         11    1    4    4    0    0  0.24109823101E+02 -0.35365903962E+02 -0.41214808845E+02  0.59419619665E+02  0.00000000000E+00 0. -1.
        -11    1    3    3    0    0  0.42621937810E+02  0.33748846884E+02 -0.80014352298E+02  0.96736295269E+02  0.00000000000E+00 0. -1.
         11    1    3    3    0    0  0.55856507335E+01 -0.22731585379E+02  0.10796739803E+02  0.25777782261E+02  0.00000000000E+00 0.  1.
         21    1    1    2  502  501 -0.22310100550E+02  0.53680425981E+01 -0.63165929618E+02  0.67204844560E+02  0.00000000000E+00 0.  1.
<scales pt_clust_5="13000.00000" pt_clust_6="13000.00000" pt_clust_7="13000.00000" pt_clust_8="13000.00000" pt_clust_9="22.94682"></scales>
<clustering>
<clus scale="   22.947">  2  9  1 -1</clus>
<clus scale="   88.166">  7  8 -1 -1</clus>
<clus scale="   94.738">  5  6 -1 -1</clus>
<clus scale="   96.437">  2  7  1 -1</clus>
<clus scale="  102.480">  1  5  2 -1</clus>
</clustering>
</event>
<event>
 9    1  0.1612788E-005  0.1434421E+03  0.7546771E-02  0.1209658E+00
          1   -1    0    0  502    0  0.00000000000E+00  0.00000000000E+00  0.48873402655E+03  0.48873402655E+03  0.00000000000E+00 0. -1.
         -1   -1    0    0    0  501 -0.00000000000E+00 -0.00000000000E+00 -0.16912684194E+03  0.16912684194E+03  0.00000000000E+00 0.  1.
         23    2    1    2    0    0 -0.66363252519E+02 -0.38125079386E+02 -0.67104588272E+01  0.11781387031E+03  0.89316710732E+02 0.  0.
         23    2    1    2    0    0  0.11716578814E+03  0.50416281057E+01  0.41007891848E+03  0.43664794803E+03  0.93506530360E+02 0.  0.
        -11    1    4    4    0    0 -0.71853360613E+01  0.19511791534E+02  0.30148957440E+02  0.36623745002E+02  0.00000000000E+00 0.  1.
         11    1    4    4    0    0  0.12435112420E+03 -0.14470163429E+02  0.37992996104E+03  0.40002420303E+03  0.00000000000E+00 0. -1.
        -11    1    3    3    0    0 -0.80427687162E+02 -0.83664653033E+01 -0.18321186743E+02  0.82911256700E+02  0.00000000000E+00 0.  1.
         11    1    3    3    0    0  0.14064434642E+02 -0.29758614082E+02  0.11610727916E+02  0.34902613608E+02  0.00000000000E+00 0. -1.
         21    1    1    2  502  501 -0.50802535616E+02  0.33083451280E+02 -0.83761275043E+02  0.10339905014E+03  0.00000000000E+00 0. -1.
<scales pt_clust_5="13000.00000" pt_clust_6="13000.00000" pt_clust_7="13000.00000" pt_clust_8="13000.00000" pt_clust_9="60.62518"></scales>
<clustering>
<clus scale="   60.625">  2  9  1 -1</clus>
<clus scale="   89.317">  7  8 -1 -1</clus>
<clus scale="   93.507">  5  6 -1 -1</clus>
<clus scale="  140.747">  2  7  1 -1</clus>
<clus scale="  143.442">  1  5  2 -1</clus>
</clustering>
</event>
<event>
 9    1  0.1612788E-005  0.9368460E+02  0.7546771E-02  0.1298632E+00
         -2   -1    0    0    0  501 -0.00000000000E+00  0.00000000000E+00  0.29325264916E+02  0.29325264916E+02  0.00000000000E+00 0.  1.
          2   -1    0    0  502    0  0.00000000000E+00 -0.00000000000E+00 -0.38462057861E+03  0.38462057861E+03  0.00000000000E+00 0. -1.
         23    2    1    2    0    0 -0.27075846771E+00  0.17088229619E+02 -0.13596401237E+03  0.16178504302E+03  0.86000619668E+02 0.  0.
         23    2    1    2    0    0 -0.87547766153E+01  0.60163581916E+01 -0.19891084978E+03  0.22003173107E+03  0.93464398780E+02 0.  0.
        -11    1    3    3    0    0  0.16390813684E+02  0.33196091409E+02 -0.17274124934E+02  0.40853820510E+02  0.00000000000E+00 0.  1.
         11    1    3    3    0    0 -0.16661572152E+02 -0.16107861790E+02 -0.11868988744E+03  0.12093122251E+03  0.00000000000E+00 0. -1.
        -13    1    4    4    0    0 -0.78721892963E+01  0.49357129704E+02 -0.12010740435E+03  0.13009183754E+03  0.00000000000E+00 0.  1.
         13    1    4    4    0    0 -0.88258731898E+00 -0.43340771512E+02 -0.78803445434E+02  0.89939893529E+02  0.00000000000E+00 0. -1.
         21    1    1    2  502  501  0.90255350830E+01 -0.23104587810E+02 -0.20420451545E+02  0.32129069434E+02  0.00000000000E+00 0. -1.
<scales pt_clust_5="13000.00000" pt_clust_6="13000.00000" pt_clust_7="13000.00000" pt_clust_8="13000.00000" pt_clust_9="24.80488"></scales>
<clustering>
<clus scale="   24.805">  1  9  2 -1</clus>
<clus scale="   86.001">  5  6 -1 -1</clus>
<clus scale="   86.240">  1  5  2 -1</clus>
<clus scale="   93.464">  7  8 -1 -1</clus>
<clus scale="   93.685">  2  5  1 -1</clus>
</clustering>
</event>
<event>
 9    1  0.1612788E-005  0.1004475E+03  0.7546771E-02  0.1280934E+00
          2   -1    0    0  502    0  0.00000000000E+00  0.00000000000E+00  0.17305570733E+03  0.17305570733E+03  0.00000000000E+00 0. -1.
         -2   -1    0    0    0  501 -0.00000000000E+00 -0.00000000000E+00 -0.84462316114E+02  0.84462316114E+02  0.00000000000E+00 0.  1.
         23    2    1    2    0    0 -0.36327517674E+02  0.31948270825E+02  0.13712244494E+02  0.10428009331E+03  0.91356070746E+02 0.  0.
         23    2    1    2    0    0  0.22404831812E+02 -0.14955338923E+02  0.84159734394E+02  0.12939064296E+03  0.94516871203E+02 0.  0.
        -13    1    4    4    0    0  0.26998939129E+02 -0.52188880218E+02  0.38293634487E+02  0.70135756749E+02  0.00000000000E+00 0.  1.
         13    1    4    4    0    0 -0.45941073170E+01  0.37233541295E+02  0.45866099907E+02  0.59254886213E+02  0.00000000000E+00 0. -1.
        -13    1    3    3    0    0  0.23570180232E+02 -0.14400003459E+02  0.45273936331E+01  0.27989476395E+02  0.00000000000E+00 0.  1.
         13    1    3    3    0    0 -0.59897697905E+02  0.46348274284E+02  0.91848508610E+01  0.76290616912E+02  0.00000000000E+00 0. -1.
         21    1    1    2  502  501  0.13922685862E+02 -0.16992931902E+02 -0.92785876742E+01  0.23847287172E+02  0.00000000000E+00 0.  1.
<scales pt_clust_5="13000.00000" pt_clust_6="13000.00000" pt_clust_7="13000.00000" pt_clust_8="13000.00000" pt_clust_9="21.96818"></scales>
<clustering>
<clus scale="   21.968">  2  9  1 -1</clus>
<clus scale="   91.356">  7  8 -1 -1</clus>
<clus scale="   94.517">  5  6 -1 -1</clus>
<clus scale="   97.479">  2  7  1 -1</clus>
<clus scale="  100.448">  1  5  2 -1</clus>
</clustering>
</event>
<event>
 9    1  0.1612788E-005  0.1398165E+03  0.7546771E-02  0.1215267E+00
          1   -1    0    0  502    0  0.00000000000E+00  0.00000000000E+00  0.47095704712E+03  0.47095704712E+03  0.00000000000E+00 0. -1.
         -1   -1    0    0    0  501 -0.00000000000E+00 -0.00000000000E+00 -0.77803349405E+02  0.77803349405E+02  0.00000000000E+00 0.  1.
         23    2    1    2    0    0 -0.79593321452E+02  0.71458891435E+02  0.41190747640E+02  0.14591936950E+03  0.90301244277E+02 0.  0.
         23    2    1    2    0    0  0.57815468780E+02 -0.80362734456E+02  0.35292504533E+03  0.37929365106E+03  0.97502761984E+02 0.  0.
        -13    1    3    3    0    0 -0.20195934522E+02  0.74420303798E+02  0.38986902187E+02  0.86407383542E+02  0.00000000000E+00 0.  1.
         13    1    3    3    0    0 -0.59397386930E+02 -0.29614123628E+01  0.22038454534E+01  0.59511985953E+02  0.00000000000E+00 0. -1.
        -13    1    4    4    0    0 -0.22768299006E+02 -0.44360718977E+02  0.10811151683E+03  0.11905615859E+03  0.00000000000E+00 0.  1.
         13    1    4    4    0    0  0.80583767785E+02 -0.36002015479E+02  0.24481352850E+03  0.26023749247E+03  0.00000000000E+00 0. -1.
         21    1    1    2  502  501  0.21777852673E+02  0.89038430206E+01 -0.96209525743E+00  0.23547375965E+02  0.00000000000E+00 0. -1.
<scales pt_clust_5="13000.00000" pt_clust_6="13000.00000" pt_clust_7="13000.00000" pt_clust_8="13000.00000" pt_clust_9="23.52771"></scales>
<clustering>
<clus scale="   23.528">  2  9  1 -1</clus>
<clus scale="   90.301">  5  6 -1 -1</clus>
<clus scale="   97.503">  7  8 -1 -1</clus>
<clus scale="  134.893">  2  5  1 -1</clus>
<clus scale="  139.816">  1  5  2 -1</clus>
</clustering>
</event>
<event>
 9    1  0.1612788E-005  0.9724355E+02  0.7546771E-02  0.1287246E+00
          1   -1    0    0  502    0  0.00000000000E+00  0.00000000000E+00  0.22419791415E+03  0.22419791415E+03  0.00000000000E+00 0. -1.
         -1   -1    0    0    0  501 -0.00000000000E+00 -0.00000000000E+00 -0.83503387661E+02  0.83503387661E+02  0.00000000000E+00 0.  1.
         23    2    1    2    0    0 -0.21763103759E+02 -0.38280342730E+02 -0.18902775403E+02  0.10204303285E+03  0.90091333161E+02 0.  0.
         23    2    1    2    0    0  0.20514930995E+00  0.29248618882E+02  0.15370427294E+03  0.18155338925E+03  0.92092919570E+02 0.  0.
        -13    1    4    4    0    0  0.43868058703E+02  0.11801410370E+02  0.49237296885E+02  0.66992471708E+02  0.00000000000E+00 0.  1.
         13    1    4    4    0    0 -0.43662909393E+02  0.17447208512E+02  0.10446697606E+03  0.11456091754E+03  0.00000000000E+00 0. -1.
        -13    1    3    3    0    0 -0.55841886182E+02 -0.29285008036E+02 -0.23372805561E+01  0.63098263276E+02  0.00000000000E+00 0.  1.
         13    1    3    3    0    0  0.34078782423E+02 -0.89953346940E+01 -0.16565494846E+02  0.38944769574E+02  0.00000000000E+00 0. -1.
         21    1    1    2  502  501  0.21557954449E+02  0.90317238485E+01  0.58930289501E+01  0.24104879712E+02  0.00000000000E+00 0.  1.
<scales pt_clust_5="13000.00000" pt_clust_6="13000.00000" pt_clust_7="13000.00000" pt_clust_8="13000.00000" pt_clust_9="23.37343"></scales>
<clustering>
<clus scale="   23.373">  2  9  1 -1</clus>
<clus scale="   90.091">  7  8 -1 -1</clus>
<clus scale="   92.093">  5  6 -1 -1</clus>
<clus scale="   95.350">  2  7  1 -1</clus>
<clus scale="   97.244">  1  5  2 -1</clus>
</clustering>
</event>
<event>
 9    1  0.1612788E-005  0.9623691E+02  0.7546771E-02  0.1290745E+00
          1   -1    0    0  502    0  0.00000000000E+00  0.00000000000E+00  0.93614321353E+02  0.93614321353E+02  0.00000000000E+00 0. -1.
         -1   -1    0    0    0  501 -0.00000000000E+00 -0.00000000000E+00 -0.12608643731E+03  0.12608643731E+03  0.00000000000E+00 0.  1.
         23    2    1    2    0    0  0.21220051874E+02  0.15913416935E+02 -0.11693215173E+02  0.94359026476E+02  0.89796253577E+02 0.  0.
         23    2    1    2    0    0  0.26220869736E+00 -0.19856572599E+02 -0.13286182907E+01  0.96095373696E+02  0.94011719432E+02 0.  0.
        -11    1    4    4    0    0 -0.33477577540E+01  0.21361254107E+02 -0.36079519545E+02  0.42062363100E+02  0.00000000000E+00 0.  1.
         11    1    4    4    0    0  0.36099664514E+01 -0.41217826706E+02  0.34750901254E+02  0.54033010596E+02  0.00000000000E+00 0. -1.
        -11    1    3    3    0    0  0.56158472709E+02  0.13807932044E+02 -0.13224055346E+02  0.59323761547E+02  0.00000000000E+00 0.  1.
         11    1    3    3    0    0 -0.34938420835E+02  0.21054848916E+01  0.15308401737E+01  0.35035264929E+02  0.00000000000E+00 0. -1.
         21    1    1    2  502  501 -0.21482260571E+02  0.39431556637E+01 -0.19450282495E+02  0.29246358491E+02  0.00000000000E+00 0. -1.
<scales pt_clust_5="13000.00000" pt_clust_6="13000.00000" pt_clust_7="13000.00000" pt_clust_8="13000.00000" pt_clust_9="21.84115"></scales>
<clustering>
<clus scale="   21.841">  2  9  1 -1</clus>
<clus scale="   89.796">  7  8 -1 -1</clus>
<clus scale="   92.123">  2  7  1 -1</clus>
<clus scale="   94.012">  5  6 -1 -1</clus>
<clus scale="   96.237">  1  5  2 -1</clus>
</clustering>
</event>
<event>
 9    1  0.1612788E-005  0.9811096E+02  0.7546771E-02  0.1284605E+00
         -3   -1    0    0    0  501 -0.00000000000E+00  0.00000000000E+00  0.10405995548E+03  0.10405995548E+03  0.00000000000E+00 0.  1.
          3   -1    0    0  502    0  0.00000000000E+00 -0.00000000000E+00 -0.12087034842E+03  0.12087034842E+03  0.00000000000E+00 0. -1.
         23    2    1    2    0    0  0.29412678948E+02 -0.82590867683E+01  0.70774374499E+01  0.96023190406E+02  0.90758166453E+02 0.  0.
         23    2    1    2    0    0 -0.40219190270E+02 -0.10793479157E+02 -0.32303337654E+02  0.10544220953E+03  0.91326181730E+02 0.  0.
        -11    1    4    4    0    0 -0.58288180601E+02 -0.32187649014E+02 -0.38285060884E+02  0.76806917877E+02  0.00000000000E+00 0. -1.
         11    1    4    4    0    0  0.18068990331E+02  0.21394169856E+02  0.59817232308E+01  0.28635291656E+02  0.00000000000E+00 0.  1.
        -13    1    3    3    0    0  0.51598907457E+01 -0.42364388311E+02  0.26129472980E+02  0.50041135355E+02  0.00000000000E+00 0. -1.
         13    1    3    3    0    0  0.24252788202E+02  0.34105301542E+02 -0.19052035530E+02  0.45982055051E+02  0.00000000000E+00 0.  1.
         21    1    1    2  502  501  0.10806511322E+02  0.19052565925E+02  0.84155072688E+01  0.23464903961E+02  0.00000000000E+00 0.  1.
<scales pt_clust_5="13000.00000" pt_clust_6="13000.00000" pt_clust_7="13000.00000" pt_clust_8="13000.00000" pt_clust_9="21.90390"></scales>
<clustering>
<clus scale="   21.904">  1  9  2 -1</clus>
<clus scale="   90.758">  7  8 -1 -1</clus>
<clus scale="   91.326">  5  6 -1 -1</clus>
<clus scale="   97.582">  1  7  2 -1</clus>
<clus scale="   98.111">  2  5  1 -1</clus>
</clustering>
</event>
<event>
 9    1  0.1612788E-005  0.1009690E+03  0.7546771E-02  0.1280422E+00
         -1   -1    0    0    0  501 -0.00000000000E+00  0.00000000000E+00  0.51414616174E+03  0.51414616174E+03  0.00000000000E+00 0.  1.
          1   -1    0    0  502    0  0.00000000000E+00 -0.00000000000E+00 -0.33616521395E+02  0.33616521395E+02  0.00000000000E+00 0. -1.
         23    2    1    2    0    0 -0.16192236773E+02 -0.56810917568E+00  0.33226997776E+03  0.34468622732E+03  0.90237164769E+02 0.  0.
         23    2    1    2    0    0  0.40833465647E+02 -0.74122852698E+01  0.81810615334E+02  0.13175778549E+03  0.94577076327E+02 0.  0.
        -11    1    3    3    0    0 -0.17110326549E+02  0.41172411393E+02  0.11302460575E+03  0.12150099686E+03  0.00000000000E+00 0.  1.
         11    1    3    3    0    0  0.91808977623E+00 -0.41740520568E+02  0.21924537201E+03  0.22318523045E+03  0.00000000000E+00 0. -1.
        -11    1    4    4    0    0  0.11384041006E+01  0.20480348707E+02  0.80662085456E+02  0.83229277764E+02  0.00000000000E+00 0.  1.
         11    1    4    4    0    0  0.39695061546E+02 -0.27892633977E+02  0.11485298785E+01  0.48528507727E+02  0.00000000000E+00 0. -1.
         21    1    1    2  502  501 -0.24641228874E+02  0.79803944455E+01  0.66449047254E+02  0.71318670325E+02  0.00000000000E+00 0.  1.
<scales pt_clust_5="13000.00000" pt_clust_6="13000.00000" pt_clust_7="13000.00000" pt_clust_8="13000.00000" pt_clust_9="25.90129"></scales>
<clustering>
<clus scale="   25.901">  1  9  2 -1</clus>
<clus scale="   90.237">  5  6 -1 -1</clus>
<clus scale="   94.577">  7  8 -1 -1</clus>
<clus scale="   96.916">  1  5  2 -1</clus>
<clus scale="  100.969">  2  5  1 -1</clus>
</clustering>
</event>
<event>
 9    1  0.1612788E-005  0.1063999E+03  0.7546771E-02  0.1268470E+00
          1   -1    0    0  502    0  0.00000000000E+00  0.00000000000E+00  0.16310471930E+03  0.16310471930E+03  0.00000000000E+00 0. -1.
         -1   -1    0    0    0  501 -0.00000000000E+00 -0.00000000000E+00 -0.20806712575E+03  0.20806712575E+03  0.00000000000E+00 0.  1.
         23    2    1    2    0    0 -0.25920559494E+02  0.18071951517E+01 -0.13537686341E+03  0.16645491186E+03  0.93301667591E+02 0.  0.
         23    2    1    2    0    0  0.54077864183E+02  0.67685770624E+01  0.12200668880E+03  0.16153769294E+03  0.90766541726E+02 0.  0.
        -11    1    3    3    0    0 -0.32332808153E+02  0.40947481942E+02 -0.49763792219E+02  0.72100913839E+02  0.00000000000E+00 0.  1.
         11    1    3    3    0    0  0.64122486588E+01 -0.39140286790E+02 -0.85613071192E+02  0.94353998017E+02  0.00000000000E+00 0. -1.
        -11    1    4    4    0    0  0.15961662550E+02 -0.36138560208E+02  0.19497800936E+02  0.44056037573E+02  0.00000000000E+00 0.  1.
         11    1    4    4    0    0  0.38116201632E+02  0.42907137270E+02  0.10250888787E+03  0.11748165537E+03  0.00000000000E+00 0. -1.
         21    1    1    2  502  501 -0.28157304688E+02 -0.85757722141E+01 -0.31592231839E+02  0.43179240254E+02  0.00000000000E+00 0.  1.
<scales pt_clust_5="13000.00000" pt_clust_6="13000.00000" pt_clust_7="13000.00000" pt_clust_8="13000.00000" pt_clust_9="29.43429"></scales>
<clustering>
<clus scale="   29.434">  2  9  1 -1</clus>
<clus scale="   90.767">  7  8 -1 -1</clus>
<clus scale="   93.302">  5  6 -1 -1</clus>
<clus scale="  104.184">  1  7  2 -1</clus>
<clus scale="  104.184">  1  5  2 -1</clus>
</clustering>
</event>
<event>
 9    1  0.1612788E-005  0.1116536E+03  0.7546771E-02  0.1258338E+00
          3   -1    0    0  502    0  0.00000000000E+00  0.00000000000E+00  0.46775795297E+03  0.46775795297E+03  0.00000000000E+00 0. -1.
         -3   -1    0    0    0  501 -0.00000000000E+00 -0.00000000000E+00 -0.43821045689E+02  0.43821045689E+02  0.00000000000E+00 0.  1.
         23    2    1    2    0    0  0.76192536977E+02 -0.72300805520E+01  0.19220632939E+03  0.22613523665E+03  0.91303315606E+02 0.  0.
         23    2    1    2    0    0 -0.55386895854E+02  0.10568019738E+02  0.24050108305E+03  0.26261968916E+03  0.89156822039E+02 0.  0.
        -11    1    3    3    0    0  0.24850740601E+02 -0.45793991700E+02  0.11091165222E+03  0.12253996729E+03  0.00000000000E+00 0. -1.
         11    1    3    3    0    0  0.51341796376E+02  0.38563911148E+02  0.81294677172E+02  0.10359526936E+03  0.00000000000E+00 0.  1.
        -11    1    4    4    0    0  0.16944526594E+02  0.19805526703E+02  0.11081559913E+03  0.11383968060E+03  0.00000000000E+00 0.  1.
         11    1    4    4    0    0 -0.72331422448E+02 -0.92375069650E+01  0.12968548392E+03  0.14878000856E+03  0.00000000000E+00 0. -1.
         21    1    1    2  502  501 -0.20805641123E+02 -0.33379391859E+01 -0.87705051571E+01  0.22824072845E+02  0.00000000000E+00 0.  1.
<scales pt_clust_5="13000.00000" pt_clust_6="13000.00000" pt_clust_7="13000.00000" pt_clust_8="13000.00000" pt_clust_9="21.07170"></scales>
<clustering>
<clus scale="   21.072">  2  9  1 -1</clus>
<clus scale="   89.157">  7  8 -1 -1</clus>
<clus scale="   91.303">  5  6 -1 -1</clus>
<clus scale="  109.905">  1  7  2 -1</clus>
<clus scale="  109.905">  1  5  2 -1</clus>
</clustering>
</event>
<event>
 9    1  0.1612788E-005  0.1130439E+03  0.7546771E-02  0.1255573E+00
          1   -1    0    0  502    0  0.00000000000E+00  0.00000000000E+00  0.49233813407E+03  0.49233813407E+03  0.00000000000E+00 0. -1.
         -1   -1    0    0    0  501 -0.00000000000E+00 -0.00000000000E+00 -0.10112051384E+03  0.10112051384E+03  0.00000000000E+00 0.  1.
         23    2    1    2    0    0  0.13582841704E+01  0.28155311084E+02  0.15198372907E+01  0.94885464316E+02  0.90589044343E+02 0.  0.
         23    2    1    2    0    0 -0.36214529890E+02 -0.62780008221E+02  0.42319096504E+03  0.43911209746E+03  0.92065300961E+02 0.  0.
        -11    1    4    4    0    0 -0.61232559930E+02 -0.59227050414E+02  0.37654546965E+03  0.38606186111E+03  0.00000000000E+00 0. -1.
         11    1    4    4    0    0  0.25018030040E+02 -0.35529578068E+01  0.46645495391E+02  0.53050236348E+02  0.00000000000E+00 0.  1.
        -13    1    3    3    0    0  0.40925365822E+02 -0.69179097697E+01 -0.41266952650E+01  0.41710582075E+02  0.00000000000E+00 0. -1.
         13    1    3    3    0    0 -0.39567081652E+02  0.35073220854E+02  0.56465325556E+01  0.53174882241E+02  0.00000000000E+00 0.  1.
         21    1    1    2  502  501  0.34856245720E+02  0.34624697137E+02 -0.33493182089E+02  0.59461086131E+02  0.00000000000E+00 0.  1.
<scales pt_clust_5="13000.00000" pt_clust_6="13000.00000" pt_clust_7="13000.00000" pt_clust_8="13000.00000" pt_clust_9="49.13072"></scales>
<clustering>
<clus scale="   49.131">  2  9  1 -1</clus>
<clus scale="   90.589">  7  8 -1 -1</clus>
<clus scale="   92.065">  5  6 -1 -1</clus>
<clus scale="  111.845">  2  7  1 -1</clus>
<clus scale="  113.044">  1  5  2 -1</clus>
</clustering>
</event>
<event>
 9    1  0.1612788E-005  0.1290573E+03  0.7546771E-02  0.1229150E+00
         -3   -1    0    0    0  501 -0.00000000000E+00  0.00000000000E+00  0.11456757366E+03  0.11456757366E+03  0.00000000000E+00 0.  1.
          3   -1    0    0  502    0  0.00000000000E+00 -0.00000000000E+00 -0.18528633143E+03  0.18528633143E+03  0.00000000000E+00 0. -1.
         23    2    1    2    0    0  0.10379454705E+03 -0.19542220233E+02 -0.46684275614E+02  0.14733596656E+03  0.91505513947E+02 0.  0.
         23    2    1    2    0    0 -0.77320162357E+02  0.72962345164E+01 -0.29619618010E+02  0.12281859590E+03  0.90418157367E+02 0.  0.
        -11    1    3    3    0    0  0.62591684928E+02  0.13218550619E+02  0.15539893168E+02  0.65832646781E+02  0.00000000000E+00 0.  1.
         11    1    3    3    0    0  0.41202862120E+02 -0.32760770852E+02 -0.62224168781E+02  0.81503319774E+02  0.00000000000E+00 0. -1.
        -11    1    4    4    0    0 -0.37480945226E+02  0.48527133303E+02 -0.94486217670E+01  0.62040151314E+02  0.00000000000E+00 0.  1.
         11    1    4    4    0    0 -0.39839217131E+02 -0.41230898787E+02 -0.20170996243E+02  0.60778444582E+02  0.00000000000E+00 0. -1.
         21    1    1    2  502  501 -0.26474384691E+02  0.12245985716E+02  0.55851358463E+01  0.29699342642E+02  0.00000000000E+00 0. -1.
<scales pt_clust_5="13000.00000" pt_clust_6="13000.00000" pt_clust_7="13000.00000" pt_clust_8="13000.00000" pt_clust_9="29.16946"></scales>
<clustering>
<clus scale="   29.169">  1  9  2 -1</clus>
<clus scale="   90.418">  7  8 -1 -1</clus>
<clus scale="   91.506">  5  6 -1 -1</clus>
<clus scale="  128.289">  2  7  1 -1</clus>
<clus scale="  128.289">  2  5  1 -1</clus>
</clustering>
</event>
<event>
 9    1  0.1612788E-005  0.1169477E+03  0.7546771E-02  0.1250943E+00
         -2   -1    0    0    0  501 -0.00000000000E+00  0.00000000000E+00  0.19022658965E+03  0.19022658965E+03  0.00000000000E+00 0.  1.
          2   -1    0    0  502    0  0.00000000000E+00 -0.00000000000E+00 -0.22762984866E+03  0.22762984866E+03  0.00000000000E+00 0. -1.
         23    2    1    2    0    0 -0.44134139806E+02  0.21799840102E+02  0.65962605980E+02  0.12880597580E+03  0.99080062017E+02 0.  0.
         23    2    1    2    0    0  0.55622268961E+02  0.40793276179E+02 -0.16466259533E+03  0.20069230235E+03  0.91682614138E+02 0.  0.
        -11    1    4    4    0    0  0.78471163501E+02  0.35423881858E+02 -0.10030351811E+03  0.13218687776E+03  0.00000000000E+00 0. -1.
         11    1    4    4    0    0 -0.22848894540E+02  0.53693943210E+01 -0.64359077223E+02  0.68505424589E+02  0.00000000000E+00 0.  1.
        -13    1    3    3    0    0  0.17817835492E+02 -0.25022881430E+02  0.31002210213E+02  0.43643520651E+02  0.00000000000E+00 0.  1.
         13    1    3    3    0    0 -0.61951975298E+02  0.46822721533E+02  0.34960395767E+02  0.85162455150E+02  0.00000000000E+00 0. -1.
         21    1    1    2  502  501 -0.11488129155E+02 -0.62593116282E+02  0.61296730344E+02  0.88358160167E+02  0.00000000000E+00 0.  1.
<scales pt_clust_5="13000.00000" pt_clust_6="13000.00000" pt_clust_7="13000.00000" pt_clust_8="13000.00000" pt_clust_9="63.63863"></scales>
<clustering>
<clus scale="   63.639">  1  9  2 -1</clus>
<clus scale="   91.683">  5  6 -1 -1</clus>
<clus scale="   99.080">  7  8 -1 -1</clus>
<clus scale="  110.750">  2  5  1 -1</clus>
<clus scale="  110.750">  2  5  1 -1</clus>
</clustering>
</event>
<event>
 9    1  0.1612788E-005  0.1134301E+03  0.7546771E-02  0.1254814E+00
          2   -1    0    0  502    0  0.00000000000E+00  0.00000000000E+00  0.67543665682E+02  0.67543665682E+02  0.00000000000E+00 0. -1.
         -2   -1    0    0    0  501 -0.00000000000E+00 -0.00000000000E+00 -0.38200080187E+03  0.38200080187E+03  0.00000000000E+00 0.  1.
         23    2    1    2    0    0  0.22295387024E+02 -0.79919123719E+02 -0.16963652614E+03  0.20847581890E+03  0.88325904744E+02 0.  0.
         23    2    1    2    0    0 -0.29481764163E+02  0.58175970276E+02 -0.18147829525E+02  0.11234257490E+03  0.89654294276E+02 0.  0.
        -11    1    4    4    0    0  0.31860864547E+02  0.12106260170E+02 -0.37740890934E+01  0.34291689569E+02  0.00000000000E+00 0.  1.
         11    1    4    4    0    0 -0.61342628710E+02  0.46069710106E+02 -0.14373740432E+02  0.78050885327E+02  0.00000000000E+00 0. -1.
        -11    1    3    3    0    0  0.54587473552E+02 -0.51031484476E+02 -0.83490992201E+02  0.11204798283E+03  0.00000000000E+00 0.  1.
         11    1    3    3    0    0 -0.32292086528E+02 -0.28887639242E+02 -0.86145533937E+02  0.96427836078E+02  0.00000000000E+00 0. -1.
         21    1    1    2  502  501  0.71863771388E+01  0.21743153443E+02 -0.12667278053E+03  0.12872607376E+03  0.00000000000E+00 0. -1.
<scales pt_clust_5="13000.00000" pt_clust_6="13000.00000" pt_clust_7="13000.00000" pt_clust_8="13000.00000" pt_clust_9="22.89997"></scales>
<clustering>
<clus scale="   22.900">  2  9  1 -1</clus>
<clus scale="   88.326">  7  8 -1 -1</clus>
<clus scale="   89.654">  5  6 -1 -1</clus>
<clus scale="  112.383">  2  7  1 -1</clus>
<clus scale="  113.430">  1  5  2 -1</clus>
</clustering>
</event>
<event>
 9    1  0.1612788E-005  0.1929197E+03  0.7546771E-02  0.1155948E+00
          2   -1    0    0  502    0  0.00000000000E+00  0.00000000000E+00  0.61417504624E+03  0.61417504624E+03  0.00000000000E+00 0. -1.
         -2   -1    0    0    0  501 -0.00000000000E+00 -0.00000000000E+00 -0.86004338020E+02  0.86004338020E+02  0.00000000000E+00 0.  1.
         23    2    1    2    0    0  0.11289617931E+03  0.11176533459E+03  0.13780051723E+03  0.22959020600E+03  0.92117548947E+02 0.  0.
         23    2    1    2    0    0 -0.11142810862E+03 -0.13415465527E+03  0.40000658689E+03  0.44616998421E+03  0.92998335137E+02 0.  0.
        -13    1    4    4    0    0 -0.72879601482E+02 -0.48759171580E+02  0.28300164209E+03  0.29627491044E+03  0.00000000000E+00 0.  1.
         13    1    4    4    0    0 -0.38548507137E+02 -0.85395483687E+02  0.11700494480E+03  0.14989507378E+03  0.00000000000E+00 0. -1.
        -13    1    3    3    0    0  0.45834283060E+02  0.94191589086E+02  0.11736872639E+03  0.15731578081E+03  0.00000000000E+00 0. -1.
         13    1    3    3    0    0  0.67061896249E+02  0.17573745506E+02  0.20431790843E+02  0.72274425191E+02  0.00000000000E+00 0.  1.
         21    1    1    2  502  501 -0.14680706903E+01  0.22389320674E+02 -0.96363959011E+01  0.24419194044E+02  0.00000000000E+00 0.  1.
<scales pt_clust_5="13000.00000" pt_clust_6="13000.00000" pt_clust_7="13000.00000" pt_clust_8="13000.00000" pt_clust_9="22.43740"></scales>
<clustering>
<clus scale="   22.437">  2  9  1 -1</clus>
<clus scale="   92.118">  7  8 -1 -1</clus>
<clus scale="   92.998">  5  6 -1 -1</clus>
<clus scale="  192.497">  2  7  1 -1</clus>
<clus scale="  192.920">  1  5  2 -1</clus>
</clustering>
</event>
<event>
 9    1  0.1612788E-005  0.1279170E+03  0.7546771E-02  0.1231960E+00
         -2   -1    0    0    0  501 -0.00000000000E+00  0.00000000000E+00  0.85475265225E+02  0.85475265225E+02  0.00000000000E+00 0.  1.
          2   -1    0    0  502    0  0.00000000000E+00 -0.00000000000E+00 -0.29238795649E+03  0.29238795649E+03  0.00000000000E+00 0. -1.
         23    2    1    2    0    0  0.95896887938E+02 -0.40640207738E+02 -0.28990916346E+02  0.13860080116E+03  0.86728710641E+02 0.  0.
         23    2    1    2    0    0 -0.71800722298E+02  0.43405065335E+02 -0.17520729611E+03  0.21485672386E+03  0.91795815591E+02 0.  0.
        -11    1    4    4    0    0  0.19254993796E+02  0.20420838916E+02 -0.59863930886E+02  0.66116984726E+02  0.00000000000E+00 0.  1.
         11    1    4    4    0    0 -0.91055716095E+02  0.22984226419E+02 -0.11534336522E+03  0.14873973914E+03  0.00000000000E+00 0. -1.
        -13    1    3    3    0    0  0.51398320009E+02  0.24042976802E+02 -0.16564931878E+02  0.59112173039E+02  0.00000000000E+00 0.  1.
         13    1    3    3    0    0  0.44498567929E+02 -0.64683184540E+02 -0.12425984468E+02  0.79488628117E+02  0.00000000000E+00 0. -1.
         21    1    1    2  502  501 -0.24096165639E+02 -0.27648575971E+01 -0.27144788118E+01  0.24405696697E+02  0.00000000000E+00 0.  1.
<scales pt_clust_5="13000.00000" pt_clust_6="13000.00000" pt_clust_7="13000.00000" pt_clust_8="13000.00000" pt_clust_9="24.25427"></scales>
<clustering>
<clus scale="   24.254">  1  9  2 -1</clus>
<clus scale="   86.729">  7  8 -1 -1</clus>
<clus scale="   91.796">  5  6 -1 -1</clus>
<clus scale="  124.331">  1  7  2 -1</clus>
<clus scale="  127.917">  2  5  1 -1</clus>
</clustering>
</event>
<event>
 9    1  0.1612788E-005  0.9658876E+02  0.7546771E-02  0.1288135E+00
         -1   -1    0    0    0  501 -0.00000000000E+00  0.00000000000E+00  0.16204520185E+03  0.16204520185E+03  0.00000000000E+00 0.  1.
          1   -1    0    0  502    0  0.00000000000E+00 -0.00000000000E+00 -0.14163201320E+03  0.14163201320E+03  0.00000000000E+00 0. -1.
         23    2    1    2    0    0 -0.38012780608E+02  0.19316775758E+02  0.84307525324E+02  0.13241954029E+03  0.92785055417E+02 0.  0.
         23    2    1    2    0    0  0.34541801267E+01 -0.26407033448E+02 -0.86837019632E+02  0.12917519239E+03  0.91849330832E+02 0.  0.
        -13    1    3    3    0    0  0.22582376096E+02 -0.18295141712E+02  0.13954406325E+02  0.32239748391E+02  0.00000000000E+00 0.  1.
         13    1    3    3    0    0 -0.60595156704E+02  0.37611917470E+02  0.70353118999E+02  0.10017979190E+03  0.00000000000E+00 0. -1.
        -13    1    4    4    0    0 -0.26833899435E+02 -0.21666845160E+02  0.26418203734E+01  0.34590310102E+02  0.00000000000E+00 0.  1.
         13    1    4    4    0    0  0.30288079562E+02 -0.47401882885E+01 -0.89478840005E+02  0.94584882287E+02  0.00000000000E+00 0. -1.
         21    1    1    2  502  501  0.34558600481E+02  0.70902576903E+01  0.22942682953E+02  0.42082482370E+02  0.00000000000E+00 0.  1.
<scales pt_clust_5="13000.00000" pt_clust_6="13000.00000" pt_clust_7="13000.00000" pt_clust_8="13000.00000" pt_clust_9="35.27844"></scales>
<clustering>
<clus scale="   35.278">  1  9  2 -1</clus>
<clus scale="   91.849">  7  8 -1 -1</clus>
<clus scale="   92.785">  5  6 -1 -1</clus>
<clus scale="   95.690">  2  7  1 -1</clus>
<clus scale="   95.690">  2  5  1 -1</clus>
</clustering>
</event>
<event>
 9    1  0.1612788E-005  0.1778462E+03  0.7546771E-02  0.1169910E+00
          3   -1    0    0  502    0  0.00000000000E+00  0.00000000000E+00  0.35611091183E+03  0.35611091183E+03  0.00000000000E+00 0. -1.
         -3   -1    0    0    0  501 -0.00000000000E+00 -0.00000000000E+00 -0.20441762705E+03  0.20441762705E+03  0.00000000000E+00 0.  1.
         23    2    1    2    0    0 -0.15462045923E+03 -0.30807186182E+02  0.10681157132E+03  0.21098213458E+03  0.90819492457E+02 0.  0.
         23    2    1    2    0    0  0.14965421294E+03  0.88448758333E+01  0.15691500889E+03  0.23527275919E+03  0.90864382043E+02 0.  0.
        -11    1    4    4    0    0  0.11514296002E+03  0.45652889206E+02  0.99830967670E+02  0.15908585620E+03  0.00000000000E+00 0. -1.
         11    1    4    4    0    0  0.34511252920E+02 -0.36808013373E+02  0.57084041220E+02  0.76186902999E+02  0.00000000000E+00 0.  1.
        -13    1    3    3    0    0 -0.81632410957E+02 -0.52055345141E+02  0.26456424619E+02  0.10036708564E+03  0.00000000000E+00 0.  1.
         13    1    3    3    0    0 -0.72988048277E+02  0.21248158959E+02  0.80355146705E+02  0.11061504894E+03  0.00000000000E+00 0. -1.
         21    1    1    2  502  501  0.49662462936E+01  0.21962310349E+02 -0.11203329543E+03  0.11427364510E+03  0.00000000000E+00 0.  1.
<scales pt_clust_5="13000.00000" pt_clust_6="13000.00000" pt_clust_7="13000.00000" pt_clust_8="13000.00000" pt_clust_9="22.51681"></scales>
<clustering>
<clus scale="   22.517">  2  9  1 -1</clus>
<clus scale="   90.819">  7  8 -1 -1</clus>
<clus scale="   90.864">  5  6 -1 -1</clus>
<clus scale="  177.823">  2  7  1 -1</clus>
<clus scale="  177.846">  1  5  2 -1</clus>
</clustering>
</event>
<event>
 9    1  0.1612788E-005  0.2250414E+03  0.7546771E-02  0.1130492E+00
          1   -1    0    0  502    0  0.00000000000E+00  0.00000000000E+00  0.88348846271E+03  0.88348846271E+03  0.00000000000E+00 0. -1.
         -1   -1    0    0    0  501 -0.00000000000E+00 -0.00000000000E+00 -0.85421182543E+02  0.85421182543E+02  0.00000000000E+00 0.  1.
         23    2    1    2    0    0  0.15681491911E+03 -0.15111694080E+03  0.37593356246E+03  0.44430388700E+03  0.93019632155E+02 0.  0.
         23    2    1    2    0    0 -0.18247908143E+03  0.74007241835E+02  0.36252066252E+03  0.42381750869E+03  0.97079157987E+02 0.  0.
        -11    1    4    4    0    0 -0.87995438612E+00  0.23744934482E+02  0.85845742464E+02  0.89073496240E+02  0.00000000000E+00 0.  1.
         11    1    4    4    0    0 -0.18159912704E+03  0.50262307353E+02  0.27667492006E+03  0.33474401245E+03  0.00000000000E+00 0. -1.
        -13    1    3    3    0    0  0.12666827268E+03 -0.13170094376E+03  0.22853275781E+03  0.29260418877E+03  0.00000000000E+00 0.  1.
         13    1    3    3    0    0  0.30146646427E+02 -0.19415997037E+02  0.14740080465E+03  0.15169969823E+03  0.00000000000E+00 0. -1.
         21    1    1    2  502  501  0.25664162319E+02  0.77109698962E+02  0.59613055185E+02  0.10078824956E+03  0.00000000000E+00 0.  1.
<scales pt_clust_5="13000.00000" pt_clust_6="13000.00000" pt_clust_7="13000.00000" pt_clust_8="13000.00000" pt_clust_9="81.26841"></scales>
<clustering>
<clus scale="   81.268">  2  9  1 -1</clus>
<clus scale="   93.020">  7  8 -1 -1</clus>
<clus scale="   97.079">  5  6 -1 -1</clus>
<clus scale="  223.320">  2  7  1 -1</clus>
<clus scale="  225.041">  1  5  2 -1</clus>
</clustering>
</event>
<event>
 9    1  0.1612788E-005  0.9975601E+02  0.7546771E-02  0.1281574E+00
         -1   -1    0    0    0  501 -0.00000000000E+00  0.00000000000E+00  0.58677483925E+02  0.58677483925E+02  0.00000000000E+00 0.  1.
          1   -1    0    0  502    0  0.00000000000E+00 -0.00000000000E+00 -0.33610789116E+03  0.33610789116E+03  0.00000000000E+00 0. -1.
         23    2    1    2    0    0  0.12316830444E+01 -0.71716656716E+02 -0.13642297423E+03  0.17865852435E+03  0.90348461699E+02 0.  0.
         23    2    1    2    0    0  0.26840851462E+01  0.14977286243E+02 -0.12708358562E+03  0.15757291894E+03  0.91910084512E+02 0.  0.
        -11    1    4    4    0    0 -0.25501518365E+02 -0.13208466080E+02 -0.11088989036E+03  0.11454849977E+03  0.00000000000E+00 0. -1.
         11    1    4    4    0    0  0.28185603511E+02  0.28185752323E+02 -0.16193695257E+02  0.43024419176E+02  0.00000000000E+00 0.  1.
        -13    1    3    3    0    0  0.27709363341E+02 -0.53299623454E+02 -0.13335399779E+03  0.14625986258E+03  0.00000000000E+00 0.  1.
         13    1    3    3    0    0 -0.26477680296E+02 -0.18417033263E+02 -0.30689764480E+01  0.32398661771E+02  0.00000000000E+00 0. -1.
         21    1    1    2  502  501 -0.39157681907E+01  0.56739370473E+02 -0.13923847387E+02  0.58553931792E+02  0.00000000000E+00 0.  1.
<scales pt_clust_5="13000.00000" pt_clust_6="13000.00000" pt_clust_7="13000.00000" pt_clust_8="13000.00000" pt_clust_9="56.87433"></scales>
<clustering>
<clus scale="   56.874">  1  9  2 -1</clus>
<clus scale="   90.348">  7  8 -1 -1</clus>
<clus scale="   91.910">  5  6 -1 -1</clus>
<clus scale="   98.319">  1  7  2 -1</clus>
<clus scale="   99.756">  2  5  1 -1</clus>
</clustering>
</event>
<event>
 9    1  0.1612788E-005  0.9795637E+02  0.7546771E-02  0.1286122E+00
          1   -1    0    0  502    0  0.00000000000E+00  0.00000000000E+00  0.45692807321E+03  0.45692807321E+03  0.00000000000E+00 0. -1.
         -1   -1    0    0    0  501 -0.00000000000E+00 -0.00000000000E+00 -0.41046033314E+02  0.41046033314E+02  0.00000000000E+00 0.  1.
         23    2    1    2    0    0  0.11838599456E+02 -0.44860815872E+02  0.19829001237E+03  0.22382931770E+03  0.92886970127E+02 0.  0.
         23    2    1    2    0    0 -0.30879477302E+02  0.26338272361E+01  0.20515132239E+03  0.22618183705E+03  0.90059309180E+02 0.  0.
        -11    1    3    3    0    0  0.41441425411E+02 -0.45951400196E+02  0.17656496553E+03  0.18709385338E+03  0.00000000000E+00 0. -1.
         11    1    3    3    0    0 -0.29602825955E+02  0.10905843235E+01  0.21725046840E+02  0.36735464322E+02  0.00000000000E+00 0.  1.
        -11    1    4    4    0    0  0.19606525771E+02  0.31291085964E+02  0.88091451550E+02  0.95517808548E+02  0.00000000000E+00 0.  1.
         11    1    4    4    0    0 -0.50486003073E+02 -0.28657258728E+02  0.11705987084E+03  0.13066402850E+03  0.00000000000E+00 0. -1.
         21    1    1    2  502  501  0.19040877846E+02  0.42226988636E+02  0.12440705139E+02  0.47962951773E+02  0.00000000000E+00 0.  1.
<scales pt_clust_5="13000.00000" pt_clust_6="13000.00000" pt_clust_7="13000.00000" pt_clust_8="13000.00000" pt_clust_9="46.32142"></scales>
<clustering>
<clus scale="   46.321">  2  9  1 -1</clus>
<clus scale="   90.059">  7  8 -1 -1</clus>
<clus scale="   92.887">  5  6 -1 -1</clus>
<clus scale="   95.279">  1  7  2 -1</clus>
<clus scale="   95.279">  1  5  2 -1</clus>
</clustering>
</event>
<event>
 9    1  0.1612788E-005  0.1028346E+03  0.7546771E-02  0.1276328E+00
          1   -1    0    0  502    0  0.00000000000E+00  0.00000000000E+00  0.67838579360E+03  0.67838579360E+03  0.00000000000E+00 0. -1.
         -1   -1    0    0    0  501 -0.00000000000E+00 -0.00000000000E+00 -0.24315907165E+02  0.24315907165E+02  0.00000000000E+00 0.  1.
         23    2    1    2    0    0  0.39176628709E+02  0.72524172874E+01  0.19748289145E+03  0.21982868714E+03  0.87964501269E+02 0.  0.
         23    2    1    2    0    0 -0.45979780403E+02  0.28060729844E+02  0.41204562827E+03  0.42562587761E+03  0.92055652419E+02 0.  0.
        -11    1    4    4    0    0 -0.48593255757E+02 -0.22811078323E+02  0.16983434521E+03  0.17811612676E+03  0.00000000000E+00 0. -1.
         11    1    4    4    0    0  0.26134753542E+01  0.50871808167E+02  0.24221128307E+03  0.24750975085E+03  0.00000000000E+00 0.  1.
        -13    1    3    3    0    0  0.33031677290E+01 -0.36899049314E+02  0.10395003013E+03  0.11035424560E+03  0.00000000000E+00 0.  1.
         13    1    3    3    0    0  0.35873460980E+02  0.44151466602E+02  0.93532861317E+02  0.10947444155E+03  0.00000000000E+00 0. -1.
         21    1    1    2  502  501  0.68031516934E+01 -0.35313147132E+02  0.44541366717E+02  0.57247136018E+02  0.00000000000E+00 0.  1.
<scales pt_clust_5="13000.00000" pt_clust_6="13000.00000" pt_clust_7="13000.00000" pt_clust_8="13000.00000" pt_clust_9="35.96250"></scales>
<clustering>
<clus scale="   35.962">  2  9  1 -1</clus>
<clus scale="   87.965">  7  8 -1 -1</clus>
<clus scale="   92.056">  5  6 -1 -1</clus>
<clus scale="   99.189">  2  7  1 -1</clus>
<clus scale="  102.835">  1  5  2 -1</clus>
</clustering>
</event>
<event>
 9    1  0.1612788E-005  0.1994509E+03  0.7546771E-02  0.1150453E+00
         -1   -1    0    0    0  501 -0.00000000000E+00  0.00000000000E+00  0.43766344923E+03  0.43766344923E+03  0.00000000000E+00 0.  1.
          1   -1    0    0  502    0  0.00000000000E+00 -0.00000000000E+00 -0.30265994265E+03  0.30265994265E+03  0.00000000000E+00 0. -1.
         23    2    1    2    0    0  0.28319858519E+02  0.18311136442E+03  0.31890149325E+03  0.38106486868E+03  0.95814850535E+02 0.  0.
         23    2    1    2    0    0 -0.81560622671E+01 -0.17376422693E+03 -0.23298430234E+03  0.30537518584E+03  0.93336975937E+02 0.  0.
        -11    1    4    4    0    0 -0.19802780924E+02 -0.47649618553E+02 -0.15809531841E+02  0.53968301600E+02  0.00000000000E+00 0.  1.
         11    1    4    4    0    0  0.11646718657E+02 -0.12611460838E+03 -0.21717477050E+03  0.25140688424E+03  0.00000000000E+00 0. -1.
        -13    1    3    3    0    0  0.24752974756E+02  0.10200749232E+03  0.26109378298E+03  0.28140398320E+03  0.00000000000E+00 0.  1.
         13    1    3    3    0    0  0.35668837627E+01  0.81103872099E+02  0.57807710264E+02  0.99660885482E+02  0.00000000000E+00 0. -1.
         21    1    1    2  502  501 -0.20163796252E+02 -0.93471374874E+01  0.49086315674E+02  0.53883337359E+02  0.00000000000E+00 0. -1.
<scales pt_clust_5="13000.00000" pt_clust_6="13000.00000" pt_clust_7="13000.00000" pt_clust_8="13000.00000" pt_clust_9="22.22493"></scales>
<clustering>
<clus scale="   22.225">  1  9  2 -1</clus>
<clus scale="   93.337">  5  6 -1 -1</clus>
<clus scale="   95.815">  7  8 -1 -1</clus>
<clus scale="  198.272">  2  5  1 -1</clus>
<clus scale="  198.272">  2  5  1 -1</clus>
</clustering>
</event>
<event>
 9    1  0.1612788E-005  0.2041454E+03  0.7546771E-02  0.1146588E+00
          2   -1    0    0  502    0  0.00000000000E+00  0.00000000000E+00  0.41505312880E+03  0.41505312880E+03  0.00000000000E+00 0. -1.
         -2   -1    0    0    0  501 -0.00000000000E+00 -0.00000000000E+00 -0.15644742024E+03  0.15644742024E+03  0.00000000000E+00 0.  1.
         23    2    1    2    0    0 -0.17223967559E+03  0.88055083926E+02  0.10491468106E+02  0.21371770536E+03  0.90249559718E+02 0.  0.
         23    2    1    2    0    0  0.16646705259E+03 -0.62385622994E+02  0.26030658442E+03  0.32878460835E+03  0.93469541778E+02 0.  0.
        -13    1    3    3    0    0 -0.17313759099E+03  0.56846528162E+02  0.95906502826E+01  0.18248324238E+03  0.00000000000E+00 0.  1.
         13    1    3    3    0    0  0.89791539638E+00  0.31208555764E+02  0.90081782330E+00  0.31234462981E+02  0.00000000000E+00 0. -1.
        -13    1    4    4    0    0  0.45297858188E+02  0.68836367754E+01  0.13000646948E+03  0.13784397890E+03  0.00000000000E+00 0.  1.
         13    1    4    4    0    0  0.12116919440E+03 -0.69269259769E+02  0.13030011493E+03  0.19094062944E+03  0.00000000000E+00 0. -1.
         21    1    1    2  502  501  0.57726230015E+01 -0.25669460932E+02 -0.12192343957E+02  0.28998235326E+02  0.00000000000E+00 0. -1.
<scales pt_clust_5="13000.00000" pt_clust_6="13000.00000" pt_clust_7="13000.00000" pt_clust_8="13000.00000" pt_clust_9="26.31054"></scales>
<clustering>
<clus scale="   26.311">  2  9  1 -1</clus>
<clus scale="   90.250">  5  6 -1 -1</clus>
<clus scale="   93.470">  7  8 -1 -1</clus>
<clus scale="  202.691">  2  5  1 -1</clus>
<clus scale="  204.145">  1  5  2 -1</clus>
</clustering>
</event>
<event>
 9    1  0.1612788E-005  0.1488261E+03  0.7546771E-02  0.1204334E+00
         -2   -1    0    0    0  501 -0.00000000000E+00  0.00000000000E+00  0.84024485924E+02  0.84024485924E+02  0.00000000000E+00 0.  1.
          2   -1    0    0  502    0  0.00000000000E+00 -0.00000000000E+00 -0.52912505173E+03  0.52912505173E+03  0.00000000000E+00 0. -1.
         23    2    1    2    0    0 -0.10470332000E+03 -0.34144511506E+02 -0.22819838825E+02  0.15023363391E+03  0.99603046274E+02 0.  0.
         23    2    1    2    0    0  0.11136337174E+03  0.30218287726E+01 -0.39898643158E+03  0.42347478475E+03  0.87919217013E+02 0.  0.
        -13    1    4    4    0    0  0.34662038241E+02  0.41722248142E+02 -0.12308537251E+03  0.13450729278E+03  0.00000000000E+00 0.  1.
         13    1    4    4    0    0  0.76701333498E+02 -0.38700419369E+02 -0.27590105907E+03  0.28896749197E+03  0.00000000000E+00 0. -1.
        -13    1    3    3    0    0 -0.21081622376E+02  0.33383353656E+02  0.33063517483E+01  0.39620891778E+02  0.00000000000E+00 0.  1.
         13    1    3    3    0    0 -0.83621697626E+02 -0.67527865162E+02 -0.26126190573E+02  0.11061274213E+03  0.00000000000E+00 0. -1.
         21    1    1    2  502  501 -0.66600517375E+01  0.31122682733E+02 -0.23294295402E+02  0.39441119000E+02  0.00000000000E+00 0.  1.
<scales pt_clust_5="13000.00000" pt_clust_6="13000.00000" pt_clust_7="13000.00000" pt_clust_8="13000.00000" pt_clust_9="31.82731"></scales>
<clustering>
<clus scale="   31.827">  1  9  2 -1</clus>
<clus scale="   87.919">  5  6 -1 -1</clus>
<clus scale="   99.603">  7  8 -1 -1</clus>
<clus scale="  141.274">  2  5  1 -1</clus>
<clus scale="  141.274">  2  5  1 -1</clus>
</clustering>
</event>
<event>
 9    1  0.1612788E-005  0.1049320E+03  0.7546771E-02  0.1272138E+00
          2   -1    0    0  502    0  0.00000000000E+00  0.00000000000E+00  0.55871182260E+02  0.55871182260E+02  0.00000000000E+00 0. -1.
         -2   -1    0    0    0  501 -0.00000000000E+00 -0.00000000000E+00 -0.63339977908E+03  0.63339977908E+03  0.00000000000E+00 0.  1.
         23    2    1    2    0    0 -0.26115771116E+02 -0.20732068127E+02 -0.18590576751E+03  0.20833500842E+03  0.87924224127E+02 0.  0.
         23    2    1    2    0    0 -0.61541370902E+02  0.44924420519E+02 -0.53929786442E+02  0.13121372649E+03  0.92212126437E+02 0.  0.
        -13    1    3    3    0    0 -0.35346096041E+02 -0.46769834252E+02 -0.16023935483E+03  0.17062653586E+03  0.00000000000E+00 0.  1.
         13    1    3    3    0    0  0.92303249251E+01  0.26037766125E+02 -0.25666412677E+02  0.37708472559E+02  0.00000000000E+00 0. -1.
        -13    1    4    4    0    0 -0.75924957875E+02  0.61015442816E+02 -0.49177115708E+02  0.10911403301E+03  0.00000000000E+00 0. -1.
         13    1    4    4    0    0  0.14383586973E+02 -0.16091022296E+02 -0.47526707343E+01  0.22099693479E+02  0.00000000000E+00 0.  1.
         21    1    1    2  502  501  0.87657142018E+02 -0.24192352392E+02 -0.33769304287E+03  0.34972222643E+03  0.00000000000E+00 0.  1.
<scales pt_clust_5="13000.00000" pt_clust_6="13000.00000" pt_clust_7="13000.00000" pt_clust_8="13000.00000" pt_clust_9="90.93429"></scales>
<clustering>
<clus scale="   87.924">  5  6 -1 -1</clus>
<clus scale="   90.934">  2  9  1 -1</clus>
<clus scale="   92.212">  7  8 -1 -1</clus>
<clus scale="  101.185">  2  5  1 -1</clus>
<clus scale="  104.932">  1  5  2 -1</clus>
</clustering>
</event>
<event>
 9    1  0.1612788E-005  0.1247920E+03  0.7546771E-02  0.1236175E+00
         -1   -1    0    0    0  501 -0.00000000000E+00  0.00000000000E+00  0.59372023230E+03  0.59372023230E+03  0.00000000000E+00 0.  1.
          1   -1    0    0  502    0  0.00000000000E+00 -0.00000000000E+00 -0.34259518893E+02  0.34259518893E+02  0.00000000000E+00 0. -1.
         23    2    1    2    0    0  0.54412940678E+02 -0.74317451608E+02  0.23313113924E+03  0.26661067570E+03  0.90814495457E+02 0.  0.
         23    2    1    2    0    0 -0.34833055555E+02  0.66394490898E+02  0.19893712001E+03  0.23223742723E+03  0.93470180847E+02 0.  0.
        -11    1    3    3    0    0 -0.22713287812E+02 -0.26672872593E+02  0.39432488419E+02  0.52747101518E+02  0.00000000000E+00 0.  1.
         11    1    3    3    0    0  0.77126228490E+02 -0.47644579015E+02  0.19369865082E+03  0.21386357418E+03  0.00000000000E+00 0. -1.
        -13    1    4    4    0    0  0.87448441917E+01  0.59069025826E+02  0.16799568699E+03  0.17829238054E+03  0.00000000000E+00 0.  1.
         13    1    4    4    0    0 -0.43577899746E+02  0.73254650718E+01  0.30941433019E+02  0.53945046687E+02  0.00000000000E+00 0. -1.
         21    1    1    2  502  501 -0.19579885123E+02  0.79229607103E+01  0.12739245416E+03  0.12913164827E+03  0.00000000000E+00 0.  1.
<scales pt_clust_5="13000.00000" pt_clust_6="13000.00000" pt_clust_7="13000.00000" pt_clust_8="13000.00000" pt_clust_9="21.12215"></scales>
<clustering>
<clus scale="   21.122">  1  9  2 -1</clus>
<clus scale="   90.814">  5  6 -1 -1</clus>
<clus scale="   93.470">  7  8 -1 -1</clus>
<clus scale="  122.815">  1  5  2 -1</clus>
<clus scale="  124.792">  2  5  1 -1</clus>
</clustering>
</event>
<event>
 9    1  0.1612788E-005  0.9482615E+02  0.7546771E-02  0.1292535E+00
          1   -1    0    0  502    0  0.00000000000E+00  0.00000000000E+00  0.10384971065E+03  0.10384971065E+03  0.00000000000E+00 0. -1.
         -1   -1    0    0    0  501 -0.00000000000E+00 -0.00000000000E+00 -0.22755872310E+03  0.22755872310E+03  0.00000000000E+00 0.  1.
         23    2    1    2    0    0 -0.51879663376E+02  0.50008022569E+02 -0.82918245109E+02  0.14316353765E+03  0.91804473453E+02 0.  0.
         23    2    1    2    0    0  0.14119248532E+02  0.10989009675E+02  0.20289218107E+02  0.94025728760E+02  0.90050395805E+02 0.  0.
        -11    1    4    4    0    0  0.41961436591E+02  0.73748020082E+01 -0.18246223407E+02  0.46347324994E+02  0.00000000000E+00 0.  1.
         11    1    4    4    0    0 -0.27842188060E+02  0.36142076670E+01  0.38535441514E+02  0.47678403766E+02  0.00000000000E+00 0. -1.
        -11    1    3    3    0    0 -0.71233252773E+02  0.56958626739E+02 -0.81889661139E+02  0.12257396976E+03  0.00000000000E+00 0. -1.
         11    1    3    3    0    0  0.19353589397E+02 -0.69506041690E+01 -0.10285839699E+01  0.20589567888E+02  0.00000000000E+00 0.  1.
         21    1    1    2  502  501  0.37760414845E+02 -0.60997032245E+02 -0.61079985450E+02  0.94219167341E+02  0.00000000000E+00 0.  1.
<scales pt_clust_5="13000.00000" pt_clust_6="13000.00000" pt_clust_7="13000.00000" pt_clust_8="13000.00000" pt_clust_9="71.73902"></scales>
<clustering>
<clus scale="   71.739">  2  9  1 -1</clus>
<clus scale="   90.050">  5  6 -1 -1</clus>
<clus scale="   91.804">  7  8 -1 -1</clus>
<clus scale="   93.129">  1  5  2 -1</clus>
<clus scale="   93.129">  1  5  2 -1</clus>
</clustering>
</event>
<event>
 9    1  0.1612788E-005  0.1558292E+03  0.7546771E-02  0.1193822E+00
          3   -1    0    0  502    0  0.00000000000E+00  0.00000000000E+00  0.47366031027E+03  0.47366031027E+03  0.00000000000E+00 0. -1.
         -3   -1    0    0    0  501 -0.00000000000E+00 -0.00000000000E+00 -0.12585410488E+03  0.12585410488E+03  0.00000000000E+00 0.  1.
         23    2    1    2    0    0  0.20863545355E+02 -0.12521407108E+03 -0.29089151946E+02  0.15864540413E+03  0.90599858558E+02 0.  0.
         23    2    1    2    0    0  0.36076043270E+02  0.13163159720E+03  0.32542520894E+03  0.36384643271E+03  0.88624498304E+02 0.  0.
        -11    1    4    4    0    0  0.30827129916E+02  0.32781197746E+02  0.34980248004E+02  0.56995935073E+02  0.00000000000E+00 0.  1.
         11    1    4    4    0    0  0.52489133544E+01  0.98850399452E+02  0.29044496094E+03  0.30685049764E+03  0.00000000000E+00 0. -1.
        -11    1    3    3    0    0 -0.66043398529E+01 -0.53557961598E+02  0.30045482973E+02  0.61764096387E+02  0.00000000000E+00 0. -1.
         11    1    3    3    0    0  0.27467885208E+02 -0.71656109481E+02 -0.59134634919E+02  0.96881307747E+02  0.00000000000E+00 0.  1.
         21    1    1    2  502  501 -0.56939588625E+02 -0.64175261184E+01  0.51470148386E+02  0.77022578308E+02  0.00000000000E+00 0.  1.
<scales pt_clust_5="13000.00000" pt_clust_6="13000.00000" pt_clust_7="13000.00000" pt_clust_8="13000.00000" pt_clust_9="57.30010"></scales>
<clustering>
<clus scale="   57.300">  1  9  2 -1</clus>
<clus scale="   88.624">  5  6 -1 -1</clus>
<clus scale="   90.600">  7  8 -1 -1</clus>
<clus scale="  154.689">  1  5  2 -1</clus>
<clus scale="   57.300">  1  5  2 -1</clus>
</clustering>
</event>
<event>
 9    1  0.1612788E-005  0.2245434E+03  0.7546771E-02  0.1131277E+00
          2   -1    0    0  502    0  0.00000000000E+00  0.00000000000E+00  0.13800141381E+03  0.13800141381E+03  0.00000000000E+00 0. -1.
         -2   -1    0    0    0  501 -0.00000000000E+00 -0.00000000000E+00 -0.45185784385E+03  0.45185784385E+03  0.00000000000E+00 0.  1.
         23    2    1    2    0    0  0.12798290946E+03 -0.13788015382E+03 -0.15197630868E+03  0.26171883757E+03  0.10004693702E+03 0.  0.
         23    2    1    2    0    0 -0.13112975770E+03  0.16599402006E+03 -0.83533744204E+02  0.24484307954E+03  0.90670938711E+02 0.  0.
        -11    1    3    3    0    0  0.12591603911E+01 -0.33190335262E+02 -0.71207427399E+02  0.78572778724E+02  0.00000000000E+00 0.  1.
         11    1    3    3    0    0  0.12672374907E+03 -0.10468981856E+03 -0.80768881281E+02  0.18314605884E+03  0.00000000000E+00 0. -1.
        -13    1    4    4    0    0 -0.76172725487E+02  0.15023619993E+03 -0.40387098523E+02  0.17321754416E+03  0.00000000000E+00 0.  1.
         13    1    4    4    0    0 -0.54957032211E+02  0.15757820131E+02 -0.43146645680E+02  0.71625535378E+02  0.00000000000E+00 0. -1.
         21    1    1    2  502  501  0.31468482415E+01 -0.28113866244E+02 -0.78346377162E+02  0.83297340554E+02  0.00000000000E+00 0.  1.
<scales pt_clust_5="13000.00000" pt_clust_6="13000.00000" pt_clust_7="13000.00000" pt_clust_8="13000.00000" pt_clust_9="28.28943"></scales>
<clustering>
<clus scale="   28.289">  2  9  1 -1</clus>
<clus scale="   90.671">  7  8 -1 -1</clus>
<clus scale="  100.047">  5  6 -1 -1</clus>
<clus scale="  220.526">  1  7  2 -1</clus>
<clus scale="  220.526">  1  5  2 -1</clus>
</clustering>
</event>
<event>
 9    1  0.1612788E-005  0.1711287E+03  0.7546771E-02  0.1176842E+00
          2   -1    0    0  502    0  0.00000000000E+00  0.00000000000E+00  0.31784100195E+03  0.31784100195E+03  0.00000000000E+00 0. -1.
         -2   -1    0    0    0  501 -0.00000000000E+00 -0.00000000000E+00 -0.12702156211E+03  0.12702156211E+03  0.00000000000E+00 0.  1.
         23    2    1    2    0    0 -0.10600036292E+03  0.11644297050E+03  0.38425545640E+02  0.18568047447E+03  0.90585173858E+02 0.  0.
         23    2    1    2    0    0  0.11288806140E+03 -0.80981096340E+02  0.14802241126E+03  0.22279397653E+03  0.91787087186E+02 0.  0.
        -11    1    3    3    0    0 -0.78608816971E+02  0.12194206585E+03  0.93907053574E+01  0.14538706571E+03  0.00000000000E+00 0.  1.
         11    1    3    3    0    0 -0.27391545950E+02 -0.54990953471E+01  0.29034840283E+02  0.40293408759E+02  0.00000000000E+00 0. -1.
        -13    1    4    4    0    0  0.10074330370E+02  0.17317643131E+02  0.41188124550E+01  0.20453789675E+02  0.00000000000E+00 0.  1.
         13    1    4    4    0    0  0.10281373103E+03 -0.98298739470E+02  0.14390359880E+03  0.20234018686E+03  0.00000000000E+00 0. -1.
         21    1    1    2  502  501 -0.68876984769E+01 -0.35461874160E+02  0.43714829413E+01  0.36388113064E+02  0.00000000000E+00 0.  1.
<scales pt_clust_5="13000.00000" pt_clust_6="13000.00000" pt_clust_7="13000.00000" pt_clust_8="13000.00000" pt_clust_9="36.12457"></scales>
<clustering>
<clus scale="   36.125">  2  9  1 -1</clus>
<clus scale="   90.585">  5  6 -1 -1</clus>
<clus scale="   91.787">  7  8 -1 -1</clus>
<clus scale="  170.487">  2  5  1 -1</clus>
<clus scale="  171.129">  1  5  2 -1</clus>
</clustering>
</event>
<event>
 9    1  0.1612788E-005  0.1636162E+03  0.7546771E-02  0.1203348E+00
          1   -1    0    0  502    0  0.00000000000E+00  0.00000000000E+00  0.71262244810E+02  0.71262244810E+02  0.00000000000E+00 0. -1.
         -1   -1    0    0    0  501 -0.00000000000E+00 -0.00000000000E+00 -0.65835128936E+03  0.65835128936E+03  0.00000000000E+00 0.  1.
         23    2    1    2    0    0 -0.64832949637E+02 -0.16245952583E+03 -0.24250386654E+03  0.31193896167E+03  0.88889716089E+02 0.  0.
         23    2    1    2    0    0  0.81944716792E+00  0.59061510721E+02 -0.11700921954E+03  0.15964415782E+03  0.91138170532E+02 0.  0.
        -11    1    3    3    0    0 -0.43178333845E+02 -0.19727559351E+02 -0.91178220586E+02  0.10279597765E+03  0.00000000000E+00 0.  1.
         11    1    3    3    0    0 -0.21654615792E+02 -0.14273196648E+03 -0.15132564596E+03  0.20914298402E+03  0.00000000000E+00 0. -1.
        -13    1    4    4    0    0 -0.26284841041E+02 -0.12364929091E+02 -0.16535268950E+02  0.33424533792E+02  0.00000000000E+00 0.  1.
         13    1    4    4    0    0  0.27104288209E+02  0.71426439812E+02 -0.10047395059E+03  0.12621962403E+03  0.00000000000E+00 0. -1.
         21    1    1    2  502  501  0.64013502469E+02  0.10339801511E+03 -0.22757595847E+03  0.25803041468E+03  0.00000000000E+00 0.  1.
<scales pt_clust_5="13000.00000" pt_clust_6="13000.00000" pt_clust_7="13000.00000" pt_clust_8="13000.00000" pt_clust_9="137.36409"></scales>
<clustering>
<clus scale="   88.890">  5  6 -1 -1</clus>
<clus scale="   91.138">  7  8 -1 -1</clus>
<clus scale="  108.605">  1  7  2 -1</clus>
<clus scale="  137.364">  2  9  1 -1</clus>
<clus scale="  108.605">  1  5  2 -1</clus>
</clustering>
</event>
<event>
 9    1  0.1612788E-005  0.9564757E+02  0.7546771E-02  0.1290157E+00
         -2   -1    0    0    0  501 -0.00000000000E+00  0.00000000000E+00  0.12541369440E+03  0.12541369440E+03  0.00000000000E+00 0.  1.
          2   -1    0    0  502    0  0.00000000000E+00 -0.00000000000E+00 -0.13574948756E+03  0.13574948756E+03  0.00000000000E+00 0. -1.
         23    2    1    2    0    0 -0.23407724170E+02  0.24565715862E+02  0.54251082923E+02  0.11121549664E+03  0.90963238438E+02 0.  0.
         23    2    1    2    0    0  0.27856330774E+02  0.40129154505E+01 -0.72118306498E+02  0.12006038513E+03  0.91768007996E+02 0.  0.
        -11    1    3    3    0    0 -0.24973986104E+02 -0.30212177429E+02  0.91727349531E+01  0.40256859210E+02  0.00000000000E+00 0. -1.
         11    1    3    3    0    0  0.15662619346E+01  0.54777893290E+02  0.45078347970E+02  0.70958637427E+02  0.00000000000E+00 0.  1.
        -13    1    4    4    0    0 -0.21358149436E+02 -0.16011515321E+02 -0.59845894332E+02  0.65529155637E+02  0.00000000000E+00 0. -1.
         13    1    4    4    0    0  0.49214480209E+02  0.20024430771E+02 -0.12272412167E+02  0.54531229496E+02  0.00000000000E+00 0.  1.
         21    1    1    2  502  501 -0.44486066043E+01 -0.28578631312E+02  0.75314304156E+01  0.29887300187E+02  0.00000000000E+00 0. -1.
<scales pt_clust_5="13000.00000" pt_clust_6="13000.00000" pt_clust_7="13000.00000" pt_clust_8="13000.00000" pt_clust_9="28.92280"></scales>
<clustering>
<clus scale="   28.923">  1  9  2 -1</clus>
<clus scale="   90.963">  5  6 -1 -1</clus>
<clus scale="   91.768">  7  8 -1 -1</clus>
<clus scale="   94.876">  1  5  2 -1</clus>
<clus scale="   95.648">  2  5  1 -1</clus>
</clustering>
</event>
<event>
 9    1  0.1612788E-005  0.9466746E+02  0.7546771E-02  0.1292464E+00
          2   -1    0    0  502    0  0.00000000000E+00  0.00000000000E+00  0.34210241053E+03  0.34210241053E+03  0.00000000000E+00 0.  1.
         -2   -1    0    0    0  501 -0.00000000000E+00 -0.00000000000E+00 -0.58361954969E+02  0.58361954969E+02  0.00000000000E+00 0. -1.
         23    2    1    2    0    0 -0.30890534190E+02 -0.47070348528E+01  0.21305028885E+02  0.10098990745E+03  0.93641208191E+02 0.  0.
         23    2    1    2    0    0 -0.42758518845E+01 -0.18110292597E+02  0.22173490117E+03  0.24104640042E+03  0.92686218784E+02 0.  0.
        -13    1    4    4    0    0  0.24298439366E+02  0.29678130004E+02  0.78491903543E+02  0.87362374498E+02  0.00000000000E+00 0. -1.
         13    1    4    4    0    0 -0.28574291250E+02 -0.47788422601E+02  0.14324299762E+03  0.15368402592E+03  0.00000000000E+00 0.  1.
        -13    1    3    3    0    0 -0.51655686804E+02 -0.24145355288E+02  0.37512086335E+02  0.68252947060E+02  0.00000000000E+00 0.  1.
         13    1    3    3    0    0  0.20765152614E+02  0.19438320435E+02 -0.16207057450E+02  0.32736960391E+02  0.00000000000E+00 0. -1.
         21    1    1    2  502  501  0.35166386075E+02  0.22817327450E+02  0.40700525512E+02  0.58428057631E+02  0.00000000000E+00 0.  1.
<scales pt_clust_5="13000.00000" pt_clust_6="13000.00000" pt_clust_7="13000.00000" pt_clust_8="13000.00000" pt_clust_9="41.92022"></scales>
<clustering>
<clus scale="   41.920">  2  9  1 -1</clus>
<clus scale="   92.686">  5  6 -1 -1</clus>
<clus scale="   93.641">  7  8 -1 -1</clus>
<clus scale="   93.723">  1  5  2 -1</clus>
<clus scale="   93.723">  1  5  2 -1</clus>
</clustering>
</event>
<event>
 9    1  0.1612788E-005  0.1018318E+03  0.7546771E-02  0.1276708E+00
         -2   -1    0    0    0  501 -0.00000000000E+00  0.00000000000E+00  0.53876156435E+03  0.53876156435E+03  0.00000000000E+00 0.  1.
          2   -1    0    0  502    0  0.00000000000E+00 -0.00000000000E+00 -0.23945166788E+02  0.23945166788E+02  0.00000000000E+00 0. -1.
         23    2    1    2    0    0 -0.30132962467E+02 -0.27895802963E+02  0.26167793342E+03  0.28071899054E+03  0.92960419320E+02 0.  0.
         23    2    1    2    0    0  0.41235960727E+02  0.10042441346E+02  0.19869899488E+03  0.22362958003E+03  0.93421857255E+02 0.  0.
        -11    1    4    4    0    0  0.15285622603E+02 -0.30588544453E+02  0.22450971318E+02  0.40906667222E+02  0.00000000000E+00 0. -1.
         11    1    4    4    0    0  0.25950338124E+02  0.40630985798E+02  0.17624802356E+03  0.18272291281E+03  0.00000000000E+00 0.  1.
        -13    1    3    3    0    0 -0.42978177932E+02  0.14076186619E+02  0.19979662709E+03  0.20485105566E+03  0.00000000000E+00 0.  1.
         13    1    3    3    0    0  0.12845215465E+02 -0.41971989582E+02  0.61881306330E+02  0.75867934880E+02  0.00000000000E+00 0. -1.
         21    1    1    2  502  501 -0.11102998259E+02  0.17853361618E+02  0.54439469265E+02  0.58358160571E+02  0.00000000000E+00 0. -1.
<scales pt_clust_5="13000.00000" pt_clust_6="13000.00000" pt_clust_7="13000.00000" pt_clust_8="13000.00000" pt_clust_9="21.02425"></scales>
<clustering>
<clus scale="   21.024">  1  9  2 -1</clus>
<clus scale="   92.960">  7  8 -1 -1</clus>
<clus scale="   93.422">  5  6 -1 -1</clus>
<clus scale="  101.409">  1  7  2 -1</clus>
<clus scale="  101.832">  2  5  1 -1</clus>
</clustering>
</event>
<event>
 9    1  0.1612788E-005  0.9898332E+02  0.7546771E-02  0.1283651E+00
          1   -1    0    0  502    0  0.00000000000E+00  0.00000000000E+00  0.37013303280E+03  0.37013303280E+03  0.00000000000E+00 0. -1.
         -1   -1    0    0    0  501 -0.00000000000E+00 -0.00000000000E+00 -0.35496825340E+02  0.35496825340E+02  0.00000000000E+00 0.  1.
         23    2    1    2    0    0  0.23862341113E+02 -0.10628329147E+02  0.11498388875E+03  0.14789417452E+03  0.89269364744E+02 0.  0.
         23    2    1    2    0    0 -0.32699071466E+02  0.33087606524E+02  0.20543804722E+03  0.22972582004E+03  0.91679562430E+02 0.  0.
        -13    1    3    3    0    0 -0.19116617575E+02 -0.19714926088E+02  0.96331471188E+02  0.10016923539E+03  0.00000000000E+00 0. -1.
         13    1    3    3    0    0  0.42978958688E+02  0.90865969416E+01  0.18652417562E+02  0.47724939128E+02  0.00000000000E+00 0.  1.
        -13    1    4    4    0    0  0.26330421927E+02  0.18048365406E+02  0.12389901597E+03  0.12794530383E+03  0.00000000000E+00 0.  1.
         13    1    4    4    0    0 -0.59029493393E+02  0.15039241118E+02  0.81539031248E+02  0.10178051621E+03  0.00000000000E+00 0. -1.
         21    1    1    2  502  501  0.88367303535E+01 -0.22459277377E+02  0.14214271489E+02  0.28009863577E+02  0.00000000000E+00 0.  1.
<scales pt_clust_5="13000.00000" pt_clust_6="13000.00000" pt_clust_7="13000.00000" pt_clust_8="13000.00000" pt_clust_9="24.13518"></scales>
<clustering>
<clus scale="   24.135">  2  9  1 -1</clus>
<clus scale="   89.269">  5  6 -1 -1</clus>
<clus scale="   91.680">  7  8 -1 -1</clus>
<clus scale="   96.755">  2  5  1 -1</clus>
<clus scale="   98.983">  1  5  2 -1</clus>
</clustering>
</event>
<event>
 9    1  0.1612788E-005  0.1801343E+03  0.7546771E-02  0.1168254E+00
          1   -1    0    0  502    0  0.00000000000E+00  0.00000000000E+00  0.65151266906E+03  0.65151266906E+03  0.00000000000E+00 0. -1.
         -1   -1    0    0    0  501 -0.00000000000E+00 -0.00000000000E+00 -0.10338122552E+03  0.10338122552E+03  0.00000000000E+00 0.  1.
         23    2    1    2    0    0  0.95157330447E+01  0.13376406911E+03  0.12467388280E+03  0.20520900640E+03  0.92648712316E+02 0.  0.
         23    2    1    2    0    0  0.65215477392E+01 -0.15977911236E+03  0.46319276048E+03  0.49955642372E+03  0.97145209791E+02 0.  0.
        -11    1    4    4    0    0  0.50966561113E+02 -0.90935112873E+02  0.28361296356E+03  0.30216402533E+03  0.00000000000E+00 0. -1.
         11    1    4    4    0    0 -0.44445013374E+02 -0.68843999492E+02  0.17957979693E+03  0.19739239840E+03  0.00000000000E+00 0.  1.
        -11    1    3    3    0    0  0.44701044431E+02  0.31296361862E+02  0.44931721155E+02  0.70685961866E+02  0.00000000000E+00 0.  1.
         11    1    3    3    0    0 -0.35185311386E+02  0.10246770725E+03  0.79742161648E+02  0.13452304454E+03  0.00000000000E+00 0. -1.
         21    1    1    2  502  501 -0.16037280784E+02  0.26015043252E+02 -0.39735199748E+02  0.50128464462E+02  0.00000000000E+00 0.  1.
<scales pt_clust_5="13000.00000" pt_clust_6="13000.00000" pt_clust_7="13000.00000" pt_clust_8="13000.00000" pt_clust_9="30.56103"></scales>
<clustering>
<clus scale="   30.561">  2  9  1 -1</clus>
<clus scale="   92.649">  7  8 -1 -1</clus>
<clus scale="   97.145">  5  6 -1 -1</clus>
<clus scale="  177.750">  2  7  1 -1</clus>
<clus scale="  180.134">  1  5  2 -1</clus>
</clustering>
</event>
<event>
 9    1  0.1612788E-005  0.1604194E+03  0.7546771E-02  0.1189151E+00
         -2   -1    0    0    0  501 -0.00000000000E+00  0.00000000000E+00  0.11410511143E+03  0.11410511143E+03  0.00000000000E+00 0.  1.
          2   -1    0    0  502    0  0.00000000000E+00 -0.00000000000E+00 -0.30868649521E+03  0.30868649521E+03  0.00000000000E+00 0. -1.
         23    2    1    2    0    0  0.38966848491E+02  0.13648236877E+03 -0.12401402732E+03  0.20985513936E+03  0.92270516842E+02 0.  0.
         23    2    1    2    0    0 -0.21872103519E+02 -0.11942340860E+03 -0.96445597928E+02  0.17753983171E+03  0.86477159130E+02 0.  0.
        -11    1    3    3    0    0  0.19731747636E+02  0.14409269036E+03 -0.93186108052E+02  0.17273012480E+03  0.00000000000E+00 0. -1.
         11    1    3    3    0    0  0.19235100855E+02 -0.76103215929E+01 -0.30827919264E+02  0.37125014557E+02  0.00000000000E+00 0.  1.
        -13    1    4    4    0    0 -0.20633762185E+02 -0.12020319142E+01  0.55444874617E+01  0.21399494477E+02  0.00000000000E+00 0.  1.
         13    1    4    4    0    0 -0.12383413340E+01 -0.11822137669E+03 -0.10199008539E+03  0.15614033724E+03  0.00000000000E+00 0. -1.
         21    1    1    2  502  501 -0.17094744972E+02 -0.17058960170E+02  0.25878241470E+02  0.35396635565E+02  0.00000000000E+00 0. -1.
<scales pt_clust_5="13000.00000" pt_clust_6="13000.00000" pt_clust_7="13000.00000" pt_clust_8="13000.00000" pt_clust_9="24.15033"></scales>
<clustering>
<clus scale="   24.150">  1  9  2 -1</clus>
<clus scale="   86.477">  7  8 -1 -1</clus>
<clus scale="   92.271">  5  6 -1 -1</clus>
<clus scale="  157.159">  2  7  1 -1</clus>
<clus scale="  157.159">  2  5  1 -1</clus>
</clustering>
</event>
<event>
 9    1  0.1612788E-005  0.3429904E+03  0.7546771E-02  0.1101878E+00
         -1   -1    0    0    0  501 -0.00000000000E+00  0.00000000000E+00  0.75187482718E+03  0.75187482718E+03  0.00000000000E+00 0.  1.
          1   -1    0    0  502    0  0.00000000000E+00 -0.00000000000E+00 -0.73194759024E+03  0.73194759024E+03  0.00000000000E+00 0. -1.
         23    2    1    2    0    0 -0.24864118036E+03  0.25071217196E+03  0.28617436078E+03  0.46347101780E+03  0.90722598266E+02 0.  0.
         23    2    1    2    0    0  0.87047984561E+02  0.23248448105E+02 -0.56758148580E+03  0.58220852341E+03  0.93274754107E+02 0.  0.
        -11    1    4    4    0    0  0.41332524831E+02 -0.34784888313E+02 -0.28851445062E+03  0.29352845566E+03  0.00000000000E+00 0. -1.
         11    1    4    4    0    0  0.45715459730E+02  0.58033336418E+02 -0.27906703518E+03  0.28868006775E+03  0.00000000000E+00 0.  1.
        -13    1    3    3    0    0 -0.68846861010E+02  0.98455336255E+02  0.14694354912E+03  0.18980450504E+03  0.00000000000E+00 0.  1.
         13    1    3    3    0    0 -0.17979431935E+03  0.15225683571E+03  0.13923081166E+03  0.27366651276E+03  0.00000000000E+00 0. -1.
         21    1    1    2  502  501  0.16159319580E+03 -0.27396062007E+03  0.30133436196E+03  0.43814287621E+03  0.00000000000E+00 0. -1.
<scales pt_clust_5="13000.00000" pt_clust_6="13000.00000" pt_clust_7="13000.00000" pt_clust_8="13000.00000" pt_clust_9="330.77455"></scales>
<clustering>
<clus scale="   90.723">  7  8 -1 -1</clus>
<clus scale="   93.275">  5  6 -1 -1</clus>
<clus scale="  129.684">  2  5  1 -1</clus>
<clus scale="  330.775">  1  9  2 -1</clus>
<clus scale="  129.684">  2  5  1 -1</clus>
</clustering>
</event>
<event>
 9    1  0.1612788E-005  0.1403339E+03  0.7546771E-02  0.1213919E+00
         -2   -1    0    0    0  501 -0.00000000000E+00  0.00000000000E+00  0.17513258795E+03  0.17513258795E+03  0.00000000000E+00 0.  1.
          2   -1    0    0  502    0  0.00000000000E+00 -0.00000000000E+00 -0.18211582458E+03  0.18211582458E+03  0.00000000000E+00 0. -1.
         23    2    1    2    0    0  0.10969783184E+03  0.62031399297E+02  0.44475123255E+01  0.15540545847E+03  0.90827128915E+02 0.  0.
         23    2    1    2    0    0 -0.87498108339E+02 -0.42477298724E+02 -0.61510417846E+02  0.14367798343E+03  0.86020878566E+02 0.  0.
        -13    1    3    3    0    0  0.58841023332E+00  0.44536442326E+02  0.56393268594E+01  0.44895912164E+02  0.00000000000E+00 0. -1.
         13    1    3    3    0    0  0.10910942160E+03  0.17494956971E+02 -0.11918145339E+01  0.11050954630E+03  0.00000000000E+00 0.  1.
        -13    1    4    4    0    0 -0.85225155398E+02 -0.22018811427E+02 -0.77761217125E+02  0.11745195638E+03  0.00000000000E+00 0. -1.
         13    1    4    4    0    0 -0.22729529419E+01 -0.20458487298E+02  0.16250799278E+02  0.26226027049E+02  0.00000000000E+00 0.  1.
         21    1    1    2  502  501 -0.22199723499E+02 -0.19554100573E+02  0.50079668891E+02  0.58164970635E+02  0.00000000000E+00 0. -1.
<scales pt_clust_5="13000.00000" pt_clust_6="13000.00000" pt_clust_7="13000.00000" pt_clust_8="13000.00000" pt_clust_9="29.58362"></scales>
<clustering>
<clus scale="   29.584">  1  9  2 -1</clus>
<clus scale="   86.021">  7  8 -1 -1</clus>
<clus scale="   90.827">  5  6 -1 -1</clus>
<clus scale="  137.272">  2  7  1 -1</clus>
<clus scale="  137.272">  2  5  1 -1</clus>
</clustering>
</event>
<event>
 9    1  0.1612788E-005  0.1035181E+03  0.7546771E-02  0.1275337E+00
          2   -1    0    0  502    0  0.00000000000E+00  0.00000000000E+00  0.30689490809E+03  0.30689490809E+03  0.00000000000E+00 0. -1.
         -2   -1    0    0    0  501 -0.00000000000E+00 -0.00000000000E+00 -0.44380226179E+02  0.44380226179E+02  0.00000000000E+00 0.  1.
         23    2    1    2    0    0  0.46591415059E+02  0.17481978752E+02  0.95557837255E+02  0.13953759226E+03  0.88673896127E+02 0.  0.
         23    2    1    2    0    0 -0.42316857380E+02  0.67931764833E+01  0.14960355319E+03  0.18159302792E+03  0.93583871458E+02 0.  0.
        -11    1    4    4    0    0 -0.38905707252E+02 -0.19269451159E+02  0.17352948138E+02  0.46755647935E+02  0.00000000000E+00 0.  1.
         11    1    4    4    0    0 -0.34111501283E+01  0.26062627642E+02  0.13225060505E+03  0.13483737999E+03  0.00000000000E+00 0. -1.
        -13    1    3    3    0    0  0.89250902584E+01  0.44770684721E+02  0.76884745222E+02  0.89416639919E+02  0.00000000000E+00 0. -1.
         13    1    3    3    0    0  0.37666324801E+02 -0.27288705969E+02  0.18673092033E+02  0.50120952341E+02  0.00000000000E+00 0.  1.
         21    1    1    2  502  501 -0.42745576789E+01 -0.24275155235E+02  0.17353291471E+02  0.30144514093E+02  0.00000000000E+00 0.  1.
<scales pt_clust_5="13000.00000" pt_clust_6="13000.00000" pt_clust_7="13000.00000" pt_clust_8="13000.00000" pt_clust_9="24.64863"></scales>
<clustering>
<clus scale="   24.649">  2  9  1 -1</clus>
<clus scale="   88.674">  7  8 -1 -1</clus>
<clus scale="   93.584">  5  6 -1 -1</clus>
<clus scale="   99.102">  2  7  1 -1</clus>
<clus scale="  103.518">  1  5  2 -1</clus>
</clustering>
</event>
<event>
 9    1  0.1612788E-005  0.9749719E+02  0.7546771E-02  0.1286683E+00
         -1   -1    0    0    0  501 -0.00000000000E+00  0.00000000000E+00  0.41954551994E+02  0.41954551994E+02  0.00000000000E+00 0.  1.
          1   -1    0    0  502    0  0.00000000000E+00 -0.00000000000E+00 -0.54097908143E+03  0.54097908143E+03  0.00000000000E+00 0. -1.
         23    2    1    2    0    0 -0.65738198707E+02 -0.38262719064E+02 -0.10572696388E+03  0.15912491171E+03  0.91416629764E+02 0.  0.
         23    2    1    2    0    0  0.24893727982E+02 -0.29739568884E+01 -0.29894038508E+03  0.31302960932E+03  0.89407160631E+02 0.  0.
        -11    1    3    3    0    0 -0.40048120594E+02 -0.66203068092E+02 -0.88168169312E+02  0.11730440856E+03  0.00000000000E+00 0.  1.
         11    1    3    3    0    0 -0.25690078113E+02  0.27940349028E+02 -0.17558794564E+02  0.41820503151E+02  0.00000000000E+00 0. -1.
        -11    1    4    4    0    0 -0.32507207902E+02 -0.11528130798E+02 -0.98951934402E+02  0.10479075192E+03  0.00000000000E+00 0.  1.
         11    1    4    4    0    0  0.57400935885E+02  0.85541739101E+01 -0.19998845067E+03  0.20823885741E+03  0.00000000000E+00 0. -1.
         21    1    1    2  502  501  0.40844470725E+02  0.41236675952E+02 -0.94357180480E+02  0.11077911238E+03  0.00000000000E+00 0.  1.
<scales pt_clust_5="13000.00000" pt_clust_6="13000.00000" pt_clust_7="13000.00000" pt_clust_8="13000.00000" pt_clust_9="58.04080"></scales>
<clustering>
<clus scale="   58.041">  1  9  2 -1</clus>
<clus scale="   89.407">  7  8 -1 -1</clus>
<clus scale="   91.417">  5  6 -1 -1</clus>
<clus scale="   95.616">  2  7  1 -1</clus>
<clus scale="   95.616">  2  5  1 -1</clus>
</clustering>
</event>
<event>
 9    1  0.1612788E-005  0.9579144E+02  0.7546771E-02  0.1290571E+00
         -1   -1    0    0    0  501 -0.00000000000E+00  0.00000000000E+00  0.45932056227E+02  0.45932056227E+02  0.00000000000E+00 0.  1.
          1   -1    0    0  502    0  0.00000000000E+00 -0.00000000000E+00 -0.28425063433E+03  0.28425063433E+03  0.00000000000E+00 0. -1.
         23    2    1    2    0    0 -0.13242434221E+02 -0.24986781652E+02 -0.67080863208E+02  0.11889855295E+03  0.94007033589E+02 0.  0.
         23    2    1    2    0    0 -0.68382047528E+01  0.15228007748E+02 -0.16225909264E+03  0.18722002766E+03  0.91894898381E+02 0.  0.
        -11    1    3    3    0    0 -0.39040475981E+02  0.12037706054E+02 -0.60924854946E+02  0.73354639131E+02  0.00000000000E+00 0. -1.
         11    1    3    3    0    0  0.25798041761E+02 -0.37024487706E+02 -0.61560082625E+01  0.45543913823E+02  0.00000000000E+00 0.  1.
        -13    1    4    4    0    0 -0.13876873163E+02  0.52374860914E+02 -0.79191167098E+02  0.95952772815E+02  0.00000000000E+00 0. -1.
         13    1    4    4    0    0  0.70386684103E+01 -0.37146853166E+02 -0.83067925540E+02  0.91267254843E+02  0.00000000000E+00 0.  1.
         21    1    1    2  502  501  0.20080638974E+02  0.97587739046E+01 -0.89786222537E+01  0.24064109942E+02  0.00000000000E+00 0. -1.
<scales pt_clust_5="13000.00000" pt_clust_6="13000.00000" pt_clust_7="13000.00000" pt_clust_8="13000.00000" pt_clust_9="22.32635"></scales>
<clustering>
<clus scale="   22.326">  1  9  2 -1</clus>
<clus scale="   91.895">  7  8 -1 -1</clus>
<clus scale="   93.720">  2  7  1 -1</clus>
<clus scale="   94.007">  5  6 -1 -1</clus>
<clus scale="   93.720">  2  5  1 -1</clus>
</clustering>
</event>
<event>
 9    1  0.1612788E-005  0.1036398E+03  0.7546771E-02  0.1273335E+00
         -4   -1    0    0    0  501 -0.00000000000E+00  0.00000000000E+00  0.94112307690E+02  0.94112307690E+02  0.00000000000E+00 0.  1.
          4   -1    0    0  502    0  0.00000000000E+00 -0.00000000000E+00 -0.18034536041E+03  0.18034536041E+03  0.00000000000E+00 0. -1.
         23    2    1    2    0    0  0.56734865298E+02 -0.13564673838E+02  0.29376836771E+00  0.10785746313E+03  0.90721004939E+02 0.  0.
         23    2    1    2    0    0 -0.32011186889E+02 -0.19725973952E+02 -0.72129933921E+02  0.12270489925E+03  0.91869117756E+02 0.  0.
        -11    1    3    3    0    0  0.36196040237E+02 -0.97533448439E+01  0.44965936423E+02  0.58542433353E+02  0.00000000000E+00 0.  1.
         11    1    3    3    0    0  0.20538825061E+02 -0.38113289944E+01 -0.44672168055E+02  0.49315029781E+02  0.00000000000E+00 0. -1.
        -11    1    4    4    0    0  0.28615678625E+02 -0.22818865771E+02 -0.15710067394E+02  0.39829184222E+02  0.00000000000E+00 0.  1.
         11    1    4    4    0    0 -0.60626865514E+02  0.30928918196E+01 -0.56419866527E+02  0.82875715024E+02  0.00000000000E+00 0. -1.
         21    1    1    2  502  501 -0.24723678409E+02  0.33290647790E+02 -0.14396887171E+02  0.43895305723E+02  0.00000000000E+00 0. -1.
<scales pt_clust_5="13000.00000" pt_clust_6="13000.00000" pt_clust_7="13000.00000" pt_clust_8="13000.00000" pt_clust_9="41.46719"></scales>
<clustering>
<clus scale="   41.467">  2  9  1 -1</clus>
<clus scale="   90.721">  5  6 -1 -1</clus>
<clus scale="   91.869">  7  8 -1 -1</clus>
<clus scale="  102.623">  1  5  2 -1</clus>
<clus scale="   41.467">  2  5  1 -1</clus>
</clustering>
</event>
<event>
 9    1  0.1612788E-005  0.1042620E+03  0.7546771E-02  0.1274978E+00
          2   -1    0    0  502    0  0.00000000000E+00  0.00000000000E+00  0.42551104770E+02  0.42551104770E+02  0.00000000000E+00 0. -1.
         -2   -1    0    0    0  501 -0.00000000000E+00 -0.00000000000E+00 -0.44384233591E+03  0.44384233591E+03  0.00000000000E+00 0.  1.
         23    2    1    2    0    0 -0.33891348604E+02  0.21835419036E+02 -0.24290715870E+03  0.26539766603E+03  0.99028401750E+02 0.  0.
         23    2    1    2    0    0  0.32195049419E+02  0.80740628409E+01 -0.52699701726E+02  0.11114751226E+03  0.92058672710E+02 0.  0.
        -13    1    3    3    0    0 -0.48664891138E+02 -0.19810857595E+02 -0.18640023687E+03  0.19366411648E+03  0.00000000000E+00 0.  1.
         13    1    3    3    0    0  0.14773542534E+02  0.41646276631E+02 -0.56506921831E+02  0.71733549550E+02  0.00000000000E+00 0. -1.
        -13    1    4    4    0    0 -0.20789056508E+02  0.32908718069E+02 -0.26129952599E+02  0.46882224972E+02  0.00000000000E+00 0.  1.
         13    1    4    4    0    0  0.52984105927E+02 -0.24834655228E+02 -0.26569749127E+02  0.64265287286E+02  0.00000000000E+00 0. -1.
         21    1    1    2  502  501  0.16962991849E+01 -0.29909481877E+02 -0.10568437071E+03  0.10984826239E+03  0.00000000000E+00 0. -1.
<scales pt_clust_5="13000.00000" pt_clust_6="13000.00000" pt_clust_7="13000.00000" pt_clust_8="13000.00000" pt_clust_9="29.95755"></scales>
<clustering>
<clus scale="   29.958">  2  9  1 -1</clus>
<clus scale="   92.059">  7  8 -1 -1</clus>
<clus scale="   97.666">  1  7  2 -1</clus>
<clus scale="   99.028">  5  6 -1 -1</clus>
<clus scale="   97.666">  1  5  2 -1</clus>
</clustering>
</event>
<event>
 9    1  0.1612788E-005  0.1387101E+03  0.7546771E-02  0.1215395E+00
         -1   -1    0    0    0  501 -0.00000000000E+00  0.00000000000E+00  0.61288555535E+02  0.61288555535E+02  0.00000000000E+00 0.  1.
          1   -1    0    0  502    0  0.00000000000E+00 -0.00000000000E+00 -0.66219321828E+03  0.66219321828E+03  0.00000000000E+00 0. -1.
         23    2    1    2    0    0 -0.49085265803E+02 -0.74774338190E+02 -0.22748298838E+03  0.26060767494E+03  0.90373033955E+02 0.  0.
         23    2    1    2    0    0  0.36642323283E+02  0.11176466211E+03 -0.39215947509E+03  0.41958188181E+03  0.91792712594E+02 0.  0.
        -11    1    3    3    0    0 -0.13275410522E+02 -0.62941742635E+02 -0.56821894973E+02  0.85829058243E+02  0.00000000000E+00 0. -1.
         11    1    3    3    0    0 -0.35809855281E+02 -0.11832595554E+02 -0.17066109341E+03  0.17477861670E+03  0.00000000000E+00 0.  1.
        -11    1    4    4    0    0 -0.19156141085E+02  0.83542897802E+02 -0.20291406459E+03  0.22027367324E+03  0.00000000000E+00 0.  1.
         11    1    4    4    0    0  0.55798464369E+02  0.28221764311E+02 -0.18924541050E+03  0.19930820857E+03  0.00000000000E+00 0. -1.
         21    1    1    2  502  501  0.12442942520E+02 -0.36990323923E+02  0.18737800724E+02  0.43292217066E+02  0.00000000000E+00 0. -1.
<scales pt_clust_5="13000.00000" pt_clust_6="13000.00000" pt_clust_7="13000.00000" pt_clust_8="13000.00000" pt_clust_9="39.02705"></scales>
<clustering>
<clus scale="   39.027">  1  9  2 -1</clus>
<clus scale="   90.373">  5  6 -1 -1</clus>
<clus scale="   91.793">  7  8 -1 -1</clus>
<clus scale="  137.775">  1  5  2 -1</clus>
<clus scale="  138.710">  2  5  1 -1</clus>
</clustering>
</event>
<event>
 9    1  0.1612788E-005  0.9541379E+02  0.7546771E-02  0.1290524E+00
         -1   -1    0    0    0  501 -0.00000000000E+00  0.00000000000E+00  0.31247064459E+03  0.31247064459E+03  0.00000000000E+00 0.  1.
          1   -1    0    0  502    0  0.00000000000E+00 -0.00000000000E+00 -0.53349171784E+02  0.53349171784E+02  0.00000000000E+00 0. -1.
         23    2    1    2    0    0  0.17899587639E+02 -0.11725836038E+02  0.20571641073E+03  0.22599091139E+03  0.91075572588E+02 0.  0.
         23    2    1    2    0    0 -0.38516214570E+02  0.25747676282E+02  0.33644845799E+02  0.10801501717E+03  0.91590538086E+02 0.  0.
        -11    1    4    4    0    0 -0.58381789014E+02 -0.52876151784E+01  0.75901260071E+00  0.58625662153E+02  0.00000000000E+00 0. -1.
         11    1    4    4    0    0  0.19865574444E+02  0.31035291460E+02  0.32885833198E+02  0.49389355018E+02  0.00000000000E+00 0.  1.
        -11    1    3    3    0    0  0.31552878527E+02  0.31715641498E+02  0.13167338362E+03  0.13906597720E+03  0.00000000000E+00 0.  1.
         11    1    3    3    0    0 -0.13653290889E+02 -0.43441477536E+02  0.74043027102E+02  0.86924934196E+02  0.00000000000E+00 0. -1.
         21    1    1    2  502  501  0.20616626932E+02 -0.14021840244E+02  0.19760216277E+02  0.31813887803E+02  0.00000000000E+00 0.  1.
<scales pt_clust_5="13000.00000" pt_clust_6="13000.00000" pt_clust_7="13000.00000" pt_clust_8="13000.00000" pt_clust_9="24.93306"></scales>
<clustering>
<clus scale="   24.933">  2  9  1 -1</clus>
<clus scale="   91.076">  7  8 -1 -1</clus>
<clus scale="   91.591">  5  6 -1 -1</clus>
<clus scale="   94.920">  1  7  2 -1</clus>
<clus scale="   24.933">  2  5  1 -1</clus>
</clustering>
</event>
<event>
 9    1  0.1612788E-005  0.1226406E+03  0.7546771E-02  0.1241571E+00
         -2   -1    0    0    0  501 -0.00000000000E+00  0.00000000000E+00  0.15783436797E+03  0.15783436797E+03  0.00000000000E+00 0.  1.
          2   -1    0    0  502    0  0.00000000000E+00 -0.00000000000E+00 -0.20843485399E+03  0.20843485399E+03  0.00000000000E+00 0. -1.
         23    2    1    2    0    0 -0.12456254535E+02 -0.82172247638E+02  0.39639971261E+02  0.12977941180E+03  0.91454534319E+02 0.  0.
         23    2    1    2    0    0  0.37913846596E+02  0.72993730356E+02 -0.13867943468E+03  0.18100405789E+03  0.82249248828E+02 0.  0.
        -11    1    3    3    0    0  0.36440815714E+02 -0.48556431393E+02  0.35431918308E+02  0.70292822639E+02  0.00000000000E+00 0.  1.
         11    1    3    3    0    0 -0.48897070249E+02 -0.33615816245E+02  0.42080529532E+01  0.59486589165E+02  0.00000000000E+00 0. -1.
        -13    1    4    4    0    0 -0.25373771655E+02  0.13900899368E+02 -0.44420596171E+02  0.53011816187E+02  0.00000000000E+00 0. -1.
         13    1    4    4    0    0  0.63287618250E+02  0.59092830988E+02 -0.94258838512E+02  0.12799224170E+03  0.00000000000E+00 0.  1.
         21    1    1    2  502  501 -0.25457592060E+02  0.91785172821E+01  0.48438977398E+02  0.55485752264E+02  0.00000000000E+00 0. -1.
<scales pt_clust_5="13000.00000" pt_clust_6="13000.00000" pt_clust_7="13000.00000" pt_clust_8="13000.00000" pt_clust_9="27.06167"></scales>
<clustering>
<clus scale="   27.062">  1  9  2 -1</clus>
<clus scale="   82.249">  7  8 -1 -1</clus>
<clus scale="   91.455">  5  6 -1 -1</clus>
<clus scale="  115.938">  2  7  1 -1</clus>
<clus scale="  115.938">  2  5  1 -1</clus>
</clustering>
</event>
<event>
 9    1  0.1612788E-005  0.2541885E+03  0.7546771E-02  0.1110953E+00
         -1   -1    0    0    0  501 -0.00000000000E+00  0.00000000000E+00  0.21403002023E+03  0.21403002023E+03  0.00000000000E+00 0.  1.
          1   -1    0    0  502    0  0.00000000000E+00 -0.00000000000E+00 -0.44159456818E+03  0.44159456818E+03  0.00000000000E+00 0. -1.
         23    2    1    2    0    0  0.71933705106E+02 -0.23675177314E+03  0.15536139113E+02  0.26377516349E+03  0.90056122711E+02 0.  0.
         23    2    1    2    0    0 -0.33097998488E+02  0.22990772803E+03 -0.24720937925E+03  0.35220179682E+03  0.94765962175E+02 0.  0.
        -11    1    3    3    0    0  0.50926783166E+02 -0.17575055314E+03 -0.29158745431E+02  0.18528903531E+03  0.00000000000E+00 0. -1.
         11    1    3    3    0    0  0.21006921940E+02 -0.61001220005E+02  0.44694884544E+02  0.78486128175E+02  0.00000000000E+00 0.  1.
        -11    1    4    4    0    0  0.28931497198E+02  0.30532305803E+02 -0.41890870564E+02  0.59364115966E+02  0.00000000000E+00 0.  1.
         11    1    4    4    0    0 -0.62029495685E+02  0.19937542222E+03 -0.20531850868E+03  0.29283768086E+03  0.00000000000E+00 0. -1.
         21    1    1    2  502  501 -0.38835706619E+02  0.68440451167E+01  0.41086921839E+01  0.39647628095E+02  0.00000000000E+00 0. -1.
<scales pt_clust_5="13000.00000" pt_clust_6="13000.00000" pt_clust_7="13000.00000" pt_clust_8="13000.00000" pt_clust_9="39.43416"></scales>
<clustering>
<clus scale="   39.434">  1  9  2 -1</clus>
<clus scale="   90.056">  5  6 -1 -1</clus>
<clus scale="   94.766">  7  8 -1 -1</clus>
<clus scale="  252.470">  1  5  2 -1</clus>
<clus scale="  254.189">  2  5  1 -1</clus>
</clustering>
</event>
<event>
 9    1  0.1612788E-005  0.9646764E+02  0.7546771E-02  0.1287944E+00
         -1   -1    0    0    0  501 -0.00000000000E+00  0.00000000000E+00  0.31605037205E+03  0.31605037205E+03  0.00000000000E+00 0.  1.
          1   -1    0    0  502    0  0.00000000000E+00 -0.00000000000E+00 -0.16044655165E+03  0.16044655165E+03  0.00000000000E+00 0. -1.
         23    2    1    2    0    0  0.31556698532E+02  0.76718593691E+01  0.89665071683E+02  0.13170391675E+03  0.90837293880E+02 0.  0.
         23    2    1    2    0    0 -0.24598225268E+02  0.24355880243E+02 -0.12090666551E+03  0.15509481173E+03  0.90761761060E+02 0.  0.
        -11    1    3    3    0    0  0.42901630538E+02  0.41791084219E+02  0.48662741769E+02  0.77169340152E+02  0.00000000000E+00 0. -1.
         11    1    3    3    0    0 -0.11344932006E+02 -0.34119224850E+02  0.41002329913E+02  0.54534576600E+02  0.00000000000E+00 0.  1.
        -13    1    4    4    0    0  0.29119180565E+02 -0.10221060061E+02 -0.24316206967E+02  0.39289625435E+02  0.00000000000E+00 0.  1.
         13    1    4    4    0    0 -0.53717405833E+02  0.34576940305E+02 -0.96590458546E+02  0.11580518629E+03  0.00000000000E+00 0. -1.
         21    1    1    2  502  501 -0.69584732643E+01 -0.32027739612E+02  0.18684541422E+03  0.18969819522E+03  0.00000000000E+00 0.  1.
<scales pt_clust_5="13000.00000" pt_clust_6="13000.00000" pt_clust_7="13000.00000" pt_clust_8="13000.00000" pt_clust_9="32.77494"></scales>
<clustering>
<clus scale="   32.775">  1  9  2 -1</clus>
<clus scale="   90.762">  7  8 -1 -1</clus>
<clus scale="   90.837">  5  6 -1 -1</clus>
<clus scale="   96.397">  2  7  1 -1</clus>
<clus scale="   96.397">  2  5  1 -1</clus>
</clustering>
</event>
<event>
 9    1  0.1612788E-005  0.1032878E+03  0.7546771E-02  0.1274117E+00
          2   -1    0    0  502    0  0.00000000000E+00  0.00000000000E+00  0.28714204988E+03  0.28714204988E+03  0.00000000000E+00 0. -1.
         -2   -1    0    0    0  501 -0.00000000000E+00 -0.00000000000E+00 -0.50074529929E+02  0.50074529929E+02  0.00000000000E+00 0.  1.
         23    2    1    2    0    0  0.22541615204E+02  0.36633824011E+02  0.10291810351E+03  0.14559886561E+03  0.93577412666E+02 0.  0.
         23    2    1    2    0    0 -0.45095718910E+02 -0.18325687403E+02  0.12085820258E+03  0.15967195038E+03  0.92298276924E+02 0.  0.
        -11    1    3    3    0    0 -0.82379786850E+01  0.56777499209E+02  0.89764441649E+02  0.10653264145E+03  0.00000000000E+00 0.  1.
         11    1    3    3    0    0  0.30779593889E+02 -0.20143675198E+02  0.13153661857E+02  0.39066224167E+02  0.00000000000E+00 0. -1.
        -13    1    4    4    0    0 -0.55538500048E+02  0.17737741647E+02  0.40539569896E+02  0.71011331445E+02  0.00000000000E+00 0.  1.
         13    1    4    4    0    0  0.10442781138E+02 -0.36063429050E+02  0.80318632687E+02  0.88660618933E+02  0.00000000000E+00 0. -1.
         21    1    1    2  502  501  0.22554103706E+02 -0.18308136608E+02  0.13291213867E+02  0.31945763821E+02  0.00000000000E+00 0.  1.
<scales pt_clust_5="13000.00000" pt_clust_6="13000.00000" pt_clust_7="13000.00000" pt_clust_8="13000.00000" pt_clust_9="29.04953"></scales>
<clustering>
<clus scale="   29.050">  2  9  1 -1</clus>
<clus scale="   92.298">  7  8 -1 -1</clus>
<clus scale="   93.577">  5  6 -1 -1</clus>
<clus scale="  102.130">  1  7  2 -1</clus>
<clus scale="  102.130">  1  5  2 -1</clus>
</clustering>
</event>
<event>
 9    1  0.1612788E-005  0.1334156E+03  0.7546771E-02  0.1229015E+00
          1   -1    0    0  502    0  0.00000000000E+00  0.00000000000E+00  0.46887099483E+02  0.46887099483E+02  0.00000000000E+00 0. -1.
         -1   -1    0    0    0  501 -0.00000000000E+00 -0.00000000000E+00 -0.43667021090E+03  0.43667021090E+03  0.00000000000E+00 0.  1.
         23    2    1    2    0    0 -0.46617811391E+02  0.36618417440E+02 -0.21855492432E+03  0.25339585905E+03  0.11370610187E+03 0.  0.
         23    2    1    2    0    0  0.60258690287E+02 -0.60156283216E+02 -0.13470809125E+03  0.18462221438E+03  0.93215900079E+02 0.  0.
        -11    1    4    4    0    0  0.34186813719E+02 -0.33766848663E+02 -0.13919491161E+03  0.14725543019E+03  0.00000000000E+00 0.  1.
         11    1    4    4    0    0  0.26071876568E+02 -0.26389434552E+02  0.44868203607E+01  0.37366784190E+02  0.00000000000E+00 0. -1.
        -13    1    3    3    0    0 -0.77139795024E+02  0.15913774458E+02 -0.89730361044E+02  0.11939570297E+03  0.00000000000E+00 0.  1.
         13    1    3    3    0    0  0.30521983633E+02  0.20704642982E+02 -0.12882456328E+03  0.13400015608E+03  0.00000000000E+00 0. -1.
         21    1    1    2  502  501 -0.13640878896E+02  0.23537865776E+02 -0.36520095848E+02  0.45539236962E+02  0.00000000000E+00 0.  1.
<scales pt_clust_5="13000.00000" pt_clust_6="13000.00000" pt_clust_7="13000.00000" pt_clust_8="13000.00000" pt_clust_9="27.20487"></scales>
<clustering>
<clus scale="   27.205">  1  9  2 -1</clus>
<clus scale="   93.216">  5  6 -1 -1</clus>
<clus scale="  113.706">  7  8 -1 -1</clus>
<clus scale="  116.447">  1  5  2 -1</clus>
<clus scale="   27.205">  1  5  2 -1</clus>
</clustering>
</event>
<event>
 9    1  0.1612788E-005  0.1208639E+03  0.7546771E-02  0.1244081E+00
          2   -1    0    0  502    0  0.00000000000E+00  0.00000000000E+00  0.14183208556E+03  0.14183208556E+03  0.00000000000E+00 0. -1.
         -2   -1    0    0    0  501 -0.00000000000E+00 -0.00000000000E+00 -0.23295868994E+03  0.23295868994E+03  0.00000000000E+00 0.  1.
         23    2    1    2    0    0  0.35789026972E+02  0.74068297107E+02 -0.16090668611E+03  0.20544296728E+03  0.97718391744E+02 0.  0.
         23    2    1    2    0    0 -0.44005286564E+02 -0.54030451626E+02  0.85405943037E+02  0.14264219616E+03  0.90536545502E+02 0.  0.
        -13    1    3    3    0    0  0.66585009090E+02  0.63956803083E+02 -0.13683271822E+03  0.16506734648E+03  0.00000000000E+00 0.  1.
         13    1    3    3    0    0 -0.30795982119E+02  0.10111494024E+02 -0.24073967882E+02  0.40375620808E+02  0.00000000000E+00 0. -1.
        -13    1    4    4    0    0 -0.42542827707E+02 -0.95996765080E+01 -0.29718627886E+01  0.43713589955E+02  0.00000000000E+00 0.  1.
         13    1    4    4    0    0 -0.14624588571E+01 -0.44430775118E+02  0.88377805826E+02  0.98928606207E+02  0.00000000000E+00 0. -1.
         21    1    1    2  502  501  0.82162595924E+01 -0.20037845481E+02 -0.15625861315E+02  0.26705612051E+02  0.00000000000E+00 0. -1.
<scales pt_clust_5="13000.00000" pt_clust_6="13000.00000" pt_clust_7="13000.00000" pt_clust_8="13000.00000" pt_clust_9="21.65692"></scales>
<clustering>
<clus scale="   21.657">  2  9  1 -1</clus>
<clus scale="   90.537">  7  8 -1 -1</clus>
<clus scale="   97.718">  5  6 -1 -1</clus>
<clus scale="  115.135">  1  7  2 -1</clus>
<clus scale="  115.135">  1  5  2 -1</clus>
</clustering>
</event>
<event>
 9    1  0.1612788E-005  0.9518862E+02  0.7546771E-02  0.1291973E+00
          1   -1    0    0  502    0  0.00000000000E+00  0.00000000000E+00  0.14987372948E+03  0.14987372948E+03  0.00000000000E+00 0. -1.
         -1   -1    0    0    0  501 -0.00000000000E+00 -0.00000000000E+00 -0.11603656881E+03  0.11603656881E+03  0.00000000000E+00 0.  1.
         23    2    1    2    0    0  0.13492770903E+02 -0.48471340476E+00 -0.55694233165E+02  0.10766417118E+03  0.91145138840E+02 0.  0.
         23    2    1    2    0    0 -0.12581993373E+02  0.30411137688E+02  0.86187755039E+02  0.12811972165E+03  0.88899888094E+02 0.  0.
        -11    1    3    3    0    0  0.18890767740E+02 -0.32131041181E+02  0.63466516758E+01  0.37809322933E+02  0.00000000000E+00 0.  1.
         11    1    3    3    0    0 -0.53979968366E+01  0.31646327776E+02 -0.62040884841E+02  0.69854848246E+02  0.00000000000E+00 0. -1.
        -13    1    4    4    0    0  0.26758013201E+01 -0.30728902109E+02  0.20167145213E+02  0.36852938602E+02  0.00000000000E+00 0.  1.
         13    1    4    4    0    0 -0.15257794693E+02  0.61140039797E+02  0.66020609827E+02  0.91266783044E+02  0.00000000000E+00 0. -1.
         21    1    1    2  502  501 -0.91077753044E+00 -0.29926424283E+02  0.33436387969E+01  0.30126405469E+02  0.00000000000E+00 0.  1.
<scales pt_clust_5="13000.00000" pt_clust_6="13000.00000" pt_clust_7="13000.00000" pt_clust_8="13000.00000" pt_clust_9="29.94028"></scales>
<clustering>
<clus scale="   29.940">  2  9  1 -1</clus>
<clus scale="   88.900">  7  8 -1 -1</clus>
<clus scale="   91.145">  5  6 -1 -1</clus>
<clus scale="   93.041">  1  7  2 -1</clus>
<clus scale="   93.041">  1  5  2 -1</clus>
</clustering>
</event>
<event>
 9    1  0.1612788E-005  0.9815768E+02  0.7546771E-02  0.1287010E+00
          2   -1    0    0  502    0  0.00000000000E+00  0.00000000000E+00  0.15475795024E+03  0.15475795024E+03  0.00000000000E+00 0. -1.
         -2   -1    0    0    0  501 -0.00000000000E+00 -0.00000000000E+00 -0.22148717462E+03  0.22148717462E+03  0.00000000000E+00 0.  1.
         23    2    1    2    0    0 -0.40276914167E+02 -0.41567545579E+02 -0.13815029164E+03  0.17526954515E+03  0.91015491618E+02 0.  0.
         23    2    1    2    0    0  0.17085910514E+02 -0.58756123956E+01  0.10085626796E+03  0.14051809938E+03  0.96160794028E+02 0.  0.
        -11    1    3    3    0    0 -0.22482493775E+02 -0.51396703728E+02 -0.26968455067E+02  0.62244527865E+02  0.00000000000E+00 0.  1.
         11    1    3    3    0    0 -0.17794420393E+02  0.98291581489E+01 -0.11118183658E+03  0.11302501728E+03  0.00000000000E+00 0. -1.
        -13    1    4    4    0    0 -0.18028492219E+02  0.91145410703E+01  0.10032038232E+03  0.10233416096E+03  0.00000000000E+00 0.  1.
         13    1    4    4    0    0  0.35114402733E+02 -0.14990153466E+02  0.53588564259E+00  0.38183938425E+02  0.00000000000E+00 0. -1.
         21    1    1    2  502  501  0.23191003654E+02  0.47443157974E+02 -0.29435200689E+02  0.60457480337E+02  0.00000000000E+00 0. -1.
<scales pt_clust_5="13000.00000" pt_clust_6="13000.00000" pt_clust_7="13000.00000" pt_clust_8="13000.00000" pt_clust_9="52.80792"></scales>
<clustering>
<clus scale="   52.808">  2  9  1 -1</clus>
<clus scale="   91.015">  5  6 -1 -1</clus>
<clus scale="   93.123">  2  5  1 -1</clus>
<clus scale="   96.161">  7  8 -1 -1</clus>
<clus scale="   98.158">  1  5  2 -1</clus>
</clustering>
</event>
<event>
 9    1  0.1612788E-005  0.1109022E+03  0.7546771E-02  0.1259834E+00
         -1   -1    0    0    0  501 -0.00000000000E+00  0.00000000000E+00  0.36035084923E+02  0.36035084923E+02  0.00000000000E+00 0.  1.
          1   -1    0    0  502    0  0.00000000000E+00 -0.00000000000E+00 -0.61278822672E+03  0.61278822672E+03  0.00000000000E+00 0. -1.
         23    2    1    2    0    0 -0.54289634377E+02 -0.15345657991E+02 -0.18503709953E+03  0.21147039644E+03  0.85429191417E+02 0.  0.
         23    2    1    2    0    0  0.74005414385E+02  0.98332027962E+01 -0.39921353721E+03  0.41555127366E+03  0.87965445010E+02 0.  0.
        -13    1    3    3    0    0 -0.49370338044E+02  0.26746687066E+02 -0.13295132352E+03  0.14432210493E+03  0.00000000000E+00 0. -1.
         13    1    3    3    0    0 -0.49192963334E+01 -0.42092345057E+02 -0.52085776018E+02  0.67148291507E+02  0.00000000000E+00 0.  1.
        -13    1    4    4    0    0  0.37534511379E+02 -0.39091374672E+02 -0.17693178034E+03  0.18504548093E+03  0.00000000000E+00 0.  1.
         13    1    4    4    0    0  0.36470903006E+02  0.48924577468E+02 -0.22228175687E+03  0.23050579274E+03  0.00000000000E+00 0. -1.
         21    1    1    2  502  501 -0.19715780008E+02  0.55124551944E+01  0.74974949442E+01  0.21801641544E+02  0.00000000000E+00 0.  1.
<scales pt_clust_5="13000.00000" pt_clust_6="13000.00000" pt_clust_7="13000.00000" pt_clust_8="13000.00000" pt_clust_9="20.47191"></scales>
<clustering>
<clus scale="   20.472">  1  9  2 -1</clus>
<clus scale="   85.429">  5  6 -1 -1</clus>
<clus scale="   87.965">  7  8 -1 -1</clus>
<clus scale="  108.901">  1  5  2 -1</clus>
<clus scale="  110.902">  2  5  1 -1</clus>
</clustering>
</event>
<event>
 9    1  0.1612788E-005  0.1205471E+03  0.7546771E-02  0.1244220E+00
         -2   -1    0    0    0  501 -0.00000000000E+00  0.00000000000E+00  0.56178870273E+02  0.56178870273E+02  0.00000000000E+00 0.  1.
          2   -1    0    0  502    0  0.00000000000E+00 -0.00000000000E+00 -0.61040657834E+03  0.61040657834E+03  0.00000000000E+00 0. -1.
         23    2    1    2    0    0  0.66945119922E+02  0.10712823930E+03 -0.32110212420E+03  0.35662274099E+03  0.90083830349E+02 0.  0.
         23    2    1    2    0    0 -0.52600655496E+02 -0.13556311415E+02 -0.16710839853E+03  0.19455153785E+03  0.83513361104E+02 0.  0.
        -11    1    4    4    0    0 -0.34408446344E+02 -0.40834332012E+02 -0.14624464036E+03  0.15568840253E+03  0.00000000000E+00 0.  1.
         11    1    4    4    0    0 -0.18192209151E+02  0.27278020597E+02 -0.20863758175E+02  0.38863135317E+02  0.00000000000E+00 0. -1.
        -13    1    3    3    0    0  0.42718091659E+01  0.33190500145E+02 -0.19355190769E+03  0.19642351851E+03  0.00000000000E+00 0.  1.
         13    1    3    3    0    0  0.62673310756E+02  0.73937739153E+02 -0.12755021651E+03  0.16019922248E+03  0.00000000000E+00 0. -1.
         21    1    1    2  502  501 -0.14344464427E+02 -0.93571927883E+02 -0.66017185333E+02  0.11541116977E+03  0.00000000000E+00 0.  1.
<scales pt_clust_5="13000.00000" pt_clust_6="13000.00000" pt_clust_7="13000.00000" pt_clust_8="13000.00000" pt_clust_9="94.66504"></scales>
<clustering>
<clus scale="   83.513">  5  6 -1 -1</clus>
<clus scale="   90.084">  7  8 -1 -1</clus>
<clus scale="   94.665">  1  9  2 -1</clus>
<clus scale="  115.719">  2  5  1 -1</clus>
<clus scale="  115.719">  2  5  1 -1</clus>
</clustering>
</event>
<event>
 9    1  0.1612788E-005  0.9887773E+02  0.7546771E-02  0.1282721E+00
          3   -1    0    0  502    0  0.00000000000E+00  0.00000000000E+00  0.16731458854E+03  0.16731458854E+03  0.00000000000E+00 0. -1.
         -3   -1    0    0    0  501 -0.00000000000E+00 -0.00000000000E+00 -0.11545551204E+03  0.11545551204E+03  0.00000000000E+00 0.  1.
         23    2    1    2    0    0  0.22109779337E+01  0.50235907240E+02  0.30360720744E+02  0.11140722205E+03  0.94663936967E+02 0.  0.
         23    2    1    2    0    0 -0.34550606725E+02  0.50798980330E+01  0.33379312774E+02  0.10619504104E+03  0.94570917475E+02 0.  0.
        -13    1    4    4    0    0 -0.46591804418E+02 -0.33723624173E+02  0.31374619277E+02  0.65516759696E+02  0.00000000000E+00 0. -1.
         13    1    4    4    0    0  0.12041197693E+02  0.38803522206E+02  0.20046934967E+01  0.40678281348E+02  0.00000000000E+00 0.  1.
        -13    1    3    3    0    0  0.27088549817E+02 -0.55349405017E+01  0.40968291866E+02  0.49424953576E+02  0.00000000000E+00 0. -1.
         13    1    3    3    0    0 -0.24877571883E+02  0.55770847742E+02 -0.10607571122E+02  0.61982268478E+02  0.00000000000E+00 0.  1.
         21    1    1    2  502  501  0.32339628791E+02 -0.55315805273E+02 -0.11880957017E+02  0.65167837489E+02  0.00000000000E+00 0. -1.
<scales pt_clust_5="13000.00000" pt_clust_6="13000.00000" pt_clust_7="13000.00000" pt_clust_8="13000.00000" pt_clust_9="64.07566"></scales>
<clustering>
<clus scale="   64.076">  2  9  1 -1</clus>
<clus scale="   94.571">  5  6 -1 -1</clus>
<clus scale="   94.664">  7  8 -1 -1</clus>
<clus scale="   98.789">  1  5  2 -1</clus>
<clus scale="   98.789">  1  5  2 -1</clus>
</clustering>
</event>
<event>
 9    1  0.1612788E-005  0.9333665E+02  0.7546771E-02  0.1306190E+00
         -1   -1    0    0    0  501 -0.00000000000E+00  0.00000000000E+00  0.60118956231E+02  0.60118956231E+02  0.00000000000E+00 0.  1.
          1   -1    0    0  502    0  0.00000000000E+00 -0.00000000000E+00 -0.29475288073E+03  0.29475288073E+03  0.00000000000E+00 0. -1.
         23    2    1    2    0    0 -0.20611093952E+01  0.15495040642E+02 -0.74959130629E+01  0.91889518413E+02  0.90239406166E+02 0.  0.
         23    2    1    2    0    0 -0.26176170962E+02 -0.71078981318E+01 -0.21941032588E+03  0.23252898892E+03  0.72063343278E+02 0.  0.
        -11    1    3    3    0    0  0.25153519396E+02 -0.23824143954E+02  0.16516021523E+02  0.38380572431E+02  0.00000000000E+00 0.  1.
         11    1    3    3    0    0 -0.27214628792E+02  0.39319184596E+02 -0.24011934586E+02  0.53508945983E+02  0.00000000000E+00 0. -1.
        -13    1    4    4    0    0  0.13485710688E+02 -0.27448944792E+02 -0.65388314917E+02  0.72186845690E+02  0.00000000000E+00 0.  1.
         13    1    4    4    0    0 -0.39661881651E+02  0.20341046661E+02 -0.15402201096E+03  0.16034214323E+03  0.00000000000E+00 0. -1.
         21    1    1    2  502  501  0.28237280358E+02 -0.83871425106E+01 -0.77276855638E+01  0.30453329632E+02  0.00000000000E+00 0. -1.
<scales pt_clust_5="13000.00000" pt_clust_6="13000.00000" pt_clust_7="13000.00000" pt_clust_8="13000.00000" pt_clust_9="29.45655"></scales>
<clustering>
<clus scale="   29.457">  1  9  2 -1</clus>
<clus scale="   72.063">  7  8 -1 -1</clus>
<clus scale="   75.906">  2  7  1 -1</clus>
<clus scale="   90.239">  5  6 -1 -1</clus>
<clus scale="   75.906">  2  5  1 -1</clus>
</clustering>
</event>
<event>
 9    1  0.1612788E-005  0.1038111E+03  0.7546771E-02  0.1273480E+00
          1   -1    0    0  502    0  0.00000000000E+00  0.00000000000E+00  0.39229529107E+03  0.39229529107E+03  0.00000000000E+00 0. -1.
         -1   -1    0    0    0  501 -0.00000000000E+00 -0.00000000000E+00 -0.79081428929E+02  0.79081428929E+02  0.00000000000E+00 0.  1.
         23    2    1    2    0    0 -0.74225245470E+02 -0.53471806841E+02  0.17543462543E+03  0.21861674299E+03  0.92991135741E+02 0.  0.
         23    2    1    2    0    0  0.22673028954E+02 -0.51657104351E+01  0.14680488957E+03  0.17416320946E+03  0.90776633109E+02 0.  0.
        -11    1    3    3    0    0 -0.35814521285E+02 -0.71936068183E+02  0.76745736210E+02  0.11111879169E+03  0.00000000000E+00 0.  1.
         11    1    3    3    0    0 -0.38410724185E+02  0.18464261342E+02  0.98688889218E+02  0.10749795130E+03  0.00000000000E+00 0. -1.
        -13    1    4    4    0    0  0.35210979982E+02 -0.30658941952E+02  0.33791686920E+02  0.57633861035E+02  0.00000000000E+00 0.  1.
         13    1    4    4    0    0 -0.12537951028E+02  0.25493231517E+02  0.11301320265E+03  0.11652934842E+03  0.00000000000E+00 0. -1.
         21    1    1    2  502  501  0.51552216516E+02  0.58637517276E+02 -0.90256528590E+01  0.78596767551E+02  0.00000000000E+00 0.  1.
<scales pt_clust_5="13000.00000" pt_clust_6="13000.00000" pt_clust_7="13000.00000" pt_clust_8="13000.00000" pt_clust_9="78.07682"></scales>
<clustering>
<clus scale="   78.077">  2  9  1 -1</clus>
<clus scale="   90.777">  7  8 -1 -1</clus>
<clus scale="   92.991">  5  6 -1 -1</clus>
<clus scale="  101.832">  1  7  2 -1</clus>
<clus scale="  101.832">  1  5  2 -1</clus>
</clustering>
</event>
<event>
 9    1  0.1612788E-005  0.1128002E+03  0.7546771E-02  0.1257929E+00
         -1   -1    0    0    0  501 -0.00000000000E+00  0.00000000000E+00  0.15630351935E+03  0.15630351935E+03  0.00000000000E+00 0.  1.
          1   -1    0    0  502    0  0.00000000000E+00 -0.00000000000E+00 -0.44933419702E+03  0.44933419702E+03  0.00000000000E+00 0. -1.
         23    2    1    2    0    0 -0.69905858679E+02  0.85729800369E+01  0.26435359416E+02  0.12022166387E+03  0.93776837071E+02 0.  0.
         23    2    1    2    0    0  0.49342126060E+02 -0.11080994066E+02 -0.39320224072E+03  0.40882502849E+03  0.99862245041E+02 0.  0.
        -11    1    4    4    0    0 -0.14786961223E+02 -0.39208629143E+02 -0.14511420988E+03  0.15104338691E+03  0.00000000000E+00 0.  1.
         11    1    4    4    0    0  0.64129087283E+02  0.28127635078E+02 -0.24808803084E+03  0.25778164158E+03  0.00000000000E+00 0. -1.
        -13    1    3    3    0    0 -0.32061177046E+02 -0.25598337521E+02  0.49471760410E+02  0.64270125529E+02  0.00000000000E+00 0.  1.
         13    1    3    3    0    0 -0.37844681633E+02  0.34171317558E+02 -0.23036400994E+02  0.55951538338E+02  0.00000000000E+00 0. -1.
         21    1    1    2  502  501  0.20563732619E+02  0.25080140288E+01  0.73736203631E+02  0.76591024014E+02  0.00000000000E+00 0.  1.
<scales pt_clust_5="13000.00000" pt_clust_6="13000.00000" pt_clust_7="13000.00000" pt_clust_8="13000.00000" pt_clust_9="20.71611"></scales>
<clustering>
<clus scale="   20.716">  1  9  2 -1</clus>
<clus scale="   93.777">  7  8 -1 -1</clus>
<clus scale="   99.862">  5  6 -1 -1</clus>
<clus scale="  107.450">  1  7  2 -1</clus>
<clus scale="  112.800">  2  5  1 -1</clus>
</clustering>
</event>
<event>
 9    1  0.1612788E-005  0.9705096E+02  0.7546771E-02  0.1286788E+00
         -4   -1    0    0    0  501 -0.00000000000E+00  0.00000000000E+00  0.13470335743E+03  0.13470335743E+03  0.00000000000E+00 0.  1.
          4   -1    0    0  502    0  0.00000000000E+00 -0.00000000000E+00 -0.17871273229E+03  0.17871273229E+03  0.00000000000E+00 0. -1.
         23    2    1    2    0    0 -0.18113646086E+02  0.32243833876E+02 -0.21951356369E+02  0.10060275263E+03  0.90946593077E+02 0.  0.
         23    2    1    2    0    0 -0.39281393659E+02 -0.25771349883E+02 -0.80647022302E+02  0.13054089332E+03  0.91267695604E+02 0.  0.
        -11    1    4    4    0    0 -0.18794031803E+02 -0.15328450670E+02  0.17390236730E+02  0.29842877959E+02  0.00000000000E+00 0.  1.
         11    1    4    4    0    0 -0.20487361856E+02 -0.10442899213E+02 -0.98037259032E+02  0.10069801536E+03  0.00000000000E+00 0. -1.
        -13    1    3    3    0    0 -0.15342096935E+01 -0.30206717583E+02  0.48847741090E+01  0.30637568517E+02  0.00000000000E+00 0. -1.
         13    1    3    3    0    0 -0.16579436393E+02  0.62450551459E+02 -0.26836130478E+02  0.69965184111E+02  0.00000000000E+00 0.  1.
         21    1    1    2  502  501  0.57395039745E+02 -0.64724839931E+01  0.58589003815E+02  0.82272443774E+02  0.00000000000E+00 0.  1.
<scales pt_clust_5="13000.00000" pt_clust_6="13000.00000" pt_clust_7="13000.00000" pt_clust_8="13000.00000" pt_clust_9="57.75884"></scales>
<clustering>
<clus scale="   57.759">  1  9  2 -1</clus>
<clus scale="   90.947">  7  8 -1 -1</clus>
<clus scale="   91.268">  5  6 -1 -1</clus>
<clus scale="   96.749">  1  7  2 -1</clus>
<clus scale="   97.051">  2  5  1 -1</clus>
</clustering>
</event>
<event>
 9    1  0.1612788E-005  0.1075630E+03  0.7546771E-02  0.1266480E+00
         -3   -1    0    0    0  501 -0.00000000000E+00  0.00000000000E+00  0.12311348117E+03  0.12311348117E+03  0.00000000000E+00 0.  1.
          3   -1    0    0  502    0  0.00000000000E+00 -0.00000000000E+00 -0.26514202475E+03  0.26514202475E+03  0.00000000000E+00 0. -1.
         23    2    1    2    0    0  0.43246562602E+01  0.44217592595E+02  0.63773457094E+02  0.11735302067E+03  0.87924851347E+02 0.  0.
         23    2    1    2    0    0  0.17110481831E+02 -0.56750966335E+02 -0.21771115515E+03  0.24336381130E+03  0.91183094965E+02 0.  0.
        -11    1    4    4    0    0 -0.23408306869E+02 -0.68093125038E+01 -0.14176643619E+03  0.14384727317E+03  0.00000000000E+00 0.  1.
         11    1    4    4    0    0  0.40518788700E+02 -0.49941653831E+02 -0.75944718959E+02  0.99516538137E+02  0.00000000000E+00 0. -1.
        -13    1    3    3    0    0 -0.18293388441E+02  0.62680848497E+02  0.58530474862E+02  0.87688957780E+02  0.00000000000E+00 0.  1.
         13    1    3    3    0    0  0.22618044701E+02 -0.18463255901E+02  0.52429822318E+01  0.29664062892E+02  0.00000000000E+00 0. -1.
         21    1    1    2  502  501 -0.21435138091E+02  0.12533373740E+02  0.11909154476E+02  0.27538673944E+02  0.00000000000E+00 0. -1.
<scales pt_clust_5="13000.00000" pt_clust_6="13000.00000" pt_clust_7="13000.00000" pt_clust_8="13000.00000" pt_clust_9="24.83044"></scales>
<clustering>
<clus scale="   24.830">  1  9  2 -1</clus>
<clus scale="   87.925">  7  8 -1 -1</clus>
<clus scale="   91.183">  5  6 -1 -1</clus>
<clus scale="  104.815">  1  7  2 -1</clus>
<clus scale="  107.563">  2  5  1 -1</clus>
</clustering>
</event>
<event>
 9    1  0.1612788E-005  0.1188993E+03  0.7546771E-02  0.1247505E+00
         -1   -1    0    0    0  501 -0.00000000000E+00  0.00000000000E+00  0.23795114596E+03  0.23795114596E+03  0.00000000000E+00 0.  1.
          1   -1    0    0  502    0  0.00000000000E+00 -0.00000000000E+00 -0.10550603033E+03  0.10550603033E+03  0.00000000000E+00 0. -1.
         23    2    1    2    0    0 -0.53294540461E+02  0.50583481671E+02  0.36288767332E+02  0.12267963424E+03  0.91293052100E+02 0.  0.
         23    2    1    2    0    0  0.19641525583E+02 -0.61853857793E+02 -0.22880081516E+00  0.11806608331E+03  0.98629906357E+02 0.  0.
        -13    1    3    3    0    0 -0.62413350008E+02  0.20494802503E+02 -0.10279605758E+02  0.66491604608E+02  0.00000000000E+00 0. -1.
         13    1    3    3    0    0  0.91188095471E+01  0.30088679168E+02  0.46568373090E+02  0.56188029631E+02  0.00000000000E+00 0.  1.
        -13    1    4    4    0    0  0.37612988584E+02 -0.82372685549E+02  0.29723235044E+01  0.90602598979E+02  0.00000000000E+00 0. -1.
         13    1    4    4    0    0 -0.17971463001E+02  0.20518827756E+02 -0.32011243195E+01  0.27463484334E+02  0.00000000000E+00 0.  1.
         21    1    1    2  502  501  0.33653014878E+02  0.11270376122E+02  0.96385149113E+02  0.10271145875E+03  0.00000000000E+00 0.  1.
<scales pt_clust_5="13000.00000" pt_clust_6="13000.00000" pt_clust_7="13000.00000" pt_clust_8="13000.00000" pt_clust_9="35.49009"></scales>
<clustering>
<clus scale="   35.490">  1  9  2 -1</clus>
<clus scale="   91.293">  5  6 -1 -1</clus>
<clus scale="   98.630">  7  8 -1 -1</clus>
<clus scale="  112.888">  1  5  2 -1</clus>
<clus scale="  118.899">  2  5  1 -1</clus>
</clustering>
</event>
<event>
 9    1  0.1612788E-005  0.1007346E+03  0.7546771E-02  0.1282819E+00
          3   -1    0    0  502    0  0.00000000000E+00  0.00000000000E+00  0.20921439228E+02  0.20921439228E+02  0.00000000000E+00 0. -1.
         -3   -1    0    0    0  501 -0.00000000000E+00 -0.00000000000E+00 -0.58566824320E+03  0.58566824320E+03  0.00000000000E+00 0.  1.
         23    2    1    2    0    0  0.57481826152E+01  0.24348187500E+02 -0.29435658181E+03  0.31107933613E+03  0.97461173157E+02 0.  0.
         23    2    1    2    0    0  0.18547623181E+02 -0.23827965573E+02 -0.20667971287E+03  0.22732247491E+03  0.89706285281E+02 0.  0.
        -13    1    3    3    0    0  0.45838334607E+02  0.14164820502E+02 -0.84365680293E+02  0.97053403190E+02  0.00000000000E+00 0.  1.
         13    1    3    3    0    0 -0.40090151992E+02  0.10183366998E+02 -0.20999090152E+03  0.21402593294E+03  0.00000000000E+00 0. -1.
        -13    1    4    4    0    0 -0.36177390418E+02 -0.13970512923E+02 -0.93388364321E+02  0.10112054885E+03  0.00000000000E+00 0. -1.
         13    1    4    4    0    0  0.54725013599E+02 -0.98574526500E+01 -0.11329134855E+03  0.12620192607E+03  0.00000000000E+00 0.  1.
         21    1    1    2  502  501 -0.24295805796E+02 -0.52022192735E+00 -0.63710509286E+02  0.68187871382E+02  0.00000000000E+00 0. -1.
<scales pt_clust_5="13000.00000" pt_clust_6="13000.00000" pt_clust_7="13000.00000" pt_clust_8="13000.00000" pt_clust_9="24.30137"></scales>
<clustering>
<clus scale="   24.301">  2  9  1 -1</clus>
<clus scale="   89.706">  7  8 -1 -1</clus>
<clus scale="   93.252">  1  7  2 -1</clus>
<clus scale="   97.461">  5  6 -1 -1</clus>
<clus scale="   93.252">  1  5  2 -1</clus>
</clustering>
</event>
<event>
 9    1  0.1612788E-005  0.1566597E+03  0.7546771E-02  0.1192674E+00
         -1   -1    0    0    0  501 -0.00000000000E+00  0.00000000000E+00  0.47588849300E+02  0.47588849300E+02  0.00000000000E+00 0.  1.
          1   -1    0    0  502    0  0.00000000000E+00 -0.00000000000E+00 -0.64939183071E+03  0.64939183071E+03  0.00000000000E+00 0. -1.
         23    2    1    2    0    0 -0.23092732972E+02 -0.13911326619E+03 -0.31400926397E+03  0.35585061045E+03  0.90233386013E+02 0.  0.
         23    2    1    2    0    0  0.40709662920E+02  0.10768918893E+03 -0.23844878667E+03  0.28003382545E+03  0.91142094908E+02 0.  0.
        -11    1    4    4    0    0  0.73879197365E+01  0.79560648540E+02 -0.21738803487E+03  0.23160750389E+03  0.00000000000E+00 0.  1.
         11    1    4    4    0    0  0.33321743184E+02  0.28128540394E+02 -0.21060751801E+02  0.48426321561E+02  0.00000000000E+00 0. -1.
        -11    1    3    3    0    0 -0.56793393996E+02 -0.91066978586E+02 -0.18024167285E+03  0.20977546287E+03  0.00000000000E+00 0.  1.
         11    1    3    3    0    0  0.33700661024E+02 -0.48046287599E+02 -0.13376759112E+03  0.14607514758E+03  0.00000000000E+00 0. -1.
         21    1    1    2  502  501 -0.17616929949E+02  0.31424077251E+02 -0.49344930770E+02  0.61096244112E+02  0.00000000000E+00 0.  1.
<scales pt_clust_5="13000.00000" pt_clust_6="13000.00000" pt_clust_7="13000.00000" pt_clust_8="13000.00000" pt_clust_9="36.02539"></scales>
<clustering>
<clus scale="   36.025">  1  9  2 -1</clus>
<clus scale="   90.233">  7  8 -1 -1</clus>
<clus scale="   91.142">  5  6 -1 -1</clus>
<clus scale="  156.133">  1  7  2 -1</clus>
<clus scale="  156.660">  2  5  1 -1</clus>
</clustering>
</event>
<event>
 9    1  0.1612788E-005  0.1900787E+03  0.7546771E-02  0.1159191E+00
          1   -1    0    0  502    0  0.00000000000E+00  0.00000000000E+00  0.89976155622E+03  0.89976155622E+03  0.00000000000E+00 0. -1.
         -1   -1    0    0    0  501 -0.00000000000E+00 -0.00000000000E+00 -0.13418187108E+03  0.13418187108E+03  0.00000000000E+00 0.  1.
         23    2    1    2    0    0  0.18164029666E+03 -0.16417487279E+02  0.16715742926E+03  0.26383841331E+03  0.91686263555E+02 0.  0.
         23    2    1    2    0    0 -0.16092868711E+03  0.22688027356E+02  0.67040623596E+03  0.69493863965E+03  0.84157012473E+02 0.  0.
        -11    1    3    3    0    0  0.10403690028E+03 -0.51502329732E+02  0.11787703962E+03  0.16544232547E+03  0.00000000000E+00 0. -1.
         11    1    3    3    0    0  0.77603396381E+02  0.35084842454E+02  0.49280389634E+02  0.98396087841E+02  0.00000000000E+00 0.  1.
        -13    1    4    4    0    0 -0.86590830294E+02 -0.29979378566E+02  0.35535128070E+03  0.36697584079E+03  0.00000000000E+00 0. -1.
         13    1    4    4    0    0 -0.74337856814E+02  0.52667405922E+02  0.31505495526E+03  0.32796279886E+03  0.00000000000E+00 0.  1.
         21    1    1    2  502  501 -0.20711609549E+02 -0.62705400778E+01 -0.71983980078E+02  0.75166374336E+02  0.00000000000E+00 0.  1.
<scales pt_clust_5="13000.00000" pt_clust_6="13000.00000" pt_clust_7="13000.00000" pt_clust_8="13000.00000" pt_clust_9="21.64002"></scales>
<clustering>
<clus scale="   21.640">  2  9  1 -1</clus>
<clus scale="   84.157">  7  8 -1 -1</clus>
<clus scale="   91.686">  5  6 -1 -1</clus>
<clus scale="  186.564">  1  7  2 -1</clus>
<clus scale="  186.564">  1  5  2 -1</clus>
</clustering>
</event>
<event>
 9    1  0.1612788E-005  0.9513661E+02  0.7546771E-02  0.1291172E+00
          2   -1    0    0  502    0  0.00000000000E+00  0.00000000000E+00  0.30079662125E+03  0.30079662125E+03  0.00000000000E+00 0. -1.
         -2   -1    0    0    0  501 -0.00000000000E+00 -0.00000000000E+00 -0.54411835725E+02  0.54411835725E+02  0.00000000000E+00 0.  1.
         23    2    1    2    0    0  0.36609181676E+02 -0.32256262980E+02  0.12357731637E+03  0.16044167179E+03  0.89941526786E+02 0.  0.
         23    2    1    2    0    0 -0.18412739825E+02 -0.49929940676E+01  0.12226011749E+03  0.15330695836E+03  0.90507061464E+02 0.  0.
        -11    1    3    3    0    0 -0.70998268287E+01  0.27422162057E+02  0.32656811439E+02  0.43230196000E+02  0.00000000000E+00 0.  1.
         11    1    3    3    0    0  0.43709008505E+02 -0.59678425038E+02  0.90920504927E+02  0.11721147578E+03  0.00000000000E+00 0. -1.
        -13    1    4    4    0    0 -0.16162857403E+02  0.27454066323E+02  0.57895791293E+01  0.32380286342E+02  0.00000000000E+00 0.  1.
         13    1    4    4    0    0 -0.22498824221E+01 -0.32447060390E+02  0.11647053837E+03  0.12092667202E+03  0.00000000000E+00 0. -1.
         21    1    1    2  502  501 -0.18196441851E+02  0.37249257048E+02  0.54735166321E+00  0.41459826827E+02  0.00000000000E+00 0.  1.
<scales pt_clust_5="13000.00000" pt_clust_6="13000.00000" pt_clust_7="13000.00000" pt_clust_8="13000.00000" pt_clust_9="41.45621"></scales>
<clustering>
<clus scale="   41.456">  2  9  1 -1</clus>
<clus scale="   89.942">  5  6 -1 -1</clus>
<clus scale="   90.507">  7  8 -1 -1</clus>
<clus scale="   94.599">  2  5  1 -1</clus>
<clus scale="   95.137">  1  5  2 -1</clus>
</clustering>
</event>
<event>
 9    1  0.1612788E-005  0.3064804E+03  0.7546771E-02  0.1082062E+00
          1   -1    0    0  502    0  0.00000000000E+00  0.00000000000E+00  0.51052007763E+03  0.51052007763E+03  0.00000000000E+00 0. -1.
         -1   -1    0    0    0  501 -0.00000000000E+00 -0.00000000000E+00 -0.56889409080E+03  0.56889409080E+03  0.00000000000E+00 0.  1.
         23    2    1    2    0    0  0.16590311986E+03  0.29396790690E+03 -0.11943505733E+03  0.36947703992E+03  0.91145897537E+02 0.  0.
         23    2    1    2    0    0 -0.41365094385E+02 -0.28283124140E+03  0.31003316291E+03  0.43133192213E+03  0.90675701216E+02 0.  0.
        -13    1    3    3    0    0  0.14002266489E+03  0.27400081985E+03 -0.79385197661E+02  0.31778106546E+03  0.00000000000E+00 0.  1.
         13    1    3    3    0    0  0.25880454976E+02  0.19967087054E+02 -0.40049859669E+02  0.51695974453E+02  0.00000000000E+00 0. -1.
        -13    1    4    4    0    0 -0.46274626751E+02 -0.13841835351E+03  0.20940965130E+03  0.25525160867E+03  0.00000000000E+00 0. -1.
         13    1    4    4    0    0  0.49095323652E+01 -0.14441288790E+03  0.10062351161E+03  0.17608031346E+03  0.00000000000E+00 0.  1.
         21    1    1    2  502  501 -0.12453802548E+03 -0.11136665500E+02 -0.24897211876E+03  0.27860520639E+03  0.00000000000E+00 0.  1.
<scales pt_clust_5="13000.00000" pt_clust_6="13000.00000" pt_clust_7="13000.00000" pt_clust_8="13000.00000" pt_clust_9="125.03498"></scales>
<clustering>
<clus scale="   90.676">  7  8 -1 -1</clus>
<clus scale="   91.146">  5  6 -1 -1</clus>
<clus scale="  125.035">  2  9  1 -1</clus>
<clus scale="  306.341">  1  7  2 -1</clus>
<clus scale="  306.341">  1  5  2 -1</clus>
</clustering>
</event>
<event>
 9    1  0.1612788E-005  0.1095472E+03  0.7546771E-02  0.1270481E+00
         -2   -1    0    0    0  501 -0.00000000000E+00  0.00000000000E+00  0.50125115314E+02  0.50125115314E+02  0.00000000000E+00 0.  1.
          2   -1    0    0  502    0  0.00000000000E+00 -0.00000000000E+00 -0.55967968042E+03  0.55967968042E+03  0.00000000000E+00 0. -1.
         23    2    1    2    0    0  0.95990669514E+01  0.12013632689E+02 -0.59065124492E+02  0.12449918040E+03  0.10851215385E+03 0.  0.
         23    2    1    2    0    0 -0.13245134764E+02  0.10700172971E+02 -0.45289297345E+03  0.46217581317E+03  0.90578747971E+02 0.  0.
        -11    1    3    3    0    0  0.27550170145E+02 -0.30842014556E+01  0.24934490456E+02  0.37286096443E+02  0.00000000000E+00 0.  1.
         11    1    3    3    0    0 -0.17951103193E+02  0.15097834144E+02 -0.83999614948E+02  0.87213083956E+02  0.00000000000E+00 0. -1.
        -13    1    4    4    0    0 -0.47125936954E+02  0.26755851649E+02 -0.29045142345E+03  0.29546363383E+03  0.00000000000E+00 0. -1.
         13    1    4    4    0    0  0.33880802190E+02 -0.16055678677E+02 -0.16244155000E+03  0.16671217934E+03  0.00000000000E+00 0.  1.
         21    1    1    2  502  501  0.36460678125E+01 -0.22713805660E+02  0.24035328346E+01  0.23129802164E+02  0.00000000000E+00 0.  1.
<scales pt_clust_5="13000.00000" pt_clust_6="13000.00000" pt_clust_7="13000.00000" pt_clust_8="13000.00000" pt_clust_9="23.00458"></scales>
<clustering>
<clus scale="   23.005">  1  9  2 -1</clus>
<clus scale="   90.579">  7  8 -1 -1</clus>
<clus scale="   91.816">  2  7  1 -1</clus>
<clus scale="  108.512">  5  6 -1 -1</clus>
<clus scale="   91.816">  2  5  1 -1</clus>
</clustering>
</event>
<event>
 9    1  0.1612788E-005  0.1933408E+03  0.7546771E-02  0.1185115E+00
         -1   -1    0    0    0  501 -0.00000000000E+00  0.00000000000E+00  0.74442360840E+03  0.74442360840E+03  0.00000000000E+00 0.  1.
          1   -1    0    0  502    0  0.00000000000E+00 -0.00000000000E+00 -0.73993778778E+02  0.73993778778E+02  0.00000000000E+00 0. -1.
         23    2    1    2    0    0  0.33005077418E+02 -0.73365325001E+01  0.16862160729E+03  0.19512658551E+03  0.92184478526E+02 0.  0.
         23    2    1    2    0    0  0.57989679412E+02 -0.15138452163E+03  0.22551339464E+03  0.29191299523E+03  0.89871181783E+02 0.  0.
        -11    1    3    3    0    0 -0.35841443023E+01  0.35413656462E+02  0.34024787215E+02  0.49240829597E+02  0.00000000000E+00 0.  1.
         11    1    3    3    0    0  0.36589221721E+02 -0.42750188962E+02  0.13459682008E+03  0.14588575591E+03  0.00000000000E+00 0. -1.
        -13    1    4    4    0    0  0.17648997067E+02 -0.12998198402E+03  0.20118244527E+03  0.24016906452E+03  0.00000000000E+00 0. -1.
         13    1    4    4    0    0  0.40340682345E+02 -0.21402537606E+02  0.24330949371E+02  0.51743930710E+02  0.00000000000E+00 0.  1.
         21    1    1    2  502  501 -0.90994756830E+02  0.15872105413E+03  0.27629482769E+03  0.33137780644E+03  0.00000000000E+00 0.  1.
<scales pt_clust_5="13000.00000" pt_clust_6="13000.00000" pt_clust_7="13000.00000" pt_clust_8="13000.00000" pt_clust_9="171.18365"></scales>
<clustering>
<clus scale="   89.871">  7  8 -1 -1</clus>
<clus scale="   92.184">  5  6 -1 -1</clus>
<clus scale="   98.189">  1  5  2 -1</clus>
<clus scale="  171.184">  1  9  2 -1</clus>
<clus scale="  193.341">  2  5  1 -1</clus>
</clustering>
</event>
<event>
 9    1  0.1612788E-005  0.1531860E+03  0.7546771E-02  0.1196704E+00
          1   -1    0    0  502    0  0.00000000000E+00  0.00000000000E+00  0.10928227314E+03  0.10928227314E+03  0.00000000000E+00 0. -1.
         -1   -1    0    0    0  501 -0.00000000000E+00 -0.00000000000E+00 -0.48574808365E+03  0.48574808365E+03  0.00000000000E+00 0.  1.
         23    2    1    2    0    0  0.68504630190E+02 -0.10765191044E+03 -0.28968633613E+03  0.32945686253E+03  0.91333634254E+02 0.  0.
         23    2    1    2    0    0 -0.87910965803E+02  0.85444575607E+02  0.20841730913E+02  0.15398453687E+03  0.90817104334E+02 0.  0.
        -11    1    4    4    0    0  0.52530183123E+01  0.52386399111E+02 -0.13604309458E+01  0.52666685728E+02  0.00000000000E+00 0. -1.
         11    1    4    4    0    0 -0.93163984116E+02  0.33058176496E+02  0.22202161859E+02  0.10131785115E+03  0.00000000000E+00 0.  1.
        -11    1    3    3    0    0 -0.15489312422E+02 -0.36362479788E+02 -0.38514953288E+02  0.55186505257E+02  0.00000000000E+00 0. -1.
         11    1    3    3    0    0  0.83993942611E+02 -0.71289430656E+02 -0.25117138284E+03  0.27427035727E+03  0.00000000000E+00 0.  1.
         21    1    1    2  502  501  0.19406335614E+02  0.22207334837E+02 -0.10762120529E+03  0.11158895739E+03  0.00000000000E+00 0. -1.
<scales pt_clust_5="13000.00000" pt_clust_6="13000.00000" pt_clust_7="13000.00000" pt_clust_8="13000.00000" pt_clust_9="29.49189"></scales>
<clustering>
<clus scale="   29.492">  2  9  1 -1</clus>
<clus scale="   90.817">  5  6 -1 -1</clus>
<clus scale="   91.334">  7  8 -1 -1</clus>
<clus scale="  152.879">  1  5  2 -1</clus>
<clus scale="  152.879">  1  5  2 -1</clus>
</clustering>
</event>
<event>
 9    1  0.1612788E-005  0.1741475E+03  0.7546771E-02  0.1173782E+00
         -2   -1    0    0    0  501 -0.00000000000E+00  0.00000000000E+00  0.88294382134E+02  0.88294382134E+02  0.00000000000E+00 0.  1.
          2   -1    0    0  502    0  0.00000000000E+00 -0.00000000000E+00 -0.42632099801E+03  0.42632099801E+03  0.00000000000E+00 0. -1.
         23    2    1    2    0    0  0.10954111850E+03  0.75358823985E+02 -0.93516421777E+02  0.18683362187E+03  0.92104680250E+02 0.  0.
         23    2    1    2    0    0 -0.12382464326E+03 -0.94933929912E+02 -0.24294077040E+03  0.30349869953E+03  0.93521384526E+02 0.  0.
        -11    1    3    3    0    0 -0.12799610069E+02  0.17457315963E+02 -0.30831434989E+02  0.37671810177E+02  0.00000000000E+00 0. -1.
         11    1    3    3    0    0  0.12234072857E+03  0.57901508022E+02 -0.62684986788E+02  0.14916181169E+03  0.00000000000E+00 0.  1.
        -13    1    4    4    0    0 -0.21802294265E+02 -0.74760055899E+02 -0.10096557851E+03  0.12750864299E+03  0.00000000000E+00 0.  1.
         13    1    4    4    0    0 -0.10202234899E+03 -0.20173874014E+02 -0.14197519189E+03  0.17599005653E+03  0.00000000000E+00 0. -1.
         21    1    1    2  502  501  0.14283524753E+02  0.19575105927E+02 -0.15694236979E+01  0.24283058748E+02  0.00000000000E+00 0.  1.
<scales pt_clust_5="13000.00000" pt_clust_6="13000.00000" pt_clust_7="13000.00000" pt_clust_8="13000.00000" pt_clust_9="24.23229"></scales>
<clustering>
<clus scale="   24.232">  1  9  2 -1</clus>
<clus scale="   92.105">  5  6 -1 -1</clus>
<clus scale="   93.521">  7  8 -1 -1</clus>
<clus scale="  173.391">  1  5  2 -1</clus>
<clus scale="  174.148">  2  5  1 -1</clus>
</clustering>
</event>
<event>
 9    1  0.1612788E-005  0.9430222E+02  0.7546771E-02  0.1304338E+00
          2   -1    0    0  502    0  0.00000000000E+00  0.00000000000E+00  0.15428263736E+03  0.15428263736E+03  0.00000000000E+00 0.  1.
         -2   -1    0    0    0  501 -0.00000000000E+00 -0.00000000000E+00 -0.75764994001E+02  0.75764994001E+02  0.00000000000E+00 0. -1.
         23    2    1    2    0    0 -0.79435216505E+01  0.28544423975E+02  0.55467284084E+01  0.97731916006E+02  0.92967077688E+02 0.  0.
         23    2    1    2    0    0  0.10936130650E+02 -0.66781432852E+01  0.79115819287E+02  0.10940611499E+03  0.74472737187E+02 0.  0.
        -13    1    3    3    0    0 -0.35241016617E+02  0.32959342767E+00 -0.28843284422E+02  0.45540893055E+02  0.00000000000E+00 0. -1.
         13    1    3    3    0    0  0.27297494966E+02  0.28214830548E+02  0.34390012830E+02  0.52191022951E+02  0.00000000000E+00 0.  1.
        -13    1    4    4    0    0  0.33733274234E+02 -0.26928253193E+02  0.58076375912E+02  0.72359726711E+02  0.00000000000E+00 0.  1.
         13    1    4    4    0    0 -0.22797143585E+02  0.20250109908E+02  0.21039443375E+02  0.37046388278E+02  0.00000000000E+00 0. -1.
         21    1    1    2  502  501 -0.29926089991E+01 -0.21866280690E+02 -0.61449043323E+01  0.22909600370E+02  0.00000000000E+00 0.  1.
<scales pt_clust_5="13000.00000" pt_clust_6="13000.00000" pt_clust_7="13000.00000" pt_clust_8="13000.00000" pt_clust_9="22.07011"></scales>
<clustering>
<clus scale="   22.070">  2  9  1 -1</clus>
<clus scale="   74.473">  7  8 -1 -1</clus>
<clus scale="   76.133">  1  7  2 -1</clus>
<clus scale="   92.967">  5  6 -1 -1</clus>
<clus scale="   76.133">  1  5  2 -1</clus>
</clustering>
</event>
<event>
 9    1  0.1612788E-005  0.1015337E+03  0.7546771E-02  0.1278443E+00
          3   -1    0    0  502    0  0.00000000000E+00  0.00000000000E+00  0.94358766414E+02  0.94358766414E+02  0.00000000000E+00 0. -1.
         -3   -1    0    0    0  501 -0.00000000000E+00 -0.00000000000E+00 -0.50273839098E+03  0.50273839098E+03  0.00000000000E+00 0.  1.
         23    2    1    2    0    0  0.35017406948E+02  0.12581522107E+02 -0.39444999684E+03  0.40654066603E+03  0.91104333826E+02 0.  0.
         23    2    1    2    0    0 -0.20661138917E+02 -0.33481799273E+02  0.55992699655E+02  0.11617869976E+03  0.93885005829E+02 0.  0.
        -11    1    3    3    0    0  0.45187444278E+02  0.44033121112E+02 -0.29729924178E+03  0.30392048308E+03  0.00000000000E+00 0.  1.
         11    1    3    3    0    0 -0.10170037330E+02 -0.31451599005E+02 -0.97150755060E+02  0.10262018295E+03  0.00000000000E+00 0. -1.
        -13    1    4    4    0    0  0.11973220277E+02 -0.57946904387E+02  0.43769118692E+02  0.73599847031E+02  0.00000000000E+00 0. -1.
         13    1    4    4    0    0 -0.32634359194E+02  0.24465105114E+02  0.12223580962E+02  0.42578852730E+02  0.00000000000E+00 0.  1.
         21    1    1    2  502  501 -0.14356268031E+02  0.20900277166E+02 -0.69922327384E+02  0.74377791606E+02  0.00000000000E+00 0. -1.
<scales pt_clust_5="13000.00000" pt_clust_6="13000.00000" pt_clust_7="13000.00000" pt_clust_8="13000.00000" pt_clust_9="25.35595"></scales>
<clustering>
<clus scale="   25.356">  2  9  1 -1</clus>
<clus scale="   91.104">  5  6 -1 -1</clus>
<clus scale="   93.885">  7  8 -1 -1</clus>
<clus scale="   98.968">  2  5  1 -1</clus>
<clus scale="  101.534">  1  5  2 -1</clus>
</clustering>
</event>
<event>
 9    1  0.1612788E-005  0.1318782E+03  0.7546771E-02  0.1225017E+00
          4   -1    0    0  502    0  0.00000000000E+00  0.00000000000E+00  0.15776437802E+03  0.15776437802E+03  0.00000000000E+00 0. -1.
         -4   -1    0    0    0  501 -0.00000000000E+00 -0.00000000000E+00 -0.20325588725E+03  0.20325588725E+03  0.00000000000E+00 0.  1.
         23    2    1    2    0    0 -0.20908395155E+02 -0.70060075908E+02 -0.46575814081E+02  0.12548436327E+03  0.90727304289E+02 0.  0.
         23    2    1    2    0    0  0.18440299037E+02  0.10364156514E+03  0.71836633816E+02  0.15717966439E+03  0.91996338446E+02 0.  0.
        -11    1    4    4    0    0  0.37764493563E+02  0.24766868586E+02 -0.49316382872E+01  0.45429899954E+02  0.00000000000E+00 0.  1.
         11    1    4    4    0    0 -0.19324194526E+02  0.78874696550E+02  0.76768272104E+02  0.11174976444E+03  0.00000000000E+00 0. -1.
        -13    1    3    3    0    0  0.22951497103E+02  0.45937041739E+01  0.60310365667E+01  0.24171196482E+02  0.00000000000E+00 0.  1.
         13    1    3    3    0    0 -0.43859892258E+02 -0.74653780082E+02 -0.52606850648E+02  0.10131316679E+03  0.00000000000E+00 0. -1.
         21    1    1    2  502  501  0.24680961179E+01 -0.33581489229E+02 -0.70752328970E+02  0.78356237607E+02  0.00000000000E+00 0.  1.
<scales pt_clust_5="13000.00000" pt_clust_6="13000.00000" pt_clust_7="13000.00000" pt_clust_8="13000.00000" pt_clust_9="33.67206"></scales>
<clustering>
<clus scale="   33.672">  2  9  1 -1</clus>
<clus scale="   90.727">  7  8 -1 -1</clus>
<clus scale="   91.996">  5  6 -1 -1</clus>
<clus scale="  130.996">  2  7  1 -1</clus>
<clus scale="  131.878">  1  5  2 -1</clus>
</clustering>
</event>
<event>
 9    1  0.1612788E-005  0.1931891E+03  0.7546771E-02  0.1156955E+00
          2   -1    0    0  502    0  0.00000000000E+00  0.00000000000E+00  0.26451294691E+03  0.26451294691E+03  0.00000000000E+00 0. -1.
         -2   -1    0    0    0  501 -0.00000000000E+00 -0.00000000000E+00 -0.20117692920E+03  0.20117692920E+03  0.00000000000E+00 0.  1.
         23    2    1    2    0    0  0.12582425611E+03 -0.14522092447E+03 -0.49221291211E+02  0.21888623698E+03  0.92561271055E+02 0.  0.
         23    2    1    2    0    0 -0.10958396110E+03  0.11851793656E+03  0.11794087449E+03  0.21508961190E+03  0.79362115993E+02 0.  0.
        -11    1    4    4    0    0 -0.77996045658E+02  0.12492640777E+03  0.91353452782E+02  0.17330736808E+03  0.00000000000E+00 0. -1.
         11    1    4    4    0    0 -0.31587915443E+02 -0.64084712112E+01  0.26587421711E+02  0.41782243819E+02  0.00000000000E+00 0.  1.
        -13    1    3    3    0    0  0.29757960023E+02 -0.32303745687E+02  0.27638685181E+02  0.51893786610E+02  0.00000000000E+00 0. -1.
         13    1    3    3    0    0  0.96066296086E+02 -0.11291717879E+03 -0.76859976393E+02  0.16699245037E+03  0.00000000000E+00 0.  1.
         21    1    1    2  502  501 -0.16240295008E+02  0.26702987916E+02 -0.53835655719E+01  0.31714027241E+02  0.00000000000E+00 0. -1.
<scales pt_clust_5="13000.00000" pt_clust_6="13000.00000" pt_clust_7="13000.00000" pt_clust_8="13000.00000" pt_clust_9="31.25375"></scales>
<clustering>
<clus scale="   31.254">  2  9  1 -1</clus>
<clus scale="   79.362">  5  6 -1 -1</clus>
<clus scale="   92.561">  7  8 -1 -1</clus>
<clus scale="  187.224">  1  5  2 -1</clus>
<clus scale="  187.224">  1  5  2 -1</clus>
</clustering>
</event>
<event>
 9    1  0.1612788E-005  0.3502938E+03  0.7546771E-02  0.1103653E+00
          1   -1    0    0  502    0  0.00000000000E+00  0.00000000000E+00  0.32860729337E+03  0.32860729337E+03  0.00000000000E+00 0. -1.
         -1   -1    0    0    0  501 -0.00000000000E+00 -0.00000000000E+00 -0.92325709238E+03  0.92325709238E+03  0.00000000000E+00 0.  1.
         23    2    1    2    0    0  0.25202280378E+02 -0.68888984372E+02 -0.74604256956E+02  0.13816103577E+03  0.90232087107E+02 0.  0.
         23    2    1    2    0    0 -0.31791784636E+03 -0.11589305211E+03  0.13303090951E+03  0.37455813071E+03  0.89964514312E+02 0.  0.
        -11    1    3    3    0    0  0.23892714555E+02 -0.89950361483E+02 -0.49664521911E+02  0.10549167776E+03  0.00000000000E+00 0. -1.
         11    1    3    3    0    0  0.13095658234E+01  0.21061377111E+02 -0.24939735045E+02  0.32669358007E+02  0.00000000000E+00 0.  1.
        -13    1    4    4    0    0 -0.11014034488E+03 -0.41957696870E+02  0.16956578984E+01  0.11787374242E+03  0.00000000000E+00 0.  1.
         13    1    4    4    0    0 -0.20777750148E+03 -0.73935355245E+02  0.13133525161E+03  0.25668438829E+03  0.00000000000E+00 0. -1.
         21    1    1    2  502  501  0.29271556598E+03  0.18478203649E+03 -0.65307645157E+03  0.73914521927E+03  0.00000000000E+00 0.  1.
<scales pt_clust_5="13000.00000" pt_clust_6="13000.00000" pt_clust_7="13000.00000" pt_clust_8="13000.00000" pt_clust_9="338.54413"></scales>
<clustering>
<clus scale="   89.965">  7  8 -1 -1</clus>
<clus scale="   90.232">  5  6 -1 -1</clus>
<clus scale="  116.287">  2  5  1 -1</clus>
<clus scale="  338.544">  2  9  1 -1</clus>
<clus scale="  350.294">  1  5  2 -1</clus>
</clustering>
</event>
<event>
 9    1  0.1612788E-005  0.1588741E+03  0.7546771E-02  0.1190609E+00
          1   -1    0    0  502    0  0.00000000000E+00  0.00000000000E+00  0.95042211093E+02  0.95042211093E+02  0.00000000000E+00 0. -1.
         -1   -1    0    0    0  501 -0.00000000000E+00 -0.00000000000E+00 -0.35691305141E+03  0.35691305141E+03  0.00000000000E+00 0.  1.
         23    2    1    2    0    0  0.10529649050E+03  0.55287046938E+02 -0.96684017741E+02  0.17627094807E+03  0.87061124366E+02 0.  0.
         23    2    1    2    0    0 -0.12511419476E+03 -0.65194689417E+02 -0.76882330486E+02  0.18464264208E+03  0.90984082539E+02 0.  0.
        -11    1    3    3    0    0  0.73210058750E+02  0.70862996614E+02 -0.96891519935E+02  0.14060314231E+03  0.00000000000E+00 0.  1.
         11    1    3    3    0    0  0.32086431750E+02 -0.15575949676E+02  0.20750219365E+00  0.35667805762E+02  0.00000000000E+00 0. -1.
        -13    1    4    4    0    0 -0.79050790836E+02 -0.19058293846E+02 -0.86524792371E+02  0.11873830802E+03  0.00000000000E+00 0.  1.
         13    1    4    4    0    0 -0.46063403922E+02 -0.46136395570E+02  0.96424618846E+01  0.65904334063E+02  0.00000000000E+00 0. -1.
         21    1    1    2  502  501  0.19817704258E+02  0.99076424792E+01 -0.88304492087E+02  0.91041672350E+02  0.00000000000E+00 0.  1.
<scales pt_clust_5="13000.00000" pt_clust_6="13000.00000" pt_clust_7="13000.00000" pt_clust_8="13000.00000" pt_clust_9="22.15633"></scales>
<clustering>
<clus scale="   22.156">  2  9  1 -1</clus>
<clus scale="   87.061">  5  6 -1 -1</clus>
<clus scale="   90.984">  7  8 -1 -1</clus>
<clus scale="  156.661">  2  5  1 -1</clus>
<clus scale="  158.874">  1  5  2 -1</clus>
</clustering>
</event>
<event>
 9    1  0.1612788E-005  0.1334610E+03  0.7546771E-02  0.1222625E+00
          4   -1    0    0  502    0  0.00000000000E+00  0.00000000000E+00  0.16556074286E+03  0.16556074286E+03  0.00000000000E+00 0. -1.
         -4   -1    0    0    0  501 -0.00000000000E+00 -0.00000000000E+00 -0.24863512998E+03  0.24863512998E+03  0.00000000000E+00 0.  1.
         23    2    1    2    0    0 -0.41962163540E+02 -0.11666419610E+03 -0.16000995612E+02  0.15391756149E+03  0.89795467887E+02 0.  0.
         23    2    1    2    0    0  0.48542319737E+02  0.71088398781E+02  0.49857587111E+02  0.13460689249E+03  0.90682519076E+02 0.  0.
        -13    1    4    4    0    0  0.49050220219E+02 -0.34725921072E+01  0.10450793469E+02  0.50271284881E+02  0.00000000000E+00 0.  1.
         13    1    4    4    0    0 -0.50790048212E+00  0.74560990889E+02  0.39406793642E+02  0.84335607606E+02  0.00000000000E+00 0. -1.
        -13    1    3    3    0    0  0.14240952049E+02 -0.18535833338E+02 -0.32083806078E+02  0.39695748453E+02  0.00000000000E+00 0. -1.
         13    1    3    3    0    0 -0.56203115589E+02 -0.98128362766E+02  0.16082810466E+02  0.11422181304E+03  0.00000000000E+00 0.  1.
         21    1    1    2  502  501 -0.65801561968E+01  0.45575797323E+02 -0.11693097863E+03  0.12567141886E+03  0.00000000000E+00 0.  1.
<scales pt_clust_5="13000.00000" pt_clust_6="13000.00000" pt_clust_7="13000.00000" pt_clust_8="13000.00000" pt_clust_9="46.04836"></scales>
<clustering>
<clus scale="   46.048">  2  9  1 -1</clus>
<clus scale="   89.795">  7  8 -1 -1</clus>
<clus scale="   90.683">  5  6 -1 -1</clus>
<clus scale="  132.860">  2  7  1 -1</clus>
<clus scale="  133.461">  1  5  2 -1</clus>
</clustering>
</event>
<event>
 9    1  0.1612788E-005  0.1086457E+03  0.7546771E-02  0.1263466E+00
          2   -1    0    0  502    0  0.00000000000E+00  0.00000000000E+00  0.26817979679E+03  0.26817979679E+03  0.00000000000E+00 0. -1.
         -2   -1    0    0    0  501 -0.00000000000E+00 -0.00000000000E+00 -0.12340033155E+03  0.12340033155E+03  0.00000000000E+00 0.  1.
         23    2    1    2    0    0 -0.20606924411E+02  0.37834459198E+02 -0.59605214102E+02  0.11645530871E+03  0.90293774664E+02 0.  0.
         23    2    1    2    0    0 -0.28219626112E+02 -0.59865584565E+02  0.18918397084E+03  0.21944300877E+03  0.89355602871E+02 0.  0.
        -11    1    3    3    0    0 -0.50712852711E+02  0.46016347521E+02 -0.45503189944E+02  0.82218233771E+02  0.00000000000E+00 0.  1.
         11    1    3    3    0    0  0.30105928300E+02 -0.81818883231E+01 -0.14102024158E+02  0.34237074943E+02  0.00000000000E+00 0. -1.
        -13    1    4    4    0    0 -0.47458470143E+02 -0.69229189488E+02  0.17406173926E+03  0.19324201443E+03  0.00000000000E+00 0. -1.
         13    1    4    4    0    0  0.19238844031E+02  0.93636049233E+01  0.15122231575E+02  0.26200994344E+02  0.00000000000E+00 0.  1.
         21    1    1    2  502  501  0.48826550523E+02  0.22031125366E+02  0.15200708497E+02  0.55681810851E+02  0.00000000000E+00 0.  1.
<scales pt_clust_5="13000.00000" pt_clust_6="13000.00000" pt_clust_7="13000.00000" pt_clust_8="13000.00000" pt_clust_9="53.56680"></scales>
<clustering>
<clus scale="   53.567">  2  9  1 -1</clus>
<clus scale="   89.356">  7  8 -1 -1</clus>
<clus scale="   90.294">  5  6 -1 -1</clus>
<clus scale="  107.867">  1  7  2 -1</clus>
<clus scale="  107.867">  1  5  2 -1</clus>
</clustering>
</event>
<event>
 9    1  0.1612788E-005  0.1106856E+03  0.7546771E-02  0.1259525E+00
         -2   -1    0    0    0  501 -0.00000000000E+00  0.00000000000E+00  0.12916093181E+03  0.12916093181E+03  0.00000000000E+00 0.  1.
          2   -1    0    0  502    0  0.00000000000E+00 -0.00000000000E+00 -0.14129210170E+03  0.14129210170E+03  0.00000000000E+00 0. -1.
         23    2    1    2    0    0  0.33467871638E+02  0.46078282515E+02  0.33430552848E+02  0.11095653020E+03  0.89165257690E+02 0.  0.
         23    2    1    2    0    0 -0.64292872708E+02 -0.31017985221E+02 -0.49609955516E+02  0.12495115002E+03  0.89754962626E+02 0.  0.
        -11    1    4    4    0    0  0.97060143775E+01 -0.36279920118E+02 -0.37677967654E+01  0.37744345422E+02  0.00000000000E+00 0.  1.
         11    1    4    4    0    0 -0.73998887085E+02  0.52619348965E+01 -0.45842158750E+02  0.87206804594E+02  0.00000000000E+00 0. -1.
        -13    1    3    3    0    0 -0.28593768257E+02  0.64907694204E+01 -0.17414898803E+01  0.29372886440E+02  0.00000000000E+00 0.  1.
         13    1    3    3    0    0  0.62061639895E+02  0.39587513095E+02  0.35172042729E+02  0.81583643760E+02  0.00000000000E+00 0. -1.
         21    1    1    2  502  501  0.30825001070E+02 -0.15060297294E+02  0.40482327693E+01  0.34545353292E+02  0.00000000000E+00 0. -1.
<scales pt_clust_5="13000.00000" pt_clust_6="13000.00000" pt_clust_7="13000.00000" pt_clust_8="13000.00000" pt_clust_9="34.30734"></scales>
<clustering>
<clus scale="   34.307">  1  9  2 -1</clus>
<clus scale="   89.165">  7  8 -1 -1</clus>
<clus scale="   89.755">  5  6 -1 -1</clus>
<clus scale="  110.208">  1  7  2 -1</clus>
<clus scale="  110.686">  2  5  1 -1</clus>
</clustering>
</event>
<event>
 9    1  0.1612788E-005  0.1062891E+03  0.7546771E-02  0.1267622E+00
         -2   -1    0    0    0  501 -0.00000000000E+00  0.00000000000E+00  0.12250743704E+03  0.12250743704E+03  0.00000000000E+00 0.  1.
          2   -1    0    0  502    0  0.00000000000E+00 -0.00000000000E+00 -0.19790368466E+03  0.19790368466E+03  0.00000000000E+00 0. -1.
         23    2    1    2    0    0  0.48805488323E+02  0.17643329161E+01 -0.35739532435E+02  0.10903586393E+03  0.90699596930E+02 0.  0.
         23    2    1    2    0    0 -0.51315458462E+02  0.41312279600E+02 -0.90920458654E+02  0.14436879621E+03  0.90751522273E+02 0.  0.
        -13    1    3    3    0    0 -0.16127653988E+02 -0.19165761116E+02  0.99222503926E+01  0.26942135683E+02  0.00000000000E+00 0.  1.
         13    1    3    3    0    0  0.64933142311E+02  0.20930094032E+02 -0.45661782828E+02  0.82093728247E+02  0.00000000000E+00 0. -1.
        -13    1    4    4    0    0 -0.65430398631E+02 -0.29812534954E+01 -0.56901223176E+02  0.86762746248E+02  0.00000000000E+00 0.  1.
         13    1    4    4    0    0  0.14114940169E+02  0.44293533095E+02 -0.34019235477E+02  0.57606049964E+02  0.00000000000E+00 0. -1.
         21    1    1    2  502  501  0.25099701392E+01 -0.43076612516E+02  0.51263743468E+02  0.67006461556E+02  0.00000000000E+00 0.  1.
<scales pt_clust_5="13000.00000" pt_clust_6="13000.00000" pt_clust_7="13000.00000" pt_clust_8="13000.00000" pt_clust_9="43.14968"></scales>
<clustering>
<clus scale="   43.150">  1  9  2 -1</clus>
<clus scale="   90.700">  5  6 -1 -1</clus>
<clus scale="   90.752">  7  8 -1 -1</clus>
<clus scale="  106.245">  1  5  2 -1</clus>
<clus scale="  106.289">  2  5  1 -1</clus>
</clustering>
</event>
<event>
 9    1  0.1612788E-005  0.9668647E+02  0.7546771E-02  0.1288179E+00
          2   -1    0    0  502    0  0.00000000000E+00  0.00000000000E+00  0.64091717051E+03  0.64091717051E+03  0.00000000000E+00 0. -1.
         -2   -1    0    0    0  501 -0.00000000000E+00 -0.00000000000E+00 -0.37504424517E+02  0.37504424517E+02  0.00000000000E+00 0.  1.
         23    2    1    2    0    0 -0.22325711906E+02 -0.32620269609E+02  0.55836011415E+02  0.11257321749E+03  0.89401061090E+02 0.  0.
         23    2    1    2    0    0  0.68773554349E+01 -0.72986631835E+01  0.45162413027E+03  0.46078137422E+03  0.90854561153E+02 0.  0.
        -13    1    3    3    0    0  0.14251109439E+02 -0.52251692637E+02  0.20007406828E+02  0.57737594613E+02  0.00000000000E+00 0.  1.
         13    1    3    3    0    0 -0.36576821345E+02  0.19631423028E+02  0.35828604587E+02  0.54835622879E+02  0.00000000000E+00 0. -1.
        -13    1    4    4    0    0 -0.25911125071E+02 -0.37471804531E+02  0.26680460355E+03  0.27066625023E+03  0.00000000000E+00 0. -1.
         13    1    4    4    0    0  0.32788480505E+02  0.30173141347E+02  0.18481952672E+03  0.19011512399E+03  0.00000000000E+00 0.  1.
         21    1    1    2  502  501  0.15448356472E+02  0.39918932793E+02  0.95952604309E+02  0.10506700332E+03  0.00000000000E+00 0. -1.
<scales pt_clust_5="13000.00000" pt_clust_6="13000.00000" pt_clust_7="13000.00000" pt_clust_8="13000.00000" pt_clust_9="42.80389"></scales>
<clustering>
<clus scale="   42.804">  1  9  2 -1</clus>
<clus scale="   89.401">  5  6 -1 -1</clus>
<clus scale="   90.855">  7  8 -1 -1</clus>
<clus scale="   95.322">  2  5  1 -1</clus>
<clus scale="   42.804">  1  5  2 -1</clus>
</clustering>
</event>
<event>
 9    1  0.1612788E-005  0.1515329E+03  0.7546771E-02  0.1208093E+00
         -2   -1    0    0    0  501 -0.00000000000E+00  0.00000000000E+00  0.10494311388E+03  0.10494311388E+03  0.00000000000E+00 0.  1.
          2   -1    0    0  502    0  0.00000000000E+00 -0.00000000000E+00 -0.27930047272E+03  0.27930047272E+03  0.00000000000E+00 0. -1.
         23    2    1    2    0    0 -0.62285150464E+02 -0.17233253245E+01 -0.35314905819E+02  0.14473074733E+03  0.12576739176E+03 0.  0.
         23    2    1    2    0    0  0.92241614368E+02 -0.24790491040E+02 -0.14874238603E+03  0.19834900941E+03  0.89971930424E+02 0.  0.
        -11    1    3    3    0    0  0.19601364207E+02 -0.43950254996E+02 -0.95332605287E+01  0.49058347396E+02  0.00000000000E+00 0. -1.
         11    1    3    3    0    0 -0.81886514670E+02  0.42226929671E+02 -0.25781645290E+02  0.95672399929E+02  0.00000000000E+00 0.  1.
        -13    1    4    4    0    0  0.74930470364E+02 -0.52437732537E+02 -0.77058411269E+02  0.11959218173E+03  0.00000000000E+00 0. -1.
         13    1    4    4    0    0  0.17311144004E+02  0.27647241496E+02 -0.71683974765E+02  0.78756827686E+02  0.00000000000E+00 0.  1.
         21    1    1    2  502  501 -0.29956463904E+02  0.26513816365E+02  0.96999330123E+01  0.41163829855E+02  0.00000000000E+00 0.  1.
<scales pt_clust_5="13000.00000" pt_clust_6="13000.00000" pt_clust_7="13000.00000" pt_clust_8="13000.00000" pt_clust_9="40.00465"></scales>
<clustering>
<clus scale="   40.005">  1  9  2 -1</clus>
<clus scale="   89.972">  7  8 -1 -1</clus>
<clus scale="  123.449">  2  7  1 -1</clus>
<clus scale="  125.767">  5  6 -1 -1</clus>
<clus scale="  123.449">  2  5  1 -1</clus>
</clustering>
</event>
<event>
 9    1  0.1612788E-005  0.1547794E+03  0.7546771E-02  0.1196043E+00
          1   -1    0    0  502    0  0.00000000000E+00  0.00000000000E+00  0.61713034444E+03  0.61713034444E+03  0.00000000000E+00 0. -1.
         -1   -1    0    0    0  501 -0.00000000000E+00 -0.00000000000E+00 -0.58479074350E+02  0.58479074350E+02  0.00000000000E+00 0.  1.
         23    2    1    2    0    0 -0.10556863849E+03 -0.25900482234E+02  0.10701756359E+03  0.17292839869E+03  0.81461032045E+02 0.  0.
         23    2    1    2    0    0  0.13183252478E+03  0.23884433543E+02  0.44803144687E+03  0.47609469938E+03  0.89351578799E+02 0.  0.
        -13    1    4    4    0    0  0.80180316011E+02 -0.21550874768E+02  0.16359220206E+03  0.18345498591E+03  0.00000000000E+00 0.  1.
         13    1    4    4    0    0  0.51652208773E+02  0.45435308311E+02  0.28443924481E+03  0.29263971347E+03  0.00000000000E+00 0. -1.
        -13    1    3    3    0    0 -0.89239496852E+02 -0.11366445940E+02  0.11806697575E+03  0.14843414248E+03  0.00000000000E+00 0. -1.
         13    1    3    3    0    0 -0.16329141642E+02 -0.14534036294E+02 -0.11049412162E+02  0.24494256202E+02  0.00000000000E+00 0.  1.
         21    1    1    2  502  501 -0.26263886290E+02  0.20160486912E+01  0.36022596283E+01  0.26586320727E+02  0.00000000000E+00 0.  1.
<scales pt_clust_5="13000.00000" pt_clust_6="13000.00000" pt_clust_7="13000.00000" pt_clust_8="13000.00000" pt_clust_9="26.34115"></scales>
<clustering>
<clus scale="   26.341">  2  9  1 -1</clus>
<clus scale="   81.461">  7  8 -1 -1</clus>
<clus scale="   89.352">  5  6 -1 -1</clus>
<clus scale="  150.362">  2  7  1 -1</clus>
<clus scale="  154.779">  1  5  2 -1</clus>
</clustering>
</event>
<event>
 9    1  0.1612788E-005  0.1650367E+03  0.7546771E-02  0.1183343E+00
          1   -1    0    0  502    0  0.00000000000E+00  0.00000000000E+00  0.12599572798E+04  0.12599572798E+04  0.00000000000E+00 0. -1.
         -1   -1    0    0    0  501 -0.00000000000E+00 -0.00000000000E+00 -0.33315502194E+02  0.33315502194E+02  0.00000000000E+00 0.  1.
         23    2    1    2    0    0  0.13344395327E+03 -0.56128908064E+02  0.43981013499E+03  0.47221482784E+03  0.92715402242E+02 0.  0.
         23    2    1    2    0    0 -0.99874781369E+02  0.87934146691E+02  0.72905811007E+03  0.74705630843E+03  0.94127647393E+02 0.  0.
        -11    1    4    4    0    0 -0.78830898060E+02  0.96567153458E+01  0.29552416998E+03  0.30600996337E+03  0.00000000000E+00 0. -1.
         11    1    4    4    0    0 -0.21043883309E+02  0.78277431345E+02  0.43353394009E+03  0.44104634506E+03  0.00000000000E+00 0.  1.
        -11    1    3    3    0    0  0.13415760840E+03 -0.28952283261E+02  0.30164354750E+03  0.33139904699E+03  0.00000000000E+00 0.  1.
         11    1    3    3    0    0 -0.71365513228E+00 -0.27176624802E+02  0.13816658748E+03  0.14081578085E+03  0.00000000000E+00 0. -1.
         21    1    1    2  502  501 -0.33569171900E+02 -0.31805238627E+02  0.57773532560E+02  0.74001645729E+02  0.00000000000E+00 0.  1.
<scales pt_clust_5="13000.00000" pt_clust_6="13000.00000" pt_clust_7="13000.00000" pt_clust_8="13000.00000" pt_clust_9="46.24351"></scales>
<clustering>
<clus scale="   46.244">  2  9  1 -1</clus>
<clus scale="   92.715">  7  8 -1 -1</clus>
<clus scale="   94.128">  5  6 -1 -1</clus>
<clus scale="  164.235">  2  7  1 -1</clus>
<clus scale="  165.037">  1  5  2 -1</clus>
</clustering>
</event>
<event>
 9    1  0.1612788E-005  0.1214909E+03  0.7546771E-02  0.1243463E+00
         -1   -1    0    0    0  501 -0.00000000000E+00  0.00000000000E+00  0.56778953375E+02  0.56778953375E+02  0.00000000000E+00 0.  1.
          1   -1    0    0  502    0  0.00000000000E+00 -0.00000000000E+00 -0.35212409018E+03  0.35212409018E+03  0.00000000000E+00 0. -1.
         23    2    1    2    0    0  0.33038520667E+02 -0.48049965971E+02 -0.60161695156E+02  0.12824028647E+03  0.97086551239E+02 0.  0.
         23    2    1    2    0    0 -0.32442873679E+02  0.72924914014E+02 -0.22320881055E+03  0.25304918025E+03  0.88550163103E+02 0.  0.
        -11    1    4    4    0    0 -0.36092238753E+02 -0.46140599925E+01 -0.10936807014E+03  0.11526193653E+03  0.00000000000E+00 0.  1.
         11    1    4    4    0    0  0.36493650741E+01  0.77538974007E+02 -0.11384074041E+03  0.13778724372E+03  0.00000000000E+00 0. -1.
        -11    1    3    3    0    0 -0.29310738272E+02 -0.14642368362E+02 -0.45388121866E+02  0.55978566754E+02  0.00000000000E+00 0.  1.
         11    1    3    3    0    0  0.62349258939E+02 -0.33407597609E+02 -0.14773573290E+02  0.72261719714E+02  0.00000000000E+00 0. -1.
         21    1    1    2  502  501 -0.59564698785E+00 -0.24874948043E+02 -0.11974631106E+02  0.27613576835E+02  0.00000000000E+00 0.  1.
<scales pt_clust_5="13000.00000" pt_clust_6="13000.00000" pt_clust_7="13000.00000" pt_clust_8="13000.00000" pt_clust_9="24.88208"></scales>
<clustering>
<clus scale="   24.882">  1  9  2 -1</clus>
<clus scale="   88.550">  5  6 -1 -1</clus>
<clus scale="   97.087">  7  8 -1 -1</clus>
<clus scale="  114.784">  2  5  1 -1</clus>
<clus scale="  114.784">  2  5  1 -1</clus>
</clustering>
</event>
<event>
 9    1  0.1612788E-005  0.1087517E+03  0.7546771E-02  0.1262960E+00
          1   -1    0    0  502    0  0.00000000000E+00  0.00000000000E+00  0.18984899535E+03  0.18984899535E+03  0.00000000000E+00 0. -1.
         -1   -1    0    0    0  501 -0.00000000000E+00 -0.00000000000E+00 -0.87788980862E+02  0.87788980862E+02  0.00000000000E+00 0.  1.
         23    2    1    2    0    0 -0.21198306664E+02 -0.47868632415E+02  0.22064224542E+02  0.10882185059E+03  0.92814820947E+02 0.  0.
         23    2    1    2    0    0  0.43436182920E+02  0.42512353857E+02  0.91037196582E+02  0.14341680435E+03  0.92663943323E+02 0.  0.
        -11    1    3    3    0    0  0.34447492585E+02 -0.18278237250E+02  0.23960230829E+02  0.45769163896E+02  0.00000000000E+00 0. -1.
         11    1    3    3    0    0 -0.55645799249E+02 -0.29590395165E+02 -0.18960062867E+01  0.63052686698E+02  0.00000000000E+00 0.  1.
        -11    1    4    4    0    0  0.19826633746E+02 -0.10373728251E+02 -0.11870836502E+02  0.25330345493E+02  0.00000000000E+00 0.  1.
         11    1    4    4    0    0  0.23609549174E+02  0.52886082108E+02  0.10290803308E+03  0.11808645886E+03  0.00000000000E+00 0. -1.
         21    1    1    2  502  501 -0.22237876257E+02  0.53562785582E+01 -0.11041406633E+02  0.25399321267E+02  0.00000000000E+00 0. -1.
<scales pt_clust_5="13000.00000" pt_clust_6="13000.00000" pt_clust_7="13000.00000" pt_clust_8="13000.00000" pt_clust_9="22.87385"></scales>
<clustering>
<clus scale="   22.874">  2  9  1 -1</clus>
<clus scale="   92.664">  7  8 -1 -1</clus>
<clus scale="   92.815">  5  6 -1 -1</clus>
<clus scale="  108.623">  1  7  2 -1</clus>
<clus scale="  108.623">  1  5  2 -1</clus>
</clustering>
</event>
<event>
 9    1  0.1612788E-005  0.1090358E+03  0.7546771E-02  0.1262544E+00
          2   -1    0    0  502    0  0.00000000000E+00  0.00000000000E+00  0.41617531911E+03  0.41617531911E+03  0.00000000000E+00 0. -1.
         -2   -1    0    0    0  501 -0.00000000000E+00 -0.00000000000E+00 -0.58433632694E+02  0.58433632694E+02  0.00000000000E+00 0.  1.
         23    2    1    2    0    0 -0.15106286532E+02 -0.48529390284E+02  0.38464308553E+02  0.11095061500E+03  0.90814284793E+02 0.  0.
         23    2    1    2    0    0  0.14069282777E+02  0.92523304165E+02  0.23888822968E+03  0.27201252413E+03  0.90358842792E+02 0.  0.
        -11    1    4    4    0    0  0.48629127320E+02  0.58513634545E+02  0.18200830199E+03  0.19727052351E+03  0.00000000000E+00 0.  1.
         11    1    4    4    0    0 -0.34559844544E+02  0.34009669620E+02  0.56879927690E+02  0.74742000620E+02  0.00000000000E+00 0. -1.
        -13    1    3    3    0    0  0.33549206067E+02 -0.35225763556E+02  0.19588479834E+01  0.48685118170E+02  0.00000000000E+00 0.  1.
         13    1    3    3    0    0 -0.48655492599E+02 -0.13303626729E+02  0.36505460569E+02  0.62265496831E+02  0.00000000000E+00 0. -1.
         21    1    1    2  502  501  0.10370037557E+01 -0.43993913881E+02  0.80389148179E+02  0.91645812672E+02  0.00000000000E+00 0.  1.
<scales pt_clust_5="13000.00000" pt_clust_6="13000.00000" pt_clust_7="13000.00000" pt_clust_8="13000.00000" pt_clust_9="44.00613"></scales>
<clustering>
<clus scale="   44.006">  1  9  2 -1</clus>
<clus scale="   90.359">  5  6 -1 -1</clus>
<clus scale="   90.814">  7  8 -1 -1</clus>
<clus scale="  108.657">  1  5  2 -1</clus>
<clus scale="   44.006">  1  5  2 -1</clus>
</clustering>
</event>
<event>
 9    1  0.1612788E-005  0.1683797E+03  0.7546771E-02  0.1179679E+00
         -1   -1    0    0    0  501 -0.00000000000E+00  0.00000000000E+00  0.11857468769E+03  0.11857468769E+03  0.00000000000E+00 0.  1.
          1   -1    0    0  502    0  0.00000000000E+00 -0.00000000000E+00 -0.39940687341E+03  0.39940687341E+03  0.00000000000E+00 0. -1.
         23    2    1    2    0    0  0.13368525209E+02 -0.15692046343E+03 -0.67840878511E+02  0.19416499475E+03  0.91076402430E+02 0.  0.
         23    2    1    2    0    0 -0.73714811672E+02  0.11805723022E+03 -0.18023577392E+03  0.24491821310E+03  0.90158825631E+02 0.  0.
        -11    1    4    4    0    0 -0.61992317087E+02  0.45041984432E+02 -0.14273376150E+03  0.16200232842E+03  0.00000000000E+00 0.  1.
         11    1    4    4    0    0 -0.11722494585E+02  0.73015245792E+02 -0.37502012415E+02  0.82915884681E+02  0.00000000000E+00 0. -1.
        -13    1    3    3    0    0  0.10262828323E+02 -0.22267152382E+02 -0.53330353599E+02  0.58696493382E+02  0.00000000000E+00 0. -1.
         13    1    3    3    0    0  0.31056968860E+01 -0.13465331105E+03 -0.14510524912E+02  0.13546850137E+03  0.00000000000E+00 0.  1.
         21    1    1    2  502  501  0.60346286463E+02  0.38863233207E+02 -0.32755533283E+02  0.78898353252E+02  0.00000000000E+00 0. -1.
<scales pt_clust_5="13000.00000" pt_clust_6="13000.00000" pt_clust_7="13000.00000" pt_clust_8="13000.00000" pt_clust_9="71.77761"></scales>
<clustering>
<clus scale="   71.778">  1  9  2 -1</clus>
<clus scale="   90.159">  5  6 -1 -1</clus>
<clus scale="   91.076">  7  8 -1 -1</clus>
<clus scale="  167.885">  2  5  1 -1</clus>
<clus scale="  167.885">  2  5  1 -1</clus>
</clustering>
</event>
<event>
 9    1  0.1612788E-005  0.1142092E+03  0.7546771E-02  0.1258180E+00
          2   -1    0    0  502    0  0.00000000000E+00  0.00000000000E+00  0.94245077738E+02  0.94245077738E+02  0.00000000000E+00 0. -1.
         -2   -1    0    0    0  501 -0.00000000000E+00 -0.00000000000E+00 -0.21628505931E+03  0.21628505931E+03  0.00000000000E+00 0.  1.
         23    2    1    2    0    0 -0.50896085735E+02  0.92521435113E+01 -0.86336487655E+02  0.13609962431E+03  0.91613890514E+02 0.  0.
         23    2    1    2    0    0  0.36270675781E+02  0.40277223859E+02 -0.13059943436E+02  0.11804087515E+03  0.10404455488E+03 0.  0.
        -11    1    3    3    0    0 -0.76811040505E+02  0.51856132996E+01 -0.75142743356E+02  0.10757907979E+03  0.00000000000E+00 0.  1.
         11    1    3    3    0    0  0.25914954770E+02  0.40665302117E+01 -0.11193744299E+02  0.28520544527E+02  0.00000000000E+00 0. -1.
        -13    1    4    4    0    0  0.22250523600E+02 -0.31873307595E+02 -0.20882562381E+02  0.44125672223E+02  0.00000000000E+00 0.  1.
         13    1    4    4    0    0  0.14020152182E+02  0.72150531455E+02  0.78226189448E+01  0.73915202926E+02  0.00000000000E+00 0. -1.
         21    1    1    2  502  501  0.14625409954E+02 -0.49529367371E+02 -0.22643550480E+02  0.56389637583E+02  0.00000000000E+00 0. -1.
<scales pt_clust_5="13000.00000" pt_clust_6="13000.00000" pt_clust_7="13000.00000" pt_clust_8="13000.00000" pt_clust_9="51.64359"></scales>
<clustering>
<clus scale="   51.644">  2  9  1 -1</clus>
<clus scale="   91.614">  5  6 -1 -1</clus>
<clus scale="  103.012">  2  5  1 -1</clus>
<clus scale="  104.045">  7  8 -1 -1</clus>
<clus scale="  114.209">  1  5  2 -1</clus>
</clustering>
</event>
<event>
 9    1  0.1612788E-005  0.1548718E+03  0.7546771E-02  0.1199962E+00
          1   -1    0    0  502    0  0.00000000000E+00  0.00000000000E+00  0.12037797933E+03  0.12037797933E+03  0.00000000000E+00 0. -1.
         -1   -1    0    0    0  501 -0.00000000000E+00 -0.00000000000E+00 -0.79106540339E+03  0.79106540339E+03  0.00000000000E+00 0.  1.
         23    2    1    2    0    0 -0.67567207961E+02 -0.85877681052E+02 -0.56121996161E+03  0.57908356165E+03  0.91812974936E+02 0.  0.
         23    2    1    2    0    0  0.27792541809E+02  0.99043933437E+02  0.53635489735E+02  0.16396164032E+03  0.11586426371E+03 0.  0.
        -11    1    4    4    0    0  0.21418517985E+02  0.20221603144E+01 -0.29172234719E+02  0.36247225045E+02  0.00000000000E+00 0.  1.
         11    1    4    4    0    0  0.63740238243E+01  0.97021773123E+02  0.82807724454E+02  0.12771441527E+03  0.00000000000E+00 0. -1.
        -13    1    3    3    0    0 -0.45668087226E+02  0.29932329187E+01 -0.26897089547E+03  0.27283672085E+03  0.00000000000E+00 0. -1.
         13    1    3    3    0    0 -0.21899120735E+02 -0.88870913971E+02 -0.29224906614E+03  0.30624684080E+03  0.00000000000E+00 0.  1.
         21    1    1    2  502  501  0.39774666152E+02 -0.13166252385E+02 -0.16310295218E+03  0.16839818075E+03  0.00000000000E+00 0. -1.
<scales pt_clust_5="13000.00000" pt_clust_6="13000.00000" pt_clust_7="13000.00000" pt_clust_8="13000.00000" pt_clust_9="41.89719"></scales>
<clustering>
<clus scale="   41.897">  2  9  1 -1</clus>
<clus scale="   91.813">  7  8 -1 -1</clus>
<clus scale="  115.864">  5  6 -1 -1</clus>
<clus scale="  137.806">  2  7  1 -1</clus>
<clus scale="  154.872">  1  5  2 -1</clus>
</clustering>
</event>
<event>
 9    1  0.1612788E-005  0.1293673E+03  0.7546771E-02  0.1228678E+00
         -2   -1    0    0    0  501 -0.00000000000E+00  0.00000000000E+00  0.46059511186E+02  0.46059511186E+02  0.00000000000E+00 0.  1.
          2   -1    0    0  502    0  0.00000000000E+00 -0.00000000000E+00 -0.48106820125E+03  0.48106820125E+03  0.00000000000E+00 0. -1.
         23    2    1    2    0    0 -0.50268264746E+02  0.82982193408E+02 -0.16879458692E+03  0.21478248747E+03  0.90702599112E+02 0.  0.
         23    2    1    2    0    0  0.14636139502E+02 -0.89081129132E+02 -0.20840469331E+03  0.24416331218E+03  0.89630032210E+02 0.  0.
        -11    1    3    3    0    0  0.21037215700E+02  0.10742007725E+02 -0.86018929637E+01  0.25138570701E+02  0.00000000000E+00 0. -1.
         11    1    3    3    0    0 -0.71305480446E+02  0.72240185684E+02 -0.16019269396E+03  0.18964391677E+03  0.00000000000E+00 0.  1.
        -13    1    4    4    0    0  0.54965250455E+01 -0.62732757689E+02 -0.42598143949E+02  0.76027709046E+02  0.00000000000E+00 0. -1.
         13    1    4    4    0    0  0.91396144563E+01 -0.26348371443E+02 -0.16580654936E+03  0.16813560314E+03  0.00000000000E+00 0.  1.
         21    1    1    2  502  501  0.35632125244E+02  0.60989357238E+01 -0.57809409831E+02  0.68181912788E+02  0.00000000000E+00 0. -1.
<scales pt_clust_5="13000.00000" pt_clust_6="13000.00000" pt_clust_7="13000.00000" pt_clust_8="13000.00000" pt_clust_9="36.15032"></scales>
<clustering>
<clus scale="   36.150">  2  9  1 -1</clus>
<clus scale="   89.630">  7  8 -1 -1</clus>
<clus scale="   90.703">  5  6 -1 -1</clus>
<clus scale="  128.618">  2  7  1 -1</clus>
<clus scale="   36.150">  2  5  1 -1</clus>
</clustering>
</event>
<event>
 9    1  0.1612788E-005  0.1133363E+03  0.7546771E-02  0.1255030E+00
          1   -1    0    0  502    0  0.00000000000E+00  0.00000000000E+00  0.67868286795E+03  0.67868286795E+03  0.00000000000E+00 0. -1.
         -1   -1    0    0    0  501 -0.00000000000E+00 -0.00000000000E+00 -0.26374421968E+02  0.26374421968E+02  0.00000000000E+00 0.  1.
         23    2    1    2    0    0  0.84681375018E+01  0.49403739870E+02  0.25042896525E+03  0.27114665518E+03  0.91068123474E+02 0.  0.
         23    2    1    2    0    0 -0.17291737238E+02 -0.78242020172E+02  0.37136973093E+03  0.39101136719E+03  0.92485643885E+02 0.  0.
        -11    1    3    3    0    0  0.32016645503E+02  0.53847234714E+02  0.23362378352E+03  0.24187737079E+03  0.00000000000E+00 0.  1.
         11    1    3    3    0    0 -0.23548508001E+02 -0.44434948435E+01  0.16805181728E+02  0.29269284385E+02  0.00000000000E+00 0. -1.
        -11    1    4    4    0    0  0.19853337521E+02  0.12667969079E+02  0.57478166402E+02  0.62115795610E+02  0.00000000000E+00 0.  1.
         11    1    4    4    0    0 -0.37145074759E+02 -0.90909989251E+02  0.31389156453E+03  0.32889557159E+03  0.00000000000E+00 0. -1.
         21    1    1    2  502  501  0.88235997359E+01  0.28838280302E+02  0.30509749800E+02  0.42899267545E+02  0.00000000000E+00 0. -1.
<scales pt_clust_5="13000.00000" pt_clust_6="13000.00000" pt_clust_7="13000.00000" pt_clust_8="13000.00000" pt_clust_9="30.15796"></scales>
<clustering>
<clus scale="   30.158">  2  9  1 -1</clus>
<clus scale="   91.068">  5  6 -1 -1</clus>
<clus scale="   92.486">  7  8 -1 -1</clus>
<clus scale="  112.183">  2  5  1 -1</clus>
<clus scale="  113.336">  1  5  2 -1</clus>
</clustering>
</event>
<event>
 9    1  0.1612788E-005  0.9685458E+02  0.7546771E-02  0.1288750E+00
         -1   -1    0    0    0  501 -0.00000000000E+00  0.00000000000E+00  0.18170809760E+03  0.18170809760E+03  0.00000000000E+00 0.  1.
          1   -1    0    0  502    0  0.00000000000E+00 -0.00000000000E+00 -0.13184106601E+03  0.13184106601E+03  0.00000000000E+00 0. -1.
         23    2    1    2    0    0 -0.17429417454E+02  0.37465239081E+01  0.88988420456E+02  0.12882495972E+03  0.91428169830E+02 0.  0.
         23    2    1    2    0    0  0.75907650464E+02 -0.18701264982E+02 -0.11742288294E+02  0.11844477145E+03  0.88201892485E+02 0.  0.
        -11    1    4    4    0    0 -0.18613217718E+02 -0.88231381466E+01 -0.11117184235E+02  0.23407080678E+02  0.00000000000E+00 0.  1.
         11    1    4    4    0    0  0.94520868182E+02 -0.98781268356E+01 -0.62510405966E+00  0.95037690769E+02  0.00000000000E+00 0. -1.
        -11    1    3    3    0    0  0.16362343272E+01  0.44825662578E+02  0.28061473176E+02  0.52909957145E+02  0.00000000000E+00 0.  1.
         11    1    3    3    0    0 -0.19065651781E+02 -0.41079138670E+02  0.60926947281E+02  0.75915002579E+02  0.00000000000E+00 0. -1.
         21    1    1    2  502  501 -0.58478233010E+02  0.14954741074E+02 -0.27379100569E+02  0.66279432440E+02  0.00000000000E+00 0.  1.
<scales pt_clust_5="13000.00000" pt_clust_6="13000.00000" pt_clust_7="13000.00000" pt_clust_8="13000.00000" pt_clust_9="60.36015"></scales>
<clustering>
<clus scale="   60.360">  2  9  1 -1</clus>
<clus scale="   88.202">  5  6 -1 -1</clus>
<clus scale="   91.428">  7  8 -1 -1</clus>
<clus scale="   93.815">  2  5  1 -1</clus>
<clus scale="   60.360">  2  5  1 -1</clus>
</clustering>
</event>
<event>
 9    1  0.1612788E-005  0.9680335E+02  0.7546771E-02  0.1287676E+00
          2   -1    0    0  502    0  0.00000000000E+00  0.00000000000E+00  0.21016311716E+03  0.21016311716E+03  0.00000000000E+00 0. -1.
         -2   -1    0    0    0  501 -0.00000000000E+00 -0.00000000000E+00 -0.66101979883E+02  0.66101979883E+02  0.00000000000E+00 0.  1.
         23    2    1    2    0    0 -0.13864478010E+02 -0.44922110180E+01  0.58198635015E+02  0.10992756811E+03  0.92111809246E+02 0.  0.
         23    2    1    2    0    0  0.30481938181E+02  0.20489849621E+02  0.98185027154E+02  0.14018587424E+03  0.93074149401E+02 0.  0.
        -11    1    4    4    0    0 -0.16018942126E+02 -0.16646168342E+02 -0.24919762371E+01  0.23235993047E+02  0.00000000000E+00 0.  1.
         11    1    4    4    0    0  0.46500880307E+02  0.37136017963E+02  0.10067700339E+03  0.11694988119E+03  0.00000000000E+00 0. -1.
        -11    1    3    3    0    0  0.22145065613E+02 -0.37953127715E+02  0.30690215227E+02  0.53597883773E+02  0.00000000000E+00 0.  1.
         11    1    3    3    0    0 -0.36009543623E+02  0.33460916697E+02  0.27508419789E+02  0.56329684336E+02  0.00000000000E+00 0. -1.
         21    1    1    2  502  501 -0.16617460171E+02 -0.15997638603E+02 -0.12322524893E+02  0.26151654692E+02  0.00000000000E+00 0.  1.
<scales pt_clust_5="13000.00000" pt_clust_6="13000.00000" pt_clust_7="13000.00000" pt_clust_8="13000.00000" pt_clust_9="23.06652"></scales>
<clustering>
<clus scale="   23.067">  2  9  1 -1</clus>
<clus scale="   92.112">  7  8 -1 -1</clus>
<clus scale="   93.074">  5  6 -1 -1</clus>
<clus scale="   95.878">  2  7  1 -1</clus>
<clus scale="   96.803">  1  5  2 -1</clus>
</clustering>
</event>
<event>
 9    1  0.1612788E-005  0.1050582E+03  0.7546771E-02  0.1272158E+00
         -1   -1    0    0    0  501 -0.00000000000E+00  0.00000000000E+00  0.39430762861E+03  0.39430762861E+03  0.00000000000E+00 0.  1.
          1   -1    0    0  502    0  0.00000000000E+00 -0.00000000000E+00 -0.36316811757E+02  0.36316811757E+02  0.00000000000E+00 0. -1.
         23    2    1    2    0    0  0.56299806436E+02  0.85452696344E+01  0.21790190171E+03  0.24434100013E+03  0.94755452290E+02 0.  0.
         23    2    1    2    0    0 -0.39834168109E+02  0.44232720007E+01  0.96417897684E+02  0.13784318752E+03  0.89988927467E+02 0.  0.
        -11    1    4    4    0    0 -0.12280359935E+02  0.24766133138E+02  0.99676542191E+02  0.10343878216E+03  0.00000000000E+00 0.  1.
         11    1    4    4    0    0 -0.27553808174E+02 -0.20342861138E+02 -0.32586445064E+01  0.34404405360E+02  0.00000000000E+00 0. -1.
        -11    1    3    3    0    0  0.79725297787E+02  0.10772554003E+02  0.19727780546E+03  0.21305094122E+03  0.00000000000E+00 0.  1.
         11    1    3    3    0    0 -0.23425491351E+02 -0.22272843688E+01  0.20624096251E+02  0.31290058914E+02  0.00000000000E+00 0. -1.
         21    1    1    2  502  501 -0.16465638327E+02 -0.12968541635E+02  0.43671017457E+02  0.48440252718E+02  0.00000000000E+00 0. -1.
<scales pt_clust_5="13000.00000" pt_clust_6="13000.00000" pt_clust_7="13000.00000" pt_clust_8="13000.00000" pt_clust_9="20.95949"></scales>
<clustering>
<clus scale="   20.959">  1  9  2 -1</clus>
<clus scale="   89.989">  5  6 -1 -1</clus>
<clus scale="   94.755">  7  8 -1 -1</clus>
<clus scale="  100.780">  2  5  1 -1</clus>
<clus scale="  100.780">  2  5  1 -1</clus>
</clustering>
</event>
<event>
 9    1  0.1612788E-005  0.1452654E+03  0.7546771E-02  0.1207413E+00
          2   -1    0    0  502    0  0.00000000000E+00  0.00000000000E+00  0.22247859235E+03  0.22247859235E+03  0.00000000000E+00 0. -1.
         -2   -1    0    0    0  501 -0.00000000000E+00 -0.00000000000E+00 -0.12879421731E+03  0.12879421731E+03  0.00000000000E+00 0.  1.
         23    2    1    2    0    0  0.11134647063E+03  0.59916503357E+02 -0.13233064259E+02  0.15421375561E+03  0.87285419939E+02 0.  0.
         23    2    1    2    0    0 -0.94640435647E+02 -0.48456033867E+02  0.10699872795E+03  0.17679972104E+03  0.92220465732E+02 0.  0.
        -11    1    4    4    0    0 -0.76952840433E+01 -0.49201636179E+02  0.59957520094E+02  0.77941789914E+02  0.00000000000E+00 0.  1.
         11    1    4    4    0    0 -0.86945151604E+02  0.74560231225E+00  0.47041207858E+02  0.98857931128E+02  0.00000000000E+00 0. -1.
        -11    1    3    3    0    0  0.11276251786E+03  0.23013443752E+02 -0.19584302055E+02  0.11674137619E+03  0.00000000000E+00 0.  1.
         11    1    3    3    0    0 -0.14160472311E+01  0.36903059605E+02  0.63512377953E+01  0.37472379421E+02  0.00000000000E+00 0. -1.
         21    1    1    2  502  501 -0.16706034985E+02 -0.11460469490E+02 -0.81288657275E-01  0.20259333002E+02  0.00000000000E+00 0.  1.
<scales pt_clust_5="13000.00000" pt_clust_6="13000.00000" pt_clust_7="13000.00000" pt_clust_8="13000.00000" pt_clust_9="20.25917"></scales>
<clustering>
<clus scale="   20.259">  2  9  1 -1</clus>
<clus scale="   87.285">  7  8 -1 -1</clus>
<clus scale="   92.220">  5  6 -1 -1</clus>
<clus scale="  142.184">  2  7  1 -1</clus>
<clus scale="  145.265">  1  5  2 -1</clus>
</clustering>
</event>
<event>
 9    1  0.1612788E-005  0.2240353E+03  0.7546771E-02  0.1130935E+00
          2   -1    0    0  502    0  0.00000000000E+00  0.00000000000E+00  0.88777502961E+03  0.88777502961E+03  0.00000000000E+00 0. -1.
         -2   -1    0    0    0  501 -0.00000000000E+00 -0.00000000000E+00 -0.91302684464E+02  0.91302684464E+02  0.00000000000E+00 0.  1.
         23    2    1    2    0    0 -0.78896679934E+02 -0.15068966398E+03  0.13371835995E+03  0.23479259811E+03  0.91186092160E+02 0.  0.
         23    2    1    2    0    0  0.14466996894E+03  0.16757680538E+03  0.61863288430E+03  0.66330380556E+03  0.90851017117E+02 0.  0.
        -13    1    4    4    0    0  0.46574239626E+01  0.27716817405E+02  0.25221477872E+02  0.37762898606E+02  0.00000000000E+00 0.  1.
         13    1    4    4    0    0  0.14001254498E+03  0.13985998797E+03  0.59341140643E+03  0.62554090695E+03  0.00000000000E+00 0. -1.
        -13    1    3    3    0    0 -0.32239787924E+02 -0.39725355759E+02 -0.46732170484E+01  0.51374573216E+02  0.00000000000E+00 0.  1.
         13    1    3    3    0    0 -0.46656892010E+02 -0.11096430822E+03  0.13839157700E+03  0.18341802489E+03  0.00000000000E+00 0. -1.
         21    1    1    2  502  501 -0.65773289009E+02 -0.16887141395E+02  0.44121100892E+02  0.80981310409E+02  0.00000000000E+00 0.  1.
<scales pt_clust_5="13000.00000" pt_clust_6="13000.00000" pt_clust_7="13000.00000" pt_clust_8="13000.00000" pt_clust_9="67.90656"></scales>
<clustering>
<clus scale="   67.907">  2  9  1 -1</clus>
<clus scale="   90.851">  5  6 -1 -1</clus>
<clus scale="   91.186">  7  8 -1 -1</clus>
<clus scale="  223.899">  1  5  2 -1</clus>
<clus scale="  223.899">  1  5  2 -1</clus>
</clustering>
</event>
<event>
 9    1  0.1612788E-005  0.1979554E+03  0.7546771E-02  0.1174977E+00
          1   -1    0    0  502    0  0.00000000000E+00  0.00000000000E+00  0.36212516210E+03  0.36212516210E+03  0.00000000000E+00 0. -1.
         -1   -1    0    0    0  501 -0.00000000000E+00 -0.00000000000E+00 -0.70994912542E+03  0.70994912542E+03  0.00000000000E+00 0.  1.
         23    2    1    2    0    0  0.16338935020E+03 -0.10811630367E+03 -0.44985156438E+03  0.50011834084E+03  0.96781764779E+02 0.  0.
         23    2    1    2    0    0 -0.66086479654E+02 -0.92837504368E+01  0.30047510005E+03  0.32169202364E+03  0.93524657201E+02 0.  0.
        -11    1    3    3    0    0  0.76646019318E+02 -0.41502693161E+02 -0.95607376138E+02  0.12937486691E+03  0.00000000000E+00 0. -1.
         11    1    3    3    0    0  0.86743330879E+02 -0.66613610513E+02 -0.35424418824E+03  0.37074347393E+03  0.00000000000E+00 0.  1.
        -11    1    4    4    0    0 -0.19832951536E+02  0.32416695596E+02  0.45800175453E+02  0.59513395059E+02  0.00000000000E+00 0.  1.
         11    1    4    4    0    0 -0.46253528117E+02 -0.41700446033E+02  0.25467492460E+03  0.26217862858E+03  0.00000000000E+00 0. -1.
         21    1    1    2  502  501 -0.97302870543E+02  0.11740005411E+03 -0.19844749900E+03  0.25026392305E+03  0.00000000000E+00 0. -1.
<scales pt_clust_5="13000.00000" pt_clust_6="13000.00000" pt_clust_7="13000.00000" pt_clust_8="13000.00000" pt_clust_9="172.68366"></scales>
<clustering>
<clus scale="   93.525">  7  8 -1 -1</clus>
<clus scale="   96.782">  5  6 -1 -1</clus>
<clus scale="  114.893">  1  7  2 -1</clus>
<clus scale="  172.684">  1  9  2 -1</clus>
<clus scale="  114.893">  1  5  2 -1</clus>
</clustering>
</event>
<event>
 9    1  0.1612788E-005  0.9508023E+02  0.7546771E-02  0.1292323E+00
         -2   -1    0    0    0  501 -0.00000000000E+00  0.00000000000E+00  0.51764213324E+03  0.51764213324E+03  0.00000000000E+00 0.  1.
          2   -1    0    0  502    0  0.00000000000E+00 -0.00000000000E+00 -0.27508260166E+02  0.27508260166E+02  0.00000000000E+00 0. -1.
         23    2    1    2    0    0 -0.63301359534E+01  0.35762415255E+02  0.19061074636E+03  0.21228146910E+03  0.86092650845E+02 0.  0.
         23    2    1    2    0    0 -0.23017905204E+02 -0.30751533054E+02  0.13682582262E+03  0.16746992425E+03  0.88596777860E+02 0.  0.
        -11    1    4    4    0    0  0.31331459199E+02  0.44441907807E+01  0.49666656943E+02  0.58891323462E+02  0.00000000000E+00 0.  1.
         11    1    4    4    0    0 -0.54349364403E+02 -0.35195723835E+02  0.87159165677E+02  0.10857860079E+03  0.00000000000E+00 0. -1.
        -13    1    3    3    0    0 -0.17633371886E+02  0.52510759018E+02  0.18213176522E+03  0.19036884072E+03  0.00000000000E+00 0.  1.
         13    1    3    3    0    0  0.11303235933E+02 -0.16748343762E+02  0.84789811465E+01  0.21912628382E+02  0.00000000000E+00 0. -1.
         21    1    1    2  502  501  0.29348041158E+02 -0.50108822011E+01  0.16269730409E+03  0.16539900005E+03  0.00000000000E+00 0. -1.
<scales pt_clust_5="13000.00000" pt_clust_6="13000.00000" pt_clust_7="13000.00000" pt_clust_8="13000.00000" pt_clust_9="29.77275"></scales>
<clustering>
<clus scale="   29.773">  1  9  2 -1</clus>
<clus scale="   86.093">  7  8 -1 -1</clus>
<clus scale="   88.597">  5  6 -1 -1</clus>
<clus scale="   92.751">  1  7  2 -1</clus>
<clus scale="   95.080">  2  5  1 -1</clus>
</clustering>
</event>
<event>
 9    1  0.1612788E-005  0.1222752E+03  0.7546771E-02  0.1249091E+00
         -2   -1    0    0    0  501 -0.00000000000E+00  0.00000000000E+00  0.22464763523E+02  0.22464763523E+02  0.00000000000E+00 0.  1.
          2   -1    0    0  502    0  0.00000000000E+00 -0.00000000000E+00 -0.93363046794E+03  0.93363046794E+03  0.00000000000E+00 0. -1.
         23    2    1    2    0    0  0.39010000296E+02  0.80745750565E+02 -0.25157345534E+03  0.28166752493E+03  0.89474771932E+02 0.  0.
         23    2    1    2    0    0  0.45458150985E+01 -0.78998906438E+02 -0.45349856782E+03  0.46377451768E+03  0.56252649543E+02 0.  0.
        -11    1    3    3    0    0 -0.13840690080E+02  0.58426446415E+02 -0.75390518170E+02  0.96379170844E+02  0.00000000000E+00 0.  1.
         11    1    3    3    0    0  0.52850690376E+02  0.22319304150E+02 -0.17618293717E+03  0.18528835409E+03  0.00000000000E+00 0. -1.
        -13    1    4    4    0    0  0.29481441815E+02 -0.55336170195E+02 -0.28953059628E+03  0.29624181562E+03  0.00000000000E+00 0. -1.
         13    1    4    4    0    0 -0.24935626716E+02 -0.23662736243E+02 -0.16396797155E+03  0.16753270206E+03  0.00000000000E+00 0.  1.
         21    1    1    2  502  501 -0.43555815394E+02 -0.17468441267E+01 -0.20609368125E+03  0.21065318885E+03  0.00000000000E+00 0. -1.
<scales pt_clust_5="13000.00000" pt_clust_6="13000.00000" pt_clust_7="13000.00000" pt_clust_8="13000.00000" pt_clust_9="43.59083"></scales>
<clustering>
<clus scale="   43.591">  2  9  1 -1</clus>
<clus scale="   56.253">  7  8 -1 -1</clus>
<clus scale="   89.475">  5  6 -1 -1</clus>
<clus scale="  100.548">  2  7  1 -1</clus>
<clus scale="   43.591">  2  5  1 -1</clus>
</clustering>
</event>
<event>
 9    1  0.1612788E-005  0.9141261E+02  0.7546771E-02  0.1300047E+00
         -1   -1    0    0    0  501 -0.00000000000E+00  0.00000000000E+00  0.27354332493E+02  0.27354332493E+02  0.00000000000E+00 0.  1.
          1   -1    0    0  502    0  0.00000000000E+00 -0.00000000000E+00 -0.40640579247E+03  0.40640579247E+03  0.00000000000E+00 0. -1.
         23    2    1    2    0    0  0.27616503091E+01  0.89994169203E+01 -0.12862309177E+03  0.15744382836E+03  0.90310814058E+02 0.  0.
         23    2    1    2    0    0 -0.34345455644E+00  0.13471922803E+02 -0.21861987604E+03  0.23729593072E+03  0.91285803227E+02 0.  0.
        -13    1    3    3    0    0  0.41648847446E+02 -0.27100431475E+01 -0.98196727493E+02  0.10669849164E+03  0.00000000000E+00 0.  1.
         13    1    3    3    0    0 -0.38887197137E+02  0.11709460068E+02 -0.30426364277E+02  0.50745336725E+02  0.00000000000E+00 0. -1.
        -13    1    4    4    0    0 -0.17348227135E+02 -0.32975930905E+02 -0.55548203565E+02  0.66887786053E+02  0.00000000000E+00 0.  1.
         13    1    4    4    0    0  0.17004772579E+02  0.46447853708E+02 -0.16307167247E+03  0.17040814466E+03  0.00000000000E+00 0. -1.
         21    1    1    2  502  501 -0.24181957526E+01 -0.22471339723E+02 -0.31808492168E+02  0.39020365883E+02  0.00000000000E+00 0.  1.
<scales pt_clust_5="13000.00000" pt_clust_6="13000.00000" pt_clust_7="13000.00000" pt_clust_8="13000.00000" pt_clust_9="22.60108"></scales>
<clustering>
<clus scale="   22.601">  1  9  2 -1</clus>
<clus scale="   90.311">  5  6 -1 -1</clus>
<clus scale="   90.439">  1  5  2 -1</clus>
<clus scale="   91.286">  7  8 -1 -1</clus>
<clus scale="   91.413">  2  5  1 -1</clus>
</clustering>
</event>
<event>
 9    1  0.1612788E-005  0.9589958E+02  0.7546771E-02  0.1291872E+00
          1   -1    0    0  502    0  0.00000000000E+00  0.00000000000E+00  0.20996995976E+03  0.20996995976E+03  0.00000000000E+00 0. -1.
         -1   -1    0    0    0  501 -0.00000000000E+00 -0.00000000000E+00 -0.11029937124E+03  0.11029937124E+03  0.00000000000E+00 0.  1.
         23    2    1    2    0    0 -0.43049469563E+02 -0.90643879963E+01  0.85657192133E+00  0.96657725483E+02  0.86061386351E+02 0.  0.
         23    2    1    2    0    0  0.18735061204E+02  0.20196684128E+02  0.14312111356E+03  0.17185991654E+03  0.91067388223E+02 0.  0.
        -11    1    3    3    0    0 -0.65004221355E+02 -0.20857780028E+02 -0.10846597709E+02  0.69124846933E+02  0.00000000000E+00 0.  1.
         11    1    3    3    0    0  0.21954751792E+02  0.11793392032E+02  0.11703169630E+02  0.27532878550E+02  0.00000000000E+00 0. -1.
        -13    1    4    4    0    0  0.54977644496E+02  0.41695625364E+01  0.75615778931E+02  0.93582437825E+02  0.00000000000E+00 0. -1.
         13    1    4    4    0    0 -0.36242583292E+02  0.16027121592E+02  0.67505334629E+02  0.78277478712E+02  0.00000000000E+00 0.  1.
         21    1    1    2  502  501  0.24314408359E+02 -0.11132296132E+02 -0.44307096958E+02  0.51751688976E+02  0.00000000000E+00 0.  1.
<scales pt_clust_5="13000.00000" pt_clust_6="13000.00000" pt_clust_7="13000.00000" pt_clust_8="13000.00000" pt_clust_9="26.74170"></scales>
<clustering>
<clus scale="   26.742">  2  9  1 -1</clus>
<clus scale="   86.061">  5  6 -1 -1</clus>
<clus scale="   91.067">  7  8 -1 -1</clus>
<clus scale="   91.159">  2  5  1 -1</clus>
<clus scale="   95.900">  1  5  2 -1</clus>
</clustering>
</event>
<event>
 9    1  0.1612788E-005  0.9641935E+02  0.7546771E-02  0.1289562E+00
          2   -1    0    0  502    0  0.00000000000E+00  0.00000000000E+00  0.68603340082E+02  0.68603340082E+02  0.00000000000E+00 0. -1.
         -2   -1    0    0    0  501 -0.00000000000E+00 -0.00000000000E+00 -0.20853951123E+03  0.20853951123E+03  0.00000000000E+00 0.  1.
         23    2    1    2    0    0  0.84779324354E+00 -0.47859823731E+02 -0.48570218119E+02  0.11463125229E+03  0.92141068105E+02 0.  0.
         23    2    1    2    0    0 -0.78126592062E+01  0.11290904317E+02 -0.39222343461E+02  0.98443266414E+02  0.89242155462E+02 0.  0.
        -13    1    4    4    0    0  0.38897962443E+02  0.16010961996E+02 -0.10320595642E+02  0.43311858430E+02  0.00000000000E+00 0.  1.
         13    1    4    4    0    0 -0.46710621649E+02 -0.47200576782E+01 -0.28901747819E+02  0.55131407984E+02  0.00000000000E+00 0. -1.
        -13    1    3    3    0    0  0.20742856386E+02 -0.63743691899E+02 -0.56814537745E+02  0.87871588396E+02  0.00000000000E+00 0. -1.
         13    1    3    3    0    0 -0.19895063143E+02  0.15883868168E+02  0.82443196256E+01  0.26759663890E+02  0.00000000000E+00 0.  1.
         21    1    1    2  502  501  0.69648659627E+01  0.36568919414E+02 -0.52143609572E+02  0.64068332616E+02  0.00000000000E+00 0.  1.
<scales pt_clust_5="13000.00000" pt_clust_6="13000.00000" pt_clust_7="13000.00000" pt_clust_8="13000.00000" pt_clust_9="37.22627"></scales>
<clustering>
<clus scale="   37.226">  2  9  1 -1</clus>
<clus scale="   89.242">  5  6 -1 -1</clus>
<clus scale="   92.141">  7  8 -1 -1</clus>
<clus scale="   93.653">  1  5  2 -1</clus>
<clus scale="   93.653">  1  5  2 -1</clus>
</clustering>
</event>
<event>
 9    1  0.1612788E-005  0.1669727E+03  0.7546771E-02  0.1185253E+00
          1   -1    0    0  502    0  0.00000000000E+00  0.00000000000E+00  0.95420284516E+02  0.95420284516E+02  0.00000000000E+00 0. -1.
         -1   -1    0    0    0  501 -0.00000000000E+00 -0.00000000000E+00 -0.46629057208E+03  0.46629057208E+03  0.00000000000E+00 0.  1.
         23    2    1    2    0    0  0.16919315045E+03  0.13808882340E+02 -0.10675097495E+03  0.22075856457E+03  0.92312327373E+02 0.  0.
         23    2    1    2    0    0 -0.11521397721E+03 -0.11481560689E+02 -0.90610299920E+02  0.15922572530E+03  0.61127067372E+02 0.  0.
        -13    1    4    4    0    0 -0.10576437531E+03  0.96164175094E+01 -0.64075815994E+02  0.12403341794E+03  0.00000000000E+00 0.  1.
         13    1    4    4    0    0 -0.94496018990E+01 -0.21097978198E+02 -0.26534483926E+02  0.35192307360E+02  0.00000000000E+00 0. -1.
        -13    1    3    3    0    0  0.47319537243E+02  0.46108902182E+02 -0.25807391851E+02  0.70930888472E+02  0.00000000000E+00 0. -1.
         13    1    3    3    0    0  0.12187361321E+03 -0.32300019843E+02 -0.80943583103E+02  0.14982767610E+03  0.00000000000E+00 0.  1.
         21    1    1    2  502  501 -0.53979173242E+02 -0.23273216509E+01 -0.17350901269E+03  0.18172656673E+03  0.00000000000E+00 0.  1.
<scales pt_clust_5="13000.00000" pt_clust_6="13000.00000" pt_clust_7="13000.00000" pt_clust_8="13000.00000" pt_clust_9="54.02932"></scales>
<clustering>
<clus scale="   54.029">  2  9  1 -1</clus>
<clus scale="   61.127">  5  6 -1 -1</clus>
<clus scale="   92.312">  7  8 -1 -1</clus>
<clus scale="  151.970">  1  5  2 -1</clus>
<clus scale="  151.970">  1  5  2 -1</clus>
</clustering>
</event>
<event>
 9    1  0.1612788E-005  0.9574355E+02  0.7546771E-02  0.1290755E+00
         -1   -1    0    0    0  501 -0.00000000000E+00  0.00000000000E+00  0.32772681009E+03  0.32772681009E+03  0.00000000000E+00 0.  1.
          1   -1    0    0  502    0  0.00000000000E+00 -0.00000000000E+00 -0.54628555569E+02  0.54628555569E+02  0.00000000000E+00 0. -1.
         23    2    1    2    0    0 -0.15931955138E+02 -0.13973311094E+02  0.12194249285E+03  0.15454894482E+03  0.92554438928E+02 0.  0.
         23    2    1    2    0    0  0.25382314376E+02 -0.21260780893E+02  0.29162868615E+02  0.10047607692E+03  0.90270074992E+02 0.  0.
        -11    1    3    3    0    0 -0.38124697953E+02 -0.37081551239E+02  0.39944636629E+02  0.66513968696E+02  0.00000000000E+00 0.  1.
         11    1    3    3    0    0  0.22192742815E+02  0.23108240145E+02  0.81997856224E+02  0.88034976127E+02  0.00000000000E+00 0. -1.
        -11    1    4    4    0    0 -0.16596439135E+02  0.17826405499E+02 -0.14539305661E+02  0.28365717584E+02  0.00000000000E+00 0.  1.
         11    1    4    4    0    0  0.41978753511E+02 -0.39087186392E+02  0.43702174276E+02  0.72110359331E+02  0.00000000000E+00 0. -1.
         21    1    1    2  502  501 -0.94503592382E+01  0.35234091986E+02  0.12199289306E+03  0.12733034392E+03  0.00000000000E+00 0. -1.
<scales pt_clust_5="13000.00000" pt_clust_6="13000.00000" pt_clust_7="13000.00000" pt_clust_8="13000.00000" pt_clust_9="36.47945"></scales>
<clustering>
<clus scale="   36.479">  1  9  2 -1</clus>
<clus scale="   90.270">  7  8 -1 -1</clus>
<clus scale="   92.554">  5  6 -1 -1</clus>
<clus scale="   93.537">  2  7  1 -1</clus>
<clus scale="   93.537">  2  5  1 -1</clus>
</clustering>
</event>
<event>
 9    1  0.1612788E-005  0.1062517E+03  0.7546771E-02  0.1287696E+00
          2   -1    0    0  502    0  0.00000000000E+00  0.00000000000E+00  0.18947977912E+03  0.18947977912E+03  0.00000000000E+00 0. -1.
         -2   -1    0    0    0  501 -0.00000000000E+00 -0.00000000000E+00 -0.69555990543E+02  0.69555990543E+02  0.00000000000E+00 0.  1.
         23    2    1    2    0    0  0.24209922228E+02  0.11616824184E+01  0.60617146004E+02  0.12446978504E+03  0.10597555925E+03 0.  0.
         23    2    1    2    0    0  0.77873855134E+00  0.49091852866E+01  0.75243551411E+02  0.10431249449E+03  0.72074946710E+02 0.  0.
        -13    1    4    4    0    0  0.10475840251E+02 -0.17181935743E+02  0.77510757178E+02  0.80080457187E+02  0.00000000000E+00 0. -1.
         13    1    4    4    0    0 -0.96971016992E+01  0.22091121030E+02 -0.22672057679E+01  0.24232037300E+02  0.00000000000E+00 0.  1.
        -13    1    3    3    0    0 -0.29739019404E+02 -0.24491547618E+01  0.63668414591E+02  0.70314114164E+02  0.00000000000E+00 0.  1.
         13    1    3    3    0    0  0.53948941633E+02  0.36108371802E+01 -0.30512685866E+01  0.54155670879E+02  0.00000000000E+00 0. -1.
         21    1    1    2  502  501 -0.24988660780E+02 -0.60708677049E+01 -0.15936908834E+02  0.30253490137E+02  0.00000000000E+00 0.  1.
<scales pt_clust_5="13000.00000" pt_clust_6="13000.00000" pt_clust_7="13000.00000" pt_clust_8="13000.00000" pt_clust_9="25.71553"></scales>
<clustering>
<clus scale="   25.716">  2  9  1 -1</clus>
<clus scale="   72.075">  5  6 -1 -1</clus>
<clus scale="   72.480">  1  5  2 -1</clus>
<clus scale="  105.976">  7  8 -1 -1</clus>
<clus scale="   72.480">  1  5  2 -1</clus>
</clustering>
</event>
<event>
 9    1  0.1612788E-005  0.1307136E+03  0.7546771E-02  0.1227104E+00
         -2   -1    0    0    0  501 -0.00000000000E+00  0.00000000000E+00  0.38466010970E+02  0.38466010970E+02  0.00000000000E+00 0.  1.
          2   -1    0    0  502    0  0.00000000000E+00 -0.00000000000E+00 -0.57152682267E+03  0.57152682267E+03  0.00000000000E+00 0. -1.
         23    2    1    2    0    0 -0.17807230545E+02 -0.10538227539E+03 -0.26069102954E+03  0.29513572452E+03  0.87879244326E+02 0.  0.
         23    2    1    2    0    0  0.50682253302E+01  0.83931602210E+02 -0.25793606243E+03  0.28603444618E+03  0.90633831095E+02 0.  0.
        -11    1    3    3    0    0 -0.34993229870E+02 -0.60996121353E+02 -0.72431022437E+02  0.10095199834E+03  0.00000000000E+00 0.  1.
         11    1    3    3    0    0  0.17185999325E+02 -0.44386154038E+02 -0.18826000710E+03  0.19418372619E+03  0.00000000000E+00 0. -1.
        -13    1    4    4    0    0 -0.24642245782E+02  0.52677504523E+01 -0.15871581096E+02  0.29780808560E+02  0.00000000000E+00 0.  1.
         13    1    4    4    0    0  0.29710471112E+02  0.78663851758E+02 -0.24206448134E+03  0.25625363762E+03  0.00000000000E+00 0. -1.
         21    1    1    2  502  501  0.12739005215E+02  0.21450673181E+02 -0.14433719736E+02  0.28822662944E+02  0.00000000000E+00 0.  1.
<scales pt_clust_5="13000.00000" pt_clust_6="13000.00000" pt_clust_7="13000.00000" pt_clust_8="13000.00000" pt_clust_9="24.94822"></scales>
<clustering>
<clus scale="   24.948">  1  9  2 -1</clus>
<clus scale="   87.879">  5  6 -1 -1</clus>
<clus scale="   90.634">  7  8 -1 -1</clus>
<clus scale="  128.819">  1  5  2 -1</clus>
<clus scale="  130.714">  2  5  1 -1</clus>
</clustering>
</event>
<event>
 9    1  0.1612788E-005  0.1200317E+03  0.7546771E-02  0.1245436E+00
          2   -1    0    0  502    0  0.00000000000E+00  0.00000000000E+00  0.10142803087E+03  0.10142803087E+03  0.00000000000E+00 0. -1.
         -2   -1    0    0    0  501 -0.00000000000E+00 -0.00000000000E+00 -0.33807450214E+03  0.33807450214E+03  0.00000000000E+00 0.  1.
         23    2    1    2    0    0 -0.49244699772E+01  0.50026533073E+02 -0.24779937479E+03  0.26869637587E+03  0.90919238024E+02 0.  0.
         23    2    1    2    0    0 -0.12759654654E+01 -0.72591119233E+02  0.44747910398E+02  0.12986436389E+03  0.97935074634E+02 0.  0.
        -13    1    3    3    0    0 -0.34197950629E+02  0.51972546291E+01 -0.17467193898E+03  0.17806402655E+03  0.00000000000E+00 0.  1.
         13    1    3    3    0    0  0.29273480652E+02  0.44829278444E+02 -0.73127435802E+02  0.90632349315E+02  0.00000000000E+00 0. -1.
        -13    1    4    4    0    0 -0.46700509552E+02 -0.18855888480E+02  0.27650125554E+02  0.57454430342E+02  0.00000000000E+00 0.  1.
         13    1    4    4    0    0  0.45424544087E+02 -0.53735230752E+02  0.17097784844E+02  0.72409933545E+02  0.00000000000E+00 0. -1.
         21    1    1    2  502  501  0.62004354426E+01  0.22564586159E+02 -0.33595006878E+02  0.40941793260E+02  0.00000000000E+00 0. -1.
<scales pt_clust_5="13000.00000" pt_clust_6="13000.00000" pt_clust_7="13000.00000" pt_clust_8="13000.00000" pt_clust_9="23.40098"></scales>
<clustering>
<clus scale="   23.401">  2  9  1 -1</clus>
<clus scale="   90.919">  5  6 -1 -1</clus>
<clus scale="   97.935">  7  8 -1 -1</clus>
<clus scale="  114.379">  2  5  1 -1</clus>
<clus scale="  120.032">  1  5  2 -1</clus>
</clustering>
</event>
<event>
 9    1  0.1612788E-005  0.1152756E+03  0.7546771E-02  0.1251291E+00
         -2   -1    0    0    0  501 -0.00000000000E+00  0.00000000000E+00  0.23107148286E+03  0.23107148286E+03  0.00000000000E+00 0.  1.
          2   -1    0    0  502    0  0.00000000000E+00 -0.00000000000E+00 -0.11088064403E+03  0.11088064403E+03  0.00000000000E+00 0. -1.
         23    2    1    2    0    0 -0.47507045844E+02  0.40889339121E+02  0.99230313280E+02  0.14889931474E+03  0.91626925070E+02 0.  0.
         23    2    1    2    0    0  0.78874363748E+02  0.81606310825E+01 -0.19265125489E+02  0.12228621544E+03  0.91076957952E+02 0.  0.
        -11    1    4    4    0    0  0.53973935090E+02  0.48838024002E+01 -0.55907261201E+02  0.77863078863E+02  0.00000000000E+00 0. -1.
         11    1    4    4    0    0  0.24900428658E+02  0.32768286822E+01  0.36642135713E+02  0.44423136575E+02  0.00000000000E+00 0.  1.
        -13    1    3    3    0    0 -0.29038861050E+02 -0.19672388041E+02  0.71776871329E+02  0.79888532094E+02  0.00000000000E+00 0.  1.
         13    1    3    3    0    0 -0.18468184794E+02  0.60561727162E+02  0.27453441951E+02  0.69010782646E+02  0.00000000000E+00 0. -1.
         21    1    1    2  502  501 -0.31367317904E+02 -0.49049970203E+02  0.40225651040E+02  0.70766596718E+02  0.00000000000E+00 0.  1.
<scales pt_clust_5="13000.00000" pt_clust_6="13000.00000" pt_clust_7="13000.00000" pt_clust_8="13000.00000" pt_clust_9="58.22206"></scales>
<clustering>
<clus scale="   58.222">  1  9  2 -1</clus>
<clus scale="   91.077">  5  6 -1 -1</clus>
<clus scale="   91.627">  7  8 -1 -1</clus>
<clus scale="  114.839">  2  5  1 -1</clus>
<clus scale="  114.839">  2  5  1 -1</clus>
</clustering>
</event>
<event>
 9    1  0.1612788E-005  0.9517165E+02  0.7546771E-02  0.1292157E+00
         -3   -1    0    0    0  501 -0.00000000000E+00  0.00000000000E+00  0.76108730437E+02  0.76108730437E+02  0.00000000000E+00 0.  1.
          3   -1    0    0  502    0  0.00000000000E+00 -0.00000000000E+00 -0.20389902890E+03  0.20389902890E+03  0.00000000000E+00 0. -1.
         23    2    1    2    0    0  0.13865704349E+02 -0.11537821217E+02  0.66987532810E+01  0.91556538232E+02  0.89511716116E+02 0.  0.
         23    2    1    2    0    0 -0.27613023510E+02 -0.35643181425E+01 -0.13754552724E+03  0.16780163419E+03  0.91996918109E+02 0.  0.
        -13    1    3    3    0    0  0.56547829517E+01  0.26468565449E+02 -0.28359343819E+02  0.39202218164E+02  0.00000000000E+00 0. -1.
         13    1    3    3    0    0  0.82109213968E+01 -0.38006386666E+02  0.35058097100E+02  0.52354320068E+02  0.00000000000E+00 0.  1.
        -13    1    4    4    0    0 -0.38221579304E+02 -0.23715663904E+02 -0.22073716313E+02  0.50105596402E+02  0.00000000000E+00 0.  1.
         13    1    4    4    0    0  0.10608555794E+02  0.20151345762E+02 -0.11547181093E+03  0.11769603779E+03  0.00000000000E+00 0. -1.
         21    1    1    2  502  501  0.13747319161E+02  0.15102139359E+02  0.30564754947E+01  0.20649586916E+02  0.00000000000E+00 0. -1.
<scales pt_clust_5="13000.00000" pt_clust_6="13000.00000" pt_clust_7="13000.00000" pt_clust_8="13000.00000" pt_clust_9="20.42213"></scales>
<clustering>
<clus scale="   20.422">  1  9  2 -1</clus>
<clus scale="   89.512">  5  6 -1 -1</clus>
<clus scale="   91.997">  7  8 -1 -1</clus>
<clus scale="   92.772">  1  5  2 -1</clus>
<clus scale="   95.172">  2  5  1 -1</clus>
</clustering>
</event>
<event>
 9    1  0.1612788E-005  0.1283168E+03  0.7546771E-02  0.1246198E+00
          1   -1    0    0  502    0  0.00000000000E+00  0.00000000000E+00  0.18678917944E+03  0.18678917944E+03  0.00000000000E+00 0. -1.
         -1   -1    0    0    0  501 -0.00000000000E+00 -0.00000000000E+00 -0.13848248646E+03  0.13848248646E+03  0.00000000000E+00 0.  1.
         23    2    1    2    0    0  0.82863999744E+02  0.30717356305E+01  0.11734853732E+00  0.12391318292E+03  0.92079232829E+02 0.  0.
         23    2    1    2    0    0  0.11009300581E+02 -0.11764394157E+02  0.54097789797E+02  0.10689860497E+03  0.90780698473E+02 0.  0.
        -11    1    3    3    0    0 -0.19418932036E+02 -0.80550374153E+01  0.36852589908E+00  0.21026515654E+02  0.00000000000E+00 0.  1.
         11    1    3    3    0    0  0.10228293178E+03  0.11126773046E+02 -0.25117736175E+00  0.10288666727E+03  0.00000000000E+00 0. -1.
        -13    1    4    4    0    0 -0.23482961555E+02  0.15556510423E+02 -0.93557472840E+01  0.29681383175E+02  0.00000000000E+00 0.  1.
         13    1    4    4    0    0  0.34492262136E+02 -0.27320904580E+02  0.63453537080E+02  0.77217221799E+02  0.00000000000E+00 0. -1.
         21    1    1    2  502  501 -0.93873300324E+02  0.86926585270E+01 -0.59084453449E+01  0.94459878004E+02  0.00000000000E+00 0.  1.
<scales pt_clust_5="13000.00000" pt_clust_6="13000.00000" pt_clust_7="13000.00000" pt_clust_8="13000.00000" pt_clust_9="89.36785"></scales>
<clustering>
<clus scale="   90.781">  7  8 -1 -1</clus>
<clus scale="   92.079">  5  6 -1 -1</clus>
<clus scale="   92.199">  1  7  2 -1</clus>
<clus scale="   89.368">  1  9  2 -1</clus>
<clus scale="   92.199">  1  5  2 -1</clus>
</clustering>
</event>
<event>
 9    1  0.1612788E-005  0.1033001E+03  0.7546771E-02  0.1280393E+00
         -1   -1    0    0    0  501 -0.00000000000E+00  0.00000000000E+00  0.27829138172E+03  0.27829138172E+03  0.00000000000E+00 0.  1.
          1   -1    0    0  502    0  0.00000000000E+00 -0.00000000000E+00 -0.16016395654E+03  0.16016395654E+03  0.00000000000E+00 0. -1.
         23    2    1    2    0    0 -0.19297818062E+01 -0.16658400271E+02  0.22301524649E+03  0.24056032000E+03  0.88612871721E+02 0.  0.
         23    2    1    2    0    0 -0.35946269374E+02  0.45463948789E+02 -0.91363014597E+02  0.14842507511E+03  0.10160559810E+03 0.  0.
        -11    1    4    4    0    0 -0.63034326403E+02  0.41551759931E+02 -0.94412387298E+02  0.12088661602E+03  0.00000000000E+00 0. -1.
         11    1    4    4    0    0  0.27088057029E+02  0.39121888583E+01  0.30493727005E+01  0.27538459091E+02  0.00000000000E+00 0.  1.
        -13    1    3    3    0    0  0.31739882442E+02  0.15214973492E+02  0.48089168424E+02  0.59594325867E+02  0.00000000000E+00 0. -1.
         13    1    3    3    0    0 -0.33669664248E+02 -0.31873373763E+02  0.17492607807E+03  0.18096599414E+03  0.00000000000E+00 0.  1.
         21    1    1    2  502  501  0.37876051180E+02 -0.28805548517E+02 -0.13524806711E+02  0.49469943147E+02  0.00000000000E+00 0.  1.
<scales pt_clust_5="13000.00000" pt_clust_6="13000.00000" pt_clust_7="13000.00000" pt_clust_8="13000.00000" pt_clust_9="47.58524"></scales>
<clustering>
<clus scale="   47.585">  2  9  1 -1</clus>
<clus scale="   88.613">  7  8 -1 -1</clus>
<clus scale="   90.551">  1  7  2 -1</clus>
<clus scale="  101.606">  5  6 -1 -1</clus>
<clus scale="   47.585">  2  5  1 -1</clus>
</clustering>
</event>
<event>
 9    1  0.1612788E-005  0.1130949E+03  0.7546771E-02  0.1260623E+00
          2   -1    0    0  502    0  0.00000000000E+00  0.00000000000E+00  0.19409933021E+03  0.19409933021E+03  0.00000000000E+00 0. -1.
         -2   -1    0    0    0  501 -0.00000000000E+00 -0.00000000000E+00 -0.10939107305E+03  0.10939107305E+03  0.00000000000E+00 0.  1.
         23    2    1    2    0    0 -0.57145190749E+02 -0.18975281287E+02 -0.26355610479E+02  0.11205456308E+03  0.90752260456E+02 0.  0.
         23    2    1    2    0    0  0.39641186367E+02  0.50874039317E+01  0.12314994753E+03  0.16603236337E+03  0.10394003450E+03 0.  0.
        -11    1    4    4    0    0  0.61176613336E+02 -0.31001932456E+02  0.85496685889E+02  0.10960557072E+03  0.00000000000E+00 0.  1.
         11    1    4    4    0    0 -0.21535426969E+02  0.36089336387E+02  0.37653261644E+02  0.56426792644E+02  0.00000000000E+00 0. -1.
        -13    1    3    3    0    0  0.94737706258E+00 -0.41399078779E+02  0.60623202176E+01  0.41851319854E+02  0.00000000000E+00 0.  1.
         13    1    3    3    0    0 -0.58092567812E+02  0.22423797493E+02 -0.32417930697E+02  0.70203243228E+02  0.00000000000E+00 0. -1.
         21    1    1    2  502  501  0.17504004382E+02  0.13887877355E+02 -0.12086079902E+02  0.25403476814E+02  0.00000000000E+00 0.  1.
<scales pt_clust_5="13000.00000" pt_clust_6="13000.00000" pt_clust_7="13000.00000" pt_clust_8="13000.00000" pt_clust_9="22.34420"></scales>
<clustering>
<clus scale="   22.344">  2  9  1 -1</clus>
<clus scale="   90.752">  7  8 -1 -1</clus>
<clus scale="  101.108">  2  7  1 -1</clus>
<clus scale="  103.940">  5  6 -1 -1</clus>
<clus scale="  113.095">  1  5  2 -1</clus>
</clustering>
</event>
<event>
 9    1  0.1612788E-005  0.3051355E+03  0.7546771E-02  0.1082834E+00
         -1   -1    0    0    0  501 -0.00000000000E+00  0.00000000000E+00  0.15845398044E+03  0.15845398044E+03  0.00000000000E+00 0.  1.
          1   -1    0    0  502    0  0.00000000000E+00 -0.00000000000E+00 -0.79583957794E+03  0.79583957794E+03  0.00000000000E+00 0. -1.
         23    2    1    2    0    0  0.22395485911E+03 -0.16796404108E+03 -0.20197348092E+03  0.35590651845E+03  0.86651398504E+02 0.  0.
         23    2    1    2    0    0 -0.20571233159E+03  0.21920248315E+03 -0.44355423157E+03  0.54339193294E+03  0.90372254898E+02 0.  0.
        -11    1    3    3    0    0  0.18849420429E+03 -0.12120289710E+03 -0.11746159352E+03  0.25301666599E+03  0.00000000000E+00 0.  1.
         11    1    3    3    0    0  0.35460654821E+02 -0.46761143980E+02 -0.84511887402E+02  0.10288985246E+03  0.00000000000E+00 0. -1.
        -13    1    4    4    0    0 -0.54262813823E+02  0.10827983654E+02 -0.62985017038E+02  0.83838001916E+02  0.00000000000E+00 0.  1.
         13    1    4    4    0    0 -0.15144951777E+03  0.20837449949E+03 -0.38056921453E+03  0.45955393103E+03  0.00000000000E+00 0. -1.
         21    1    1    2  502  501 -0.18242527520E+02 -0.51238442073E+02  0.81421149995E+01  0.54995106992E+02  0.00000000000E+00 0. -1.
<scales pt_clust_5="13000.00000" pt_clust_6="13000.00000" pt_clust_7="13000.00000" pt_clust_8="13000.00000" pt_clust_9="54.38904"></scales>
<clustering>
<clus scale="   54.389">  1  9  2 -1</clus>
<clus scale="   86.651">  5  6 -1 -1</clus>
<clus scale="   90.372">  7  8 -1 -1</clus>
<clus scale="  304.054">  1  5  2 -1</clus>
<clus scale="  305.135">  2  5  1 -1</clus>
</clustering>
</event>
<event>
 9    1  0.1612788E-005  0.1045278E+03  0.7546771E-02  0.1271714E+00
          1   -1    0    0  502    0  0.00000000000E+00  0.00000000000E+00  0.21569330390E+03  0.21569330390E+03  0.00000000000E+00 0. -1.
         -1   -1    0    0    0  501 -0.00000000000E+00 -0.00000000000E+00 -0.13727505606E+03  0.13727505606E+03  0.00000000000E+00 0.  1.
         23    2    1    2    0    0  0.47558632217E+02 -0.28371008322E+02 -0.48875014097E+02  0.11718167790E+03  0.90972748788E+02 0.  0.
         23    2    1    2    0    0 -0.10449135775E+02  0.52731774084E+02  0.15246213759E+03  0.18475694625E+03  0.89446080714E+02 0.  0.
        -11    1    3    3    0    0  0.39936850289E+02 -0.50752892280E+02 -0.62517061147E+02  0.89884320213E+02  0.00000000000E+00 0.  1.
         11    1    3    3    0    0  0.76217819275E+01  0.22381883957E+02  0.13642047050E+02  0.27297357692E+02  0.00000000000E+00 0. -1.
        -13    1    4    4    0    0  0.31296314608E+01  0.26908834852E+02  0.15319547487E+03  0.15557227744E+03  0.00000000000E+00 0. -1.
         13    1    4    4    0    0 -0.13578767236E+02  0.25822939232E+02 -0.73333728583E+00  0.29184668814E+02  0.00000000000E+00 0.  1.
         21    1    1    2  502  501 -0.37109496441E+02 -0.24360765762E+02 -0.25168875648E+02  0.51029735802E+02  0.00000000000E+00 0. -1.
<scales pt_clust_5="13000.00000" pt_clust_6="13000.00000" pt_clust_7="13000.00000" pt_clust_8="13000.00000" pt_clust_9="44.39101"></scales>
<clustering>
<clus scale="   44.391">  2  9  1 -1</clus>
<clus scale="   89.446">  7  8 -1 -1</clus>
<clus scale="   90.973">  5  6 -1 -1</clus>
<clus scale="  103.202">  1  7  2 -1</clus>
<clus scale="  103.202">  1  5  2 -1</clus>
</clustering>
</event>
<event>
 9    1  0.1612788E-005  0.1024688E+03  0.7546771E-02  0.1275865E+00
         -3   -1    0    0    0  501 -0.00000000000E+00  0.00000000000E+00  0.44835593813E+02  0.44835593813E+02  0.00000000000E+00 0.  1.
          3   -1    0    0  502    0  0.00000000000E+00 -0.00000000000E+00 -0.43722956633E+03  0.43722956633E+03  0.00000000000E+00 0. -1.
         23    2    1    2    0    0 -0.78560191822E+01 -0.65585238987E+02 -0.15934640453E+03  0.19533360343E+03  0.91655874776E+02 0.  0.
         23    2    1    2    0    0  0.14910089950E+02  0.32538648424E+02 -0.23358885161E+03  0.25293614209E+03  0.90176859302E+02 0.  0.
        -11    1    4    4    0    0  0.29562288990E+02  0.53765525988E+02 -0.20696049970E+03  0.21586409881E+03  0.00000000000E+00 0.  1.
         11    1    4    4    0    0 -0.14652199040E+02 -0.21226877564E+02 -0.26628351905E+02  0.37072043281E+02  0.00000000000E+00 0. -1.
        -11    1    3    3    0    0  0.29385942567E+02 -0.25220815090E+02 -0.16133859240E+02  0.41951454663E+02  0.00000000000E+00 0.  1.
         11    1    3    3    0    0 -0.37241961749E+02 -0.40364423898E+02 -0.14321254529E+03  0.15338214876E+03  0.00000000000E+00 0. -1.
         21    1    1    2  502  501 -0.70540707679E+01  0.33046590563E+02  0.54128361895E+00  0.33795414633E+02  0.00000000000E+00 0.  1.
<scales pt_clust_5="13000.00000" pt_clust_6="13000.00000" pt_clust_7="13000.00000" pt_clust_8="13000.00000" pt_clust_9="33.79108"></scales>
<clustering>
<clus scale="   33.791">  1  9  2 -1</clus>
<clus scale="   90.177">  5  6 -1 -1</clus>
<clus scale="   91.656">  7  8 -1 -1</clus>
<clus scale="  101.148">  2  5  1 -1</clus>
<clus scale="  101.148">  2  5  1 -1</clus>
</clustering>
</event>
<event>
 9    1  0.1612788E-005  0.1258969E+03  0.7546771E-02  0.1245252E+00
          1   -1    0    0  502    0  0.00000000000E+00  0.00000000000E+00  0.24164340138E+03  0.24164340138E+03  0.00000000000E+00 0. -1.
         -1   -1    0    0    0  501 -0.00000000000E+00 -0.00000000000E+00 -0.67508779480E+02  0.67508779480E+02  0.00000000000E+00 0.  1.
         23    2    1    2    0    0 -0.25003494509E+02  0.16139929129E+02  0.70632787376E+02  0.11942619912E+03  0.91585775824E+02 0.  0.
         23    2    1    2    0    0  0.44339533591E+02 -0.23900201669E+02  0.10736924858E+03  0.16853491927E+03  0.11974410045E+03 0.  0.
        -11    1    4    4    0    0  0.18175590181E+02 -0.45661870947E+02 -0.66053178918E+01  0.49588191752E+02  0.00000000000E+00 0.  1.
         11    1    4    4    0    0  0.26163943409E+02  0.21761669278E+02  0.11397456647E+03  0.11894672752E+03  0.00000000000E+00 0. -1.
        -13    1    3    3    0    0  0.13303107035E+02  0.40406815915E+02  0.58776016289E+02  0.72555520259E+02  0.00000000000E+00 0.  1.
         13    1    3    3    0    0 -0.38306601544E+02 -0.24266886786E+02  0.11856771087E+02  0.46870678859E+02  0.00000000000E+00 0. -1.
         21    1    1    2  502  501 -0.19336039082E+02  0.77602725407E+01 -0.38674140554E+01  0.21191062473E+02  0.00000000000E+00 0.  1.
<scales pt_clust_5="13000.00000" pt_clust_6="13000.00000" pt_clust_7="13000.00000" pt_clust_8="13000.00000" pt_clust_9="20.83517"></scales>
<clustering>
<clus scale="   20.835">  2  9  1 -1</clus>
<clus scale="   91.586">  7  8 -1 -1</clus>
<clus scale="   99.495">  2  7  1 -1</clus>
<clus scale="  119.744">  5  6 -1 -1</clus>
<clus scale="  125.897">  1  5  2 -1</clus>
</clustering>
</event>
<event>
 9    1  0.1612788E-005  0.9879437E+02  0.7546771E-02  0.1282921E+00
          3   -1    0    0  502    0  0.00000000000E+00  0.00000000000E+00  0.32820273380E+03  0.32820273380E+03  0.00000000000E+00 0. -1.
         -3   -1    0    0    0  501 -0.00000000000E+00 -0.00000000000E+00 -0.15744160139E+03  0.15744160139E+03  0.00000000000E+00 0.  1.
         23    2    1    2    0    0  0.34973724852E+02 -0.57675810855E+01  0.73780893008E+02  0.12237615690E+03  0.90971848305E+02 0.  0.
         23    2    1    2    0    0 -0.29632779041E+02 -0.35713127539E+02  0.21504790438E+03  0.23801184749E+03  0.90832314149E+02 0.  0.
        -13    1    4    4    0    0 -0.12707402512E+02 -0.65687292370E+02  0.12860804906E+03  0.14497009602E+03  0.00000000000E+00 0. -1.
         13    1    4    4    0    0 -0.16925376529E+02  0.29974164832E+02  0.86439855318E+02  0.93041751464E+02  0.00000000000E+00 0.  1.
        -13    1    3    3    0    0  0.59628327144E+02  0.25622895076E+01  0.75564054071E+02  0.96291375487E+02  0.00000000000E+00 0.  1.
         13    1    3    3    0    0 -0.24654602292E+02 -0.83298705931E+01 -0.17831610626E+01  0.26084781418E+02  0.00000000000E+00 0. -1.
         21    1    1    2  502  501 -0.53409458107E+01  0.41480708624E+02 -0.11806766498E+03  0.12525633080E+03  0.00000000000E+00 0. -1.
<scales pt_clust_5="13000.00000" pt_clust_6="13000.00000" pt_clust_7="13000.00000" pt_clust_8="13000.00000" pt_clust_9="41.82314"></scales>
<clustering>
<clus scale="   41.823">  2  9  1 -1</clus>
<clus scale="   90.832">  5  6 -1 -1</clus>
<clus scale="   90.972">  7  8 -1 -1</clus>
<clus scale="   98.666">  1  5  2 -1</clus>
<clus scale="   98.666">  1  5  2 -1</clus>
</clustering>
</event>
<event>
 9    1  0.1612788E-005  0.1171381E+03  0.7546771E-02  0.1248196E+00
          1   -1    0    0  502    0  0.00000000000E+00  0.00000000000E+00  0.19263854158E+03  0.19263854158E+03  0.00000000000E+00 0. -1.
         -1   -1    0    0    0  501 -0.00000000000E+00 -0.00000000000E+00 -0.10221562397E+03  0.10221562397E+03  0.00000000000E+00 0.  1.
         23    2    1    2    0    0  0.21599631387E+02  0.71799421899E+02 -0.12056964886E+02  0.11945296174E+03  0.92205957536E+02 0.  0.
         23    2    1    2    0    0 -0.72943798296E+00 -0.70357921953E+02  0.10116317571E+03  0.15443989155E+03  0.93096308840E+02 0.  0.
        -13    1    4    4    0    0 -0.34327671049E+02 -0.72704356548E+02  0.55486408729E+02  0.97688556210E+02  0.00000000000E+00 0.  1.
         13    1    4    4    0    0  0.33598233066E+02  0.23464345958E+01  0.45676766983E+02  0.56751335337E+02  0.00000000000E+00 0. -1.
        -13    1    3    3    0    0 -0.50792756940E+01  0.26316036282E+02 -0.48459668473E+02  0.55377543063E+02  0.00000000000E+00 0.  1.
         13    1    3    3    0    0  0.26678907081E+02  0.45483385617E+02  0.36402703587E+02  0.64075418678E+02  0.00000000000E+00 0. -1.
         21    1    1    2  502  501 -0.20870193404E+02 -0.14414999468E+01  0.13167067837E+01  0.20961312258E+02  0.00000000000E+00 0.  1.
<scales pt_clust_5="13000.00000" pt_clust_6="13000.00000" pt_clust_7="13000.00000" pt_clust_8="13000.00000" pt_clust_9="20.91992"></scales>
<clustering>
<clus scale="   20.920">  2  9  1 -1</clus>
<clus scale="   92.206">  7  8 -1 -1</clus>
<clus scale="   93.096">  5  6 -1 -1</clus>
<clus scale="  116.432">  2  7  1 -1</clus>
<clus scale="  117.138">  1  5  2 -1</clus>
</clustering>
</event>
<event>
 9    1  0.1612788E-005  0.9436856E+02  0.7546771E-02  0.1296912E+00
         -2   -1    0    0    0  501 -0.00000000000E+00  0.00000000000E+00  0.51547831324E+02  0.51547831324E+02  0.00000000000E+00 0.  1.
          2   -1    0    0  502    0  0.00000000000E+00 -0.00000000000E+00 -0.44366760618E+03  0.44366760618E+03  0.00000000000E+00 0. -1.
         23    2    1    2    0    0 -0.55596521783E+01 -0.27715755755E+02 -0.95573120524E+02  0.13085575495E+03  0.84793480805E+02 0.  0.
         23    2    1    2    0    0  0.25643368439E+02 -0.18045263668E+02 -0.29885419406E+03  0.31433217715E+03  0.92237055456E+02 0.  0.
        -11    1    3    3    0    0  0.32152515636E+02 -0.36848742073E+02 -0.40560487069E+02  0.63535558276E+02  0.00000000000E+00 0. -1.
         11    1    3    3    0    0 -0.37712167815E+02  0.91329863188E+01 -0.55012633455E+02  0.67320196673E+02  0.00000000000E+00 0.  1.
        -11    1    4    4    0    0  0.55513614992E+02 -0.22583281882E+02 -0.13484486289E+03  0.14756321736E+03  0.00000000000E+00 0.  1.
         11    1    4    4    0    0 -0.29870246552E+02  0.45380182147E+01 -0.16400933117E+03  0.16676895979E+03  0.00000000000E+00 0. -1.
         21    1    1    2  502  501 -0.20083716261E+02  0.45761019422E+02  0.23075397297E+01  0.50027505405E+02  0.00000000000E+00 0.  1.
<scales pt_clust_5="13000.00000" pt_clust_6="13000.00000" pt_clust_7="13000.00000" pt_clust_8="13000.00000" pt_clust_9="49.97426"></scales>
<clustering>
<clus scale="   49.974">  1  9  2 -1</clus>
<clus scale="   84.793">  5  6 -1 -1</clus>
<clus scale="   87.107">  1  5  2 -1</clus>
<clus scale="   92.237">  7  8 -1 -1</clus>
<clus scale="   94.369">  2  5  1 -1</clus>
</clustering>
</event>
<event>
 9    1  0.1612788E-005  0.1354157E+03  0.7546771E-02  0.1220588E+00
         -1   -1    0    0    0  501 -0.00000000000E+00  0.00000000000E+00  0.12977329071E+03  0.12977329071E+03  0.00000000000E+00 0.  1.
          1   -1    0    0  502    0  0.00000000000E+00 -0.00000000000E+00 -0.52730861935E+03  0.52730861935E+03  0.00000000000E+00 0. -1.
         23    2    1    2    0    0 -0.83418310091E+02  0.64947661610E+02 -0.50213122180E+02  0.14839564825E+03  0.91231012126E+02 0.  0.
         23    2    1    2    0    0  0.61284074599E+02 -0.72315563698E+02 -0.41548511041E+03  0.43664188772E+03  0.95094598108E+02 0.  0.
        -11    1    3    3    0    0 -0.10295680572E+03  0.53417350880E+02 -0.48246957482E+02  0.12562358905E+03  0.00000000000E+00 0.  1.
         11    1    3    3    0    0  0.19538495625E+02  0.11530310729E+02 -0.19661646985E+01  0.22772059205E+02  0.00000000000E+00 0. -1.
        -13    1    4    4    0    0 -0.16395869484E+02 -0.50458007426E+02 -0.18388574586E+03  0.19138652665E+03  0.00000000000E+00 0. -1.
         13    1    4    4    0    0  0.77679944083E+02 -0.21857556272E+02 -0.23159936455E+03  0.24525536108E+03  0.00000000000E+00 0.  1.
         21    1    1    2  502  501  0.22134235492E+02  0.73679020882E+01  0.68162903952E+02  0.72044374084E+02  0.00000000000E+00 0.  1.
<scales pt_clust_5="13000.00000" pt_clust_6="13000.00000" pt_clust_7="13000.00000" pt_clust_8="13000.00000" pt_clust_9="23.32832"></scales>
<clustering>
<clus scale="   23.328">  1  9  2 -1</clus>
<clus scale="   91.231">  5  6 -1 -1</clus>
<clus scale="   95.095">  7  8 -1 -1</clus>
<clus scale="  132.731">  1  5  2 -1</clus>
<clus scale="  135.416">  2  5  1 -1</clus>
</clustering>
</event>
<event>
 9    1  0.1612788E-005  0.9732738E+02  0.7546771E-02  0.1288626E+00
         -1   -1    0    0    0  501 -0.00000000000E+00  0.00000000000E+00  0.17583925321E+03  0.17583925321E+03  0.00000000000E+00 0.  1.
          1   -1    0    0  502    0  0.00000000000E+00 -0.00000000000E+00 -0.11334784809E+03  0.11334784809E+03  0.00000000000E+00 0. -1.
         23    2    1    2    0    0 -0.22297393886E+02 -0.50114452465E+02  0.35217122044E+02  0.11249012067E+03  0.91679602111E+02 0.  0.
         23    2    1    2    0    0  0.60408975140E+01  0.23540824726E+02 -0.43021323912E+02  0.99808075535E+02  0.86718825864E+02 0.  0.
        -11    1    4    4    0    0  0.33882384724E+02 -0.39146894976E+01 -0.49560745493E+02  0.60163180454E+02  0.00000000000E+00 0. -1.
         11    1    4    4    0    0 -0.27841487210E+02  0.27455514223E+02  0.65394215816E+01  0.39644895081E+02  0.00000000000E+00 0.  1.
        -13    1    3    3    0    0 -0.58125040144E+02 -0.28755496784E+02  0.25349899063E+02  0.69627697575E+02  0.00000000000E+00 0.  1.
         13    1    3    3    0    0  0.35827646258E+02 -0.21358955680E+02  0.98672229813E+01  0.42862423094E+02  0.00000000000E+00 0. -1.
         21    1    1    2  502  501  0.16256496372E+02  0.26573627739E+02  0.70295606984E+02  0.76888905095E+02  0.00000000000E+00 0.  1.
<scales pt_clust_5="13000.00000" pt_clust_6="13000.00000" pt_clust_7="13000.00000" pt_clust_8="13000.00000" pt_clust_9="31.15175"></scales>
<clustering>
<clus scale="   31.152">  1  9  2 -1</clus>
<clus scale="   86.719">  5  6 -1 -1</clus>
<clus scale="   91.680">  7  8 -1 -1</clus>
<clus scale="   92.669">  2  5  1 -1</clus>
<clus scale="   92.669">  2  5  1 -1</clus>
</clustering>
</event>
<event>
 9    1  0.1612788E-005  0.1435563E+03  0.7546771E-02  0.1209915E+00
          2   -1    0    0  502    0  0.00000000000E+00  0.00000000000E+00  0.71268948357E+03  0.71268948357E+03  0.00000000000E+00 0. -1.
         -2   -1    0    0    0  501 -0.00000000000E+00 -0.00000000000E+00 -0.34329073083E+02  0.34329073083E+02  0.00000000000E+00 0.  1.
         23    2    1    2    0    0  0.60757871920E+02 -0.91577300330E+02  0.24008096803E+03  0.28067822274E+03  0.95202271898E+02 0.  0.
         23    2    1    2    0    0 -0.39928020323E+02  0.97112160397E+02  0.37794544701E+03  0.40227233565E+03  0.89192222851E+02 0.  0.
        -13    1    3    3    0    0 -0.21791798180E+01 -0.54520462471E+02  0.17339599435E+03  0.18177843797E+03  0.00000000000E+00 0. -1.
         13    1    3    3    0    0  0.62937051738E+02 -0.37056837860E+02  0.66684973678E+02  0.98899784773E+02  0.00000000000E+00 0.  1.
        -13    1    4    4    0    0  0.11992984576E+02  0.83069999911E+02  0.23566036287E+03  0.25016047488E+03  0.00000000000E+00 0.  1.
         13    1    4    4    0    0 -0.51921004899E+02  0.14042160486E+02  0.14228508414E+03  0.15211186078E+03  0.00000000000E+00 0. -1.
         21    1    1    2  502  501 -0.20829851597E+02 -0.55348600667E+01  0.60333995448E+02  0.64067998254E+02  0.00000000000E+00 0.  1.
<scales pt_clust_5="13000.00000" pt_clust_6="13000.00000" pt_clust_7="13000.00000" pt_clust_8="13000.00000" pt_clust_9="21.55267"></scales>
<clustering>
<clus scale="   21.553">  1  9  2 -1</clus>
<clus scale="   89.192">  7  8 -1 -1</clus>
<clus scale="   95.202">  5  6 -1 -1</clus>
<clus scale="  139.643">  1  7  2 -1</clus>
<clus scale="   21.553">  1  5  2 -1</clus>
</clustering>
</event>
<event>
 9    1  0.1612788E-005  0.1021457E+03  0.7546771E-02  0.1275935E+00
         -1   -1    0    0    0  501 -0.00000000000E+00  0.00000000000E+00  0.25037052356E+03  0.25037052356E+03  0.00000000000E+00 0.  1.
          1   -1    0    0  502    0  0.00000000000E+00 -0.00000000000E+00 -0.80383525409E+02  0.80383525409E+02  0.00000000000E+00 0. -1.
         23    2    1    2    0    0 -0.35680129817E+02 -0.23110517477E+02  0.16666531270E+03  0.19476712523E+03  0.91376905909E+02 0.  0.
         23    2    1    2    0    0  0.37551876908E+02  0.47974048599E+02 -0.47809913467E+01  0.10976952515E+03  0.91185733401E+02 0.  0.
        -11    1    3    3    0    0 -0.36792779650E+02 -0.55903234251E+02  0.12441146075E+03  0.14126957139E+03  0.00000000000E+00 0.  1.
         11    1    3    3    0    0  0.11126498321E+01  0.32792716775E+02  0.42253851944E+02  0.53497553844E+02  0.00000000000E+00 0. -1.
        -11    1    4    4    0    0 -0.18528307756E+02  0.18366569899E+02  0.28093543058E+02  0.38338965032E+02  0.00000000000E+00 0.  1.
         11    1    4    4    0    0  0.56080184664E+02  0.29607478701E+02 -0.32874534404E+02  0.71430560122E+02  0.00000000000E+00 0. -1.
         21    1    1    2  502  501 -0.18717470905E+01 -0.24863531123E+02  0.81026768002E+01  0.26217398582E+02  0.00000000000E+00 0. -1.
<scales pt_clust_5="13000.00000" pt_clust_6="13000.00000" pt_clust_7="13000.00000" pt_clust_8="13000.00000" pt_clust_9="24.93388"></scales>
<clustering>
<clus scale="   24.934">  2  9  1 -1</clus>
<clus scale="   91.186">  7  8 -1 -1</clus>
<clus scale="   91.377">  5  6 -1 -1</clus>
<clus scale="  101.975">  2  7  1 -1</clus>
<clus scale="   24.934">  2  5  1 -1</clus>
</clustering>
</event>
<event>
 9    1  0.1612788E-005  0.9099898E+02  0.7546771E-02  0.1301992E+00
          1   -1    0    0  502    0  0.00000000000E+00  0.00000000000E+00  0.88863973208E+02  0.88863973208E+02  0.00000000000E+00 0. -1.
         -1   -1    0    0    0  501 -0.00000000000E+00 -0.00000000000E+00 -0.12911206776E+03  0.12911206776E+03  0.00000000000E+00 0.  1.
         23    2    1    2    0    0  0.19658952435E+02 -0.15884603409E-01 -0.43235192938E+02  0.99323412942E+02  0.87231781977E+02 0.  0.
         23    2    1    2    0    0 -0.14302670731E+01 -0.19192527495E+02 -0.11085456414E+01  0.91856688680E+02  0.89811043899E+02 0.  0.
        -13    1    4    4    0    0  0.25724986770E+01  0.21732909280E+02 -0.33152833681E+02  0.39724645704E+02  0.00000000000E+00 0.  1.
         13    1    4    4    0    0 -0.40027657502E+01 -0.40925436775E+02  0.32044288040E+02  0.52132042976E+02  0.00000000000E+00 0. -1.
        -13    1    3    3    0    0  0.52088884538E+02 -0.65478327062E+01 -0.40162962439E+02  0.66099845366E+02  0.00000000000E+00 0. -1.
         13    1    3    3    0    0 -0.32429932103E+02  0.65319481027E+01 -0.30722304984E+01  0.33223567575E+02  0.00000000000E+00 0.  1.
         21    1    1    2  502  501 -0.18228685362E+02  0.19208412099E+02  0.40956440279E+01  0.26795939345E+02  0.00000000000E+00 0.  1.
<scales pt_clust_5="13000.00000" pt_clust_6="13000.00000" pt_clust_7="13000.00000" pt_clust_8="13000.00000" pt_clust_9="26.48109"></scales>
<clustering>
<clus scale="   26.481">  1  9  2 -1</clus>
<clus scale="   87.232">  7  8 -1 -1</clus>
<clus scale="   88.454">  2  7  1 -1</clus>
<clus scale="   89.811">  5  6 -1 -1</clus>
<clus scale="   26.481">  1  5  2 -1</clus>
</clustering>
</event>
<event>
 9    1  0.1612788E-005  0.1213512E+03  0.7546771E-02  0.1241517E+00
          1   -1    0    0  502    0  0.00000000000E+00  0.00000000000E+00  0.19033124596E+03  0.19033124596E+03  0.00000000000E+00 0. -1.
         -1   -1    0    0    0  501 -0.00000000000E+00 -0.00000000000E+00 -0.42047409880E+03  0.42047409880E+03  0.00000000000E+00 0.  1.
         23    2    1    2    0    0 -0.64631439412E+02 -0.37202393766E+01 -0.56419255385E+02  0.12546689695E+03  0.91475388547E+02 0.  0.
         23    2    1    2    0    0  0.67175833810E+02 -0.51646646448E+02  0.12731030151E+03  0.17924471329E+03  0.93492168849E+02 0.  0.
        -11    1    4    4    0    0  0.25560658309E+02  0.26224731773E+02  0.26308214802E+02  0.45091085325E+02  0.00000000000E+00 0.  1.
         11    1    4    4    0    0  0.41615175501E+02 -0.77871378221E+02  0.10100208670E+03  0.13415362797E+03  0.00000000000E+00 0. -1.
        -13    1    3    3    0    0 -0.43470117878E+02  0.42758669539E+02 -0.31929222009E+02  0.68828992345E+02  0.00000000000E+00 0.  1.
         13    1    3    3    0    0 -0.21161321534E+02 -0.46478908915E+02 -0.24490033376E+02  0.56637904603E+02  0.00000000000E+00 0. -1.
         21    1    1    2  502  501 -0.25443943979E+01  0.55366885824E+02 -0.30103389896E+03  0.30609373452E+03  0.00000000000E+00 0.  1.
<scales pt_clust_5="13000.00000" pt_clust_6="13000.00000" pt_clust_7="13000.00000" pt_clust_8="13000.00000" pt_clust_9="55.42532"></scales>
<clustering>
<clus scale="   55.425">  2  9  1 -1</clus>
<clus scale="   91.475">  7  8 -1 -1</clus>
<clus scale="   93.492">  5  6 -1 -1</clus>
<clus scale="  119.804">  2  7  1 -1</clus>
<clus scale="  121.351">  1  5  2 -1</clus>
</clustering>
</event>
<event>
 9    1  0.1612788E-005  0.1042448E+03  0.7546771E-02  0.1272958E+00
          2   -1    0    0  502    0  0.00000000000E+00  0.00000000000E+00  0.26493550992E+03  0.26493550992E+03  0.00000000000E+00 0.  1.
         -2   -1    0    0    0  501 -0.00000000000E+00 -0.00000000000E+00 -0.25525148350E+03  0.25525148350E+03  0.00000000000E+00 0. -1.
         23    2    1    2    0    0  0.40343109186E+02 -0.11088952386E+02 -0.18457343964E+03  0.21104566024E+03  0.93393708375E+02 0.  0.
         23    2    1    2    0    0 -0.22403690169E+02 -0.42880073637E+02  0.22297971650E+03  0.24542754978E+03  0.90410741462E+02 0.  0.
        -11    1    3    3    0    0  0.51866719806E+02 -0.41250259138E+02 -0.14860001701E+03  0.16270742318E+03  0.00000000000E+00 0. -1.
         11    1    3    3    0    0 -0.11523610621E+02  0.30161306753E+02 -0.35973422624E+02  0.48338237060E+02  0.00000000000E+00 0.  1.
        -11    1    4    4    0    0 -0.54127813486E+02 -0.26676649384E+02  0.17860260562E+03  0.18852149626E+03  0.00000000000E+00 0.  1.
         11    1    4    4    0    0  0.31724123317E+02 -0.16203424253E+02  0.44377110874E+02  0.56906053521E+02  0.00000000000E+00 0. -1.
         21    1    1    2  502  501 -0.17939419016E+02  0.53969026023E+02 -0.28722250444E+02  0.63713783400E+02  0.00000000000E+00 0.  1.
<scales pt_clust_5="13000.00000" pt_clust_6="13000.00000" pt_clust_7="13000.00000" pt_clust_8="13000.00000" pt_clust_9="56.87248"></scales>
<clustering>
<clus scale="   56.872">  2  9  1 -1</clus>
<clus scale="   90.411">  7  8 -1 -1</clus>
<clus scale="   93.394">  5  6 -1 -1</clus>
<clus scale="  101.581">  1  7  2 -1</clus>
<clus scale="  101.581">  1  5  2 -1</clus>
</clustering>
</event>
<event>
 9    1  0.1612788E-005  0.3563606E+03  0.7546771E-02  0.1060110E+00
          1   -1    0    0  502    0  0.00000000000E+00  0.00000000000E+00  0.69245254151E+03  0.69245254151E+03  0.00000000000E+00 0. -1.
         -1   -1    0    0    0  501 -0.00000000000E+00 -0.00000000000E+00 -0.54893110586E+03  0.54893110586E+03  0.00000000000E+00 0.  1.
         23    2    1    2    0    0 -0.30271108940E+03  0.11912863442E+03 -0.26295141647E+03  0.42757478831E+03  0.88606529056E+02 0.  0.
         23    2    1    2    0    0  0.32179629924E+03 -0.13067607582E+03  0.55637988683E+03  0.66225125386E+03  0.91591756050E+02 0.  0.
        -11    1    4    4    0    0  0.23710839940E+03 -0.87118925718E+02  0.32198359360E+03  0.40924752270E+03  0.00000000000E+00 0. -1.
         11    1    4    4    0    0  0.84687899840E+02 -0.43557150103E+02  0.23439629323E+03  0.25300373116E+03  0.00000000000E+00 0.  1.
        -13    1    3    3    0    0 -0.25548822586E+03  0.75288570762E+02 -0.24185715164E+03  0.35977421287E+03  0.00000000000E+00 0.  1.
         13    1    3    3    0    0 -0.47222863538E+02  0.43840063661E+02 -0.21094264830E+02  0.67800575449E+02  0.00000000000E+00 0. -1.
         21    1    1    2  502  501 -0.19085209843E+02  0.11547441398E+02 -0.14990703470E+03  0.15155760519E+03  0.00000000000E+00 0. -1.
<scales pt_clust_5="13000.00000" pt_clust_6="13000.00000" pt_clust_7="13000.00000" pt_clust_8="13000.00000" pt_clust_9="22.30669"></scales>
<clustering>
<clus scale="   22.307">  2  9  1 -1</clus>
<clus scale="   88.607">  7  8 -1 -1</clus>
<clus scale="   91.592">  5  6 -1 -1</clus>
<clus scale="  355.605">  2  7  1 -1</clus>
<clus scale="  356.361">  1  5  2 -1</clus>
</clustering>
</event>
<event>
 9    1  0.1612788E-005  0.1001611E+03  0.7546771E-02  0.1281684E+00
         -4   -1    0    0    0  501 -0.00000000000E+00  0.00000000000E+00  0.33672580415E+03  0.33672580415E+03  0.00000000000E+00 0.  1.
          4   -1    0    0  502    0  0.00000000000E+00 -0.00000000000E+00 -0.17538303998E+03  0.17538303998E+03  0.00000000000E+00 0. -1.
         23    2    1    2    0    0 -0.10051456692E+02  0.62343829855E+02  0.15277384940E+03  0.18713686399E+03  0.87707308150E+02 0.  0.
         23    2    1    2    0    0  0.41168138399E+02  0.24249731856E+02 -0.12549842367E+03  0.16236587924E+03  0.91268610610E+02 0.  0.
        -13    1    4    4    0    0  0.15535737484E+02  0.49050914315E+02 -0.28063601914E+02  0.58608165699E+02  0.00000000000E+00 0.  1.
         13    1    4    4    0    0  0.25632400914E+02 -0.24801182459E+02 -0.97434821758E+02  0.10375771354E+03  0.00000000000E+00 0. -1.
        -13    1    3    3    0    0 -0.25267202955E+02 -0.14909527147E+02  0.41539471224E+02  0.50855218164E+02  0.00000000000E+00 0. -1.
         13    1    3    3    0    0  0.15215746263E+02  0.77253357002E+02  0.11123437817E+03  0.13628164583E+03  0.00000000000E+00 0.  1.
         21    1    1    2  502  501 -0.31116681707E+02 -0.86593561711E+02  0.13406733845E+03  0.16260610089E+03  0.00000000000E+00 0.  1.
<scales pt_clust_5="13000.00000" pt_clust_6="13000.00000" pt_clust_7="13000.00000" pt_clust_8="13000.00000" pt_clust_9="92.01463"></scales>
<clustering>
<clus scale="   87.707">  7  8 -1 -1</clus>
<clus scale="   91.269">  5  6 -1 -1</clus>
<clus scale="   92.015">  1  9  2 -1</clus>
<clus scale="   96.927">  1  7  2 -1</clus>
<clus scale="  100.161">  2  5  1 -1</clus>
</clustering>
</event>
<event>
 9    1  0.1612788E-005  0.1136390E+03  0.7546771E-02  0.1254350E+00
          1   -1    0    0  502    0  0.00000000000E+00  0.00000000000E+00  0.44117871454E+03  0.44117871454E+03  0.00000000000E+00 0. -1.
         -1   -1    0    0    0  501 -0.00000000000E+00 -0.00000000000E+00 -0.79750821637E+02  0.79750821637E+02  0.00000000000E+00 0.  1.
         23    2    1    2    0    0  0.72085721267E+02  0.41850036556E+02  0.10664976211E+03  0.16338731116E+03  0.91506638664E+02 0.  0.
         23    2    1    2    0    0 -0.46972871387E+02 -0.37315538220E+02  0.29215885964E+03  0.31228147166E+03  0.92541980945E+02 0.  0.
        -13    1    4    4    0    0 -0.67919779021E+02 -0.35008560915E+02  0.27402709362E+03  0.28448118348E+03  0.00000000000E+00 0. -1.
         13    1    4    4    0    0  0.20946907634E+02 -0.23069773047E+01  0.18131766027E+02  0.27800288181E+02  0.00000000000E+00 0.  1.
        -13    1    3    3    0    0  0.72793319120E+02  0.62755533358E+02  0.10509042173E+03  0.14241180083E+03  0.00000000000E+00 0.  1.
         13    1    3    3    0    0 -0.70759785313E+00 -0.20905496801E+02  0.15593403787E+01  0.20975510331E+02  0.00000000000E+00 0. -1.
         21    1    1    2  502  501 -0.25112849880E+02 -0.45344983366E+01 -0.37380728854E+02  0.45260753351E+02  0.00000000000E+00 0.  1.
<scales pt_clust_5="13000.00000" pt_clust_6="13000.00000" pt_clust_7="13000.00000" pt_clust_8="13000.00000" pt_clust_9="25.51895"></scales>
<clustering>
<clus scale="   25.519">  2  9  1 -1</clus>
<clus scale="   91.507">  7  8 -1 -1</clus>
<clus scale="   92.542">  5  6 -1 -1</clus>
<clus scale="  112.797">  2  7  1 -1</clus>
<clus scale="  113.639">  1  5  2 -1</clus>
</clustering>
</event>
<event>
 9    1  0.1612788E-005  0.1491735E+03  0.7546771E-02  0.1201808E+00
         -1   -1    0    0    0  501 -0.00000000000E+00  0.00000000000E+00  0.11173374382E+03  0.11173374382E+03  0.00000000000E+00 0.  1.
          1   -1    0    0  502    0  0.00000000000E+00 -0.00000000000E+00 -0.43977834413E+03  0.43977834413E+03  0.00000000000E+00 0. -1.
         23    2    1    2    0    0  0.79214584074E+02 -0.63849666158E+02 -0.58568695455E+02  0.14926256970E+03  0.92180759532E+02 0.  0.
         23    2    1    2    0    0 -0.89218351208E+02  0.85275394352E+02 -0.31541062197E+03  0.35058584221E+03  0.90524942617E+02 0.  0.
        -11    1    4    4    0    0 -0.10682665715E+03  0.73381897013E+02 -0.28868500610E+03  0.31644252280E+03  0.00000000000E+00 0. -1.
         11    1    4    4    0    0  0.17608305944E+02  0.11893497339E+02 -0.26725615870E+02  0.34143319417E+02  0.00000000000E+00 0.  1.
        -13    1    3    3    0    0  0.57693745828E+02  0.15528492595E+01 -0.55916234029E+02  0.80359223966E+02  0.00000000000E+00 0.  1.
         13    1    3    3    0    0  0.21520838247E+02 -0.65402515418E+02 -0.26524614254E+01  0.68903345734E+02  0.00000000000E+00 0. -1.
         21    1    1    2  502  501  0.10003767133E+02 -0.21425728194E+02  0.45934717110E+02  0.51663676035E+02  0.00000000000E+00 0.  1.
<scales pt_clust_5="13000.00000" pt_clust_6="13000.00000" pt_clust_7="13000.00000" pt_clust_8="13000.00000" pt_clust_9="23.64608"></scales>
<clustering>
<clus scale="   23.646">  1  9  2 -1</clus>
<clus scale="   90.525">  5  6 -1 -1</clus>
<clus scale="   92.181">  7  8 -1 -1</clus>
<clus scale="  148.156">  2  5  1 -1</clus>
<clus scale="  148.156">  2  5  1 -1</clus>
</clustering>
</event>
<event>
 9    1  0.1612788E-005  0.2627757E+03  0.7546771E-02  0.1105525E+00
         -1   -1    0    0    0  501 -0.00000000000E+00  0.00000000000E+00  0.61670694504E+03  0.61670694504E+03  0.00000000000E+00 0.  1.
          1   -1    0    0  502    0  0.00000000000E+00 -0.00000000000E+00 -0.14578868429E+03  0.14578868429E+03  0.00000000000E+00 0. -1.
         23    2    1    2    0    0 -0.14162933951E+03  0.16613075406E+03  0.30450385585E+03  0.38564925326E+03  0.91347966895E+02 0.  0.
         23    2    1    2    0    0  0.17002569992E+03 -0.19902169197E+03  0.95087175891E+02  0.29332547641E+03  0.92086326796E+02 0.  0.
        -11    1    4    4    0    0  0.55452195558E+02 -0.11491196448E+02  0.30231024313E+02  0.64194302076E+02  0.00000000000E+00 0. -1.
         11    1    4    4    0    0  0.11457350436E+03 -0.18753049553E+03  0.64856151579E+02  0.22913117433E+03  0.00000000000E+00 0.  1.
        -13    1    3    3    0    0 -0.19395791031E+02  0.65507385451E+02  0.14810766762E+03  0.16310516689E+03  0.00000000000E+00 0.  1.
         13    1    3    3    0    0 -0.12223354848E+03  0.10062336861E+03  0.15639618823E+03  0.22254408636E+03  0.00000000000E+00 0. -1.
         21    1    1    2  502  501 -0.28396360408E+02  0.32890937912E+02  0.71327229009E+02  0.83520899656E+02  0.00000000000E+00 0. -1.
<scales pt_clust_5="13000.00000" pt_clust_6="13000.00000" pt_clust_7="13000.00000" pt_clust_8="13000.00000" pt_clust_9="43.45304"></scales>
<clustering>
<clus scale="   43.453">  1  9  2 -1</clus>
<clus scale="   91.348">  7  8 -1 -1</clus>
<clus scale="   92.086">  5  6 -1 -1</clus>
<clus scale="  262.518">  1  7  2 -1</clus>
<clus scale="  262.776">  2  5  1 -1</clus>
</clustering>
</event>
<event>
 9    1  0.1612788E-005  0.1042863E+03  0.7546771E-02  0.1271933E+00
         -2   -1    0    0    0  501 -0.00000000000E+00  0.00000000000E+00  0.44086209683E+03  0.44086209683E+03  0.00000000000E+00 0.  1.
          2   -1    0    0  502    0  0.00000000000E+00 -0.00000000000E+00 -0.82489423705E+02  0.82489423705E+02  0.00000000000E+00 0. -1.
         23    2    1    2    0    0 -0.22828222191E+01  0.51637362832E+02  0.17501670649E+03  0.20413936832E+03  0.91489920937E+02 0.  0.
         23    2    1    2    0    0  0.32030138087E+02 -0.40282137841E+02 -0.26063771626E+02  0.10738564133E+03  0.90574695132E+02 0.  0.
        -11    1    3    3    0    0  0.13471311205E+02  0.72121798751E+02  0.15487652103E+03  0.17137609765E+03  0.00000000000E+00 0.  1.
         11    1    3    3    0    0 -0.15754133424E+02 -0.20484435919E+02  0.20140185459E+02  0.32763270673E+02  0.00000000000E+00 0. -1.
        -11    1    4    4    0    0 -0.83356535757E+01  0.24705649437E+02 -0.15015046582E+02  0.30088267788E+02  0.00000000000E+00 0.  1.
         11    1    4    4    0    0  0.40365791663E+02 -0.64987787278E+02 -0.11048725045E+02  0.77297373545E+02  0.00000000000E+00 0. -1.
         21    1    1    2  502  501 -0.29747315868E+02 -0.11355224991E+02  0.20941973827E+03  0.21182651088E+03  0.00000000000E+00 0.  1.
<scales pt_clust_5="13000.00000" pt_clust_6="13000.00000" pt_clust_7="13000.00000" pt_clust_8="13000.00000" pt_clust_9="31.84092"></scales>
<clustering>
<clus scale="   31.841">  1  9  2 -1</clus>
<clus scale="   90.575">  7  8 -1 -1</clus>
<clus scale="   91.490">  5  6 -1 -1</clus>
<clus scale="  103.484">  2  7  1 -1</clus>
<clus scale="  103.484">  2  5  1 -1</clus>
</clustering>
</event>
<event>
 9    1  0.1612788E-005  0.4978328E+03  0.7546771E-02  0.1014383E+00
         -2   -1    0    0    0  501 -0.00000000000E+00  0.00000000000E+00  0.94496419314E+02  0.94496419314E+02  0.00000000000E+00 0.  1.
          2   -1    0    0  502    0  0.00000000000E+00 -0.00000000000E+00 -0.35691230455E+04  0.35691230455E+04  0.00000000000E+00 0. -1.
         23    2    1    2    0    0  0.44221154387E+03  0.27356552536E+03 -0.18915745281E+04  0.19637075174E+04  0.87771706333E+02 0.  0.
         23    2    1    2    0    0 -0.41669771966E+03 -0.19771070779E+03 -0.15376408251E+04  0.16078951430E+04  0.90889880124E+02 0.  0.
        -11    1    4    4    0    0 -0.15463734381E+03 -0.26535965880E+02 -0.53479029997E+03  0.55733071917E+03  0.00000000000E+00 0.  1.
         11    1    4    4    0    0 -0.26206037585E+03 -0.17117474191E+03 -0.10028505251E+04  0.10505644238E+04  0.00000000000E+00 0. -1.
        -11    1    3    3    0    0  0.36127015772E+03  0.19043447155E+03 -0.15532322549E+04  0.16060236152E+04  0.00000000000E+00 0. -1.
         11    1    3    3    0    0  0.80941386154E+02  0.83131053801E+02 -0.33834227317E+03  0.35768390223E+03  0.00000000000E+00 0.  1.
         21    1    1    2  502  501 -0.25513824210E+02 -0.75854817564E+02 -0.45411272952E+02  0.92016804360E+02  0.00000000000E+00 0. -1.
<scales pt_clust_5="13000.00000" pt_clust_6="13000.00000" pt_clust_7="13000.00000" pt_clust_8="13000.00000" pt_clust_9="80.03067"></scales>
<clustering>
<clus scale="   80.031">  1  9  2 -1</clus>
<clus scale="   87.772">  7  8 -1 -1</clus>
<clus scale="   90.890">  5  6 -1 -1</clus>
<clus scale="  497.273">  1  7  2 -1</clus>
<clus scale="  497.833">  2  5  1 -1</clus>
</clustering>
</event>
<event>
 9    1  0.1612788E-005  0.9587330E+02  0.7546771E-02  0.1291304E+00
          2   -1    0    0  502    0  0.00000000000E+00  0.00000000000E+00  0.95656495212E+03  0.95656495212E+03  0.00000000000E+00 0. -1.
         -2   -1    0    0    0  501 -0.00000000000E+00 -0.00000000000E+00 -0.21666908078E+02  0.21666908078E+02  0.00000000000E+00 0.  1.
         23    2    1    2    0    0 -0.27262568667E+02  0.18095357722E+01  0.15510661750E+03  0.18272000979E+03  0.92639176991E+02 0.  0.
         23    2    1    2    0    0  0.67006357187E+01  0.49539560123E+02  0.51992847694E+03  0.52982730944E+03  0.88838562351E+02 0.  0.
        -11    1    4    4    0    0  0.41803919306E+02  0.49429334947E+02  0.38513997539E+03  0.39054273449E+03  0.00000000000E+00 0.  1.
         11    1    4    4    0    0 -0.35103283587E+02  0.11022517623E+00  0.13478850155E+03  0.13928457495E+03  0.00000000000E+00 0. -1.
        -11    1    3    3    0    0 -0.40266532739E+01 -0.44165800701E+02  0.82961951494E+02  0.94071872968E+02  0.00000000000E+00 0. -1.
         11    1    3    3    0    0 -0.23235915393E+02  0.45975336473E+02  0.72144666010E+02  0.88648136820E+02  0.00000000000E+00 0.  1.
         21    1    1    2  502  501  0.20561932948E+02 -0.51349095895E+02  0.25986294960E+03  0.26568454097E+03  0.00000000000E+00 0. -1.
<scales pt_clust_5="13000.00000" pt_clust_6="13000.00000" pt_clust_7="13000.00000" pt_clust_8="13000.00000" pt_clust_9="55.31295"></scales>
<clustering>
<clus scale="   55.313">  1  9  2 -1</clus>
<clus scale="   88.839">  5  6 -1 -1</clus>
<clus scale="   92.206">  1  5  2 -1</clus>
<clus scale="   92.639">  7  8 -1 -1</clus>
<clus scale="   55.313">  1  5  2 -1</clus>
</clustering>
</event>
<event>
 9    1  0.1612788E-005  0.1606572E+03  0.7546771E-02  0.1188272E+00
          1   -1    0    0  502    0  0.00000000000E+00  0.00000000000E+00  0.27837950974E+03  0.27837950974E+03  0.00000000000E+00 0. -1.
         -1   -1    0    0    0  501 -0.00000000000E+00 -0.00000000000E+00 -0.13687383263E+03  0.13687383263E+03  0.00000000000E+00 0.  1.
         23    2    1    2    0    0 -0.10188656917E+03  0.11359373734E+03  0.14483856451E+02  0.17866952272E+03  0.91807440403E+02 0.  0.
         23    2    1    2    0    0  0.83362925502E+02 -0.87918521097E+02  0.13472223987E+03  0.20400102420E+03  0.93740558236E+02 0.  0.
        -13    1    4    4    0    0  0.33806938945E+02  0.15268759664E+02  0.20920249667E+02  0.42587568475E+02  0.00000000000E+00 0. -1.
         13    1    4    4    0    0  0.49555986558E+02 -0.10318728076E+03  0.11380199020E+03  0.16141345572E+03  0.00000000000E+00 0.  1.
        -13    1    3    3    0    0 -0.36352187182E+02  0.13920607672E+01 -0.23480820906E+02  0.43298594625E+02  0.00000000000E+00 0.  1.
         13    1    3    3    0    0 -0.65534381987E+02  0.11220167657E+03  0.37964677357E+02  0.13537092810E+03  0.00000000000E+00 0. -1.
         21    1    1    2  502  501  0.18523643667E+02 -0.25675216238E+02 -0.77004192070E+01  0.32582795453E+02  0.00000000000E+00 0.  1.
<scales pt_clust_5="13000.00000" pt_clust_6="13000.00000" pt_clust_7="13000.00000" pt_clust_8="13000.00000" pt_clust_9="31.65979"></scales>
<clustering>
<clus scale="   31.660">  2  9  1 -1</clus>
<clus scale="   91.807">  7  8 -1 -1</clus>
<clus scale="   93.741">  5  6 -1 -1</clus>
<clus scale="  159.537">  2  7  1 -1</clus>
<clus scale="  160.657">  1  5  2 -1</clus>
</clustering>
</event>
<event>
 9    1  0.1612788E-005  0.9285552E+02  0.7546771E-02  0.1299210E+00
         -2   -1    0    0    0  501 -0.00000000000E+00  0.00000000000E+00  0.28564586416E+02  0.28564586416E+02  0.00000000000E+00 0.  1.
          2   -1    0    0  502    0  0.00000000000E+00 -0.00000000000E+00 -0.47578239986E+03  0.47578239986E+03  0.00000000000E+00 0. -1.
         23    2    1    2    0    0 -0.18877381563E+02 -0.81860891055E+01 -0.13555483627E+03  0.16268710299E+03  0.87570612955E+02 0.  0.
         23    2    1    2    0    0 -0.16417829195E+02 -0.50717234596E+01 -0.26712184148E+03  0.28330378450E+03  0.92799184391E+02 0.  0.
        -11    1    3    3    0    0  0.45111118366E+01 -0.42845664344E+02 -0.95575106203E+02  0.10483654901E+03  0.00000000000E+00 0.  1.
         11    1    3    3    0    0 -0.23388493399E+02  0.34659575238E+02 -0.39979730067E+02  0.57850553977E+02  0.00000000000E+00 0. -1.
        -11    1    4    4    0    0 -0.27799674846E+02 -0.44324535501E+02 -0.12734225422E+03  0.13767184199E+03  0.00000000000E+00 0.  1.
         11    1    4    4    0    0  0.11381845652E+02  0.39252812041E+02 -0.13977958726E+03  0.14563194251E+03  0.00000000000E+00 0. -1.
         21    1    1    2  502  501  0.35295210758E+02  0.13257812565E+02 -0.44541135700E+02  0.58356098789E+02  0.00000000000E+00 0.  1.
<scales pt_clust_5="13000.00000" pt_clust_6="13000.00000" pt_clust_7="13000.00000" pt_clust_8="13000.00000" pt_clust_9="37.70307"></scales>
<clustering>
<clus scale="   37.703">  1  9  2 -1</clus>
<clus scale="   87.571">  5  6 -1 -1</clus>
<clus scale="   87.630">  1  5  2 -1</clus>
<clus scale="   92.799">  7  8 -1 -1</clus>
<clus scale="   92.856">  2  5  1 -1</clus>
</clustering>
</event>
<event>
 9    1  0.1612788E-005  0.1709557E+03  0.7546771E-02  0.1179036E+00
          1   -1    0    0  502    0  0.00000000000E+00  0.00000000000E+00  0.28310823553E+03  0.28310823553E+03  0.00000000000E+00 0. -1.
         -1   -1    0    0    0  501 -0.00000000000E+00 -0.00000000000E+00 -0.15534137401E+03  0.15534137401E+03  0.00000000000E+00 0.  1.
         23    2    1    2    0    0 -0.76060716987E+02 -0.92482776248E+02 -0.40416460873E+02  0.15787493236E+03  0.94618747549E+02 0.  0.
         23    2    1    2    0    0  0.10505535074E+03  0.88749465452E+02  0.17815324334E+03  0.24968737040E+03  0.10813006284E+03 0.  0.
        -13    1    4    4    0    0 -0.16380091045E+02  0.19678996823E+02  0.65152615675E+02  0.70003097273E+02  0.00000000000E+00 0.  1.
         13    1    4    4    0    0  0.12143544179E+03  0.69070468629E+02  0.11300062766E+03  0.17968427313E+03  0.00000000000E+00 0. -1.
        -13    1    3    3    0    0 -0.55910903175E+02  0.20519549105E+01 -0.14087062763E+02  0.57694756695E+02  0.00000000000E+00 0.  1.
         13    1    3    3    0    0 -0.20149813812E+02 -0.94534731158E+02 -0.26329398110E+02  0.10018017567E+03  0.00000000000E+00 0. -1.
         21    1    1    2  502  501 -0.28994633755E+02  0.37333107955E+01 -0.99699209524E+01  0.30887306776E+02  0.00000000000E+00 0.  1.
<scales pt_clust_5="13000.00000" pt_clust_6="13000.00000" pt_clust_7="13000.00000" pt_clust_8="13000.00000" pt_clust_9="29.23399"></scales>
<clustering>
<clus scale="   29.234">  2  9  1 -1</clus>
<clus scale="   94.619">  7  8 -1 -1</clus>
<clus scale="  108.130">  5  6 -1 -1</clus>
<clus scale="  162.747">  2  7  1 -1</clus>
<clus scale="  170.956">  1  5  2 -1</clus>
</clustering>
</event>
<event>
 9    1  0.1612788E-005  0.9972452E+02  0.7546771E-02  0.1283274E+00
         -3   -1    0    0    0  501 -0.00000000000E+00  0.00000000000E+00  0.42715087297E+03  0.42715087297E+03  0.00000000000E+00 0.  1.
          3   -1    0    0  502    0  0.00000000000E+00 -0.00000000000E+00 -0.30175057667E+02  0.30175057667E+02  0.00000000000E+00 0. -1.
         23    2    1    2    0    0 -0.45842762004E+01 -0.14850155515E+02  0.20636708734E+03  0.22594302541E+03  0.90671568235E+02 0.  0.
         23    2    1    2    0    0  0.25569821797E+02  0.30388783129E+02  0.13515055092E+03  0.17008485083E+03  0.95319940943E+02 0.  0.
        -11    1    3    3    0    0  0.31100774786E+02 -0.24876754518E+02  0.16775928446E+03  0.17242183339E+03  0.00000000000E+00 0.  1.
         11    1    3    3    0    0 -0.35685050987E+02  0.10026599004E+02  0.38607802875E+02  0.53521192012E+02  0.00000000000E+00 0. -1.
        -11    1    4    4    0    0 -0.31906355530E+02  0.29460284941E+02  0.40707730738E+02  0.59523468094E+02  0.00000000000E+00 0. -1.
         11    1    4    4    0    0  0.57476177327E+02  0.92849818761E+00  0.94442820182E+02  0.11056138274E+03  0.00000000000E+00 0.  1.
         21    1    1    2  502  501 -0.20985545597E+02 -0.15538627614E+02  0.55458177048E+02  0.61298054403E+02  0.00000000000E+00 0. -1.
<scales pt_clust_5="13000.00000" pt_clust_6="13000.00000" pt_clust_7="13000.00000" pt_clust_8="13000.00000" pt_clust_9="26.11211"></scales>
<clustering>
<clus scale="   26.112">  1  9  2 -1</clus>
<clus scale="   90.672">  5  6 -1 -1</clus>
<clus scale="   95.291">  1  5  2 -1</clus>
<clus scale="   95.320">  7  8 -1 -1</clus>
<clus scale="   99.725">  2  5  1 -1</clus>
</clustering>
</event>
<event>
 9    1  0.1612788E-005  0.1149814E+03  0.7546771E-02  0.1256157E+00
         -4   -1    0    0    0  501 -0.00000000000E+00  0.00000000000E+00  0.22212454931E+03  0.22212454931E+03  0.00000000000E+00 0.  1.
          4   -1    0    0  502    0  0.00000000000E+00 -0.00000000000E+00 -0.12956385344E+03  0.12956385344E+03  0.00000000000E+00 0. -1.
         23    2    1    2    0    0 -0.59513251826E+02  0.36779909137E+02  0.10729414985E+02  0.11446676171E+03  0.89960715491E+02 0.  0.
         23    2    1    2    0    0 -0.31383852145E+01 -0.57546075764E+02 -0.17551215598E+02  0.11791807065E+03  0.10136678904E+03 0.  0.
        -11    1    4    4    0    0 -0.44917368289E+02 -0.19334131794E+02 -0.33284531678E+02  0.59154363113E+02  0.00000000000E+00 0. -1.
         11    1    4    4    0    0  0.41778983075E+02 -0.38211943971E+02  0.15733316080E+02  0.58763707538E+02  0.00000000000E+00 0.  1.
        -13    1    3    3    0    0 -0.41572965602E+02  0.68980782756E+01 -0.36512698331E+02  0.55759053904E+02  0.00000000000E+00 0. -1.
         13    1    3    3    0    0 -0.17940286224E+02  0.29881830862E+02  0.47242113316E+02  0.58707707808E+02  0.00000000000E+00 0.  1.
         21    1    1    2  502  501  0.62651637041E+02  0.20766166627E+02  0.99382496483E+02  0.11930357039E+03  0.00000000000E+00 0.  1.
<scales pt_clust_5="13000.00000" pt_clust_6="13000.00000" pt_clust_7="13000.00000" pt_clust_8="13000.00000" pt_clust_9="66.00349"></scales>
<clustering>
<clus scale="   66.003">  1  9  2 -1</clus>
<clus scale="   89.961">  7  8 -1 -1</clus>
<clus scale="  101.367">  5  6 -1 -1</clus>
<clus scale="  105.064">  1  7  2 -1</clus>
<clus scale="  114.981">  2  5  1 -1</clus>
</clustering>
</event>
<event>
 9    1  0.1612788E-005  0.9516651E+02  0.7546771E-02  0.1293323E+00
         -2   -1    0    0    0  501 -0.00000000000E+00  0.00000000000E+00  0.19870348063E+03  0.19870348063E+03  0.00000000000E+00 0.  1.
          2   -1    0    0  502    0  0.00000000000E+00 -0.00000000000E+00 -0.94111847336E+02  0.94111847336E+02  0.00000000000E+00 0. -1.
         23    2    1    2    0    0  0.33775186055E+01 -0.31414249772E+02  0.54053857045E+02  0.11367640338E+03  0.94880148095E+02 0.  0.
         23    2    1    2    0    0  0.11687746230E+02 -0.18550145669E+02 -0.16107878145E+02  0.94492328285E+02  0.90491021931E+02 0.  0.
        -11    1    4    4    0    0  0.34193029147E+02 -0.39109202592E+02 -0.31075000511E+02  0.60533863469E+02  0.00000000000E+00 0. -1.
         11    1    4    4    0    0 -0.22505282917E+02  0.20559056923E+02  0.14967122366E+02  0.33958464816E+02  0.00000000000E+00 0.  1.
        -13    1    3    3    0    0  0.32791781597E+02 -0.47248806965E+02  0.55922076055E+02  0.80218634307E+02  0.00000000000E+00 0. -1.
         13    1    3    3    0    0 -0.29414262991E+02  0.15834557193E+02 -0.18682190096E+01  0.33457769069E+02  0.00000000000E+00 0.  1.
         21    1    1    2  502  501 -0.15065264836E+02  0.49964395441E+02  0.66645654393E+02  0.84646596304E+02  0.00000000000E+00 0.  1.
<scales pt_clust_5="13000.00000" pt_clust_6="13000.00000" pt_clust_7="13000.00000" pt_clust_8="13000.00000" pt_clust_9="52.18623"></scales>
<clustering>
<clus scale="   52.186">  1  9  2 -1</clus>
<clus scale="   90.491">  5  6 -1 -1</clus>
<clus scale="   90.791">  2  5  1 -1</clus>
<clus scale="   94.880">  7  8 -1 -1</clus>
<clus scale="   90.791">  2  5  1 -1</clus>
</clustering>
</event>
<event>
 9    1  0.1612788E-005  0.1387939E+03  0.7546771E-02  0.1216009E+00
         -1   -1    0    0    0  501 -0.00000000000E+00  0.00000000000E+00  0.13601765255E+03  0.13601765255E+03  0.00000000000E+00 0.  1.
          1   -1    0    0  502    0  0.00000000000E+00 -0.00000000000E+00 -0.30609684988E+03  0.30609684988E+03  0.00000000000E+00 0. -1.
         23    2    1    2    0    0 -0.38837240782E+02  0.74080091917E+02  0.43273181819E+01  0.12588619189E+03  0.93980936020E+02 0.  0.
         23    2    1    2    0    0  0.51729636792E+02 -0.94678461954E+02 -0.22215099073E+03  0.26265554100E+03  0.89425410557E+02 0.  0.
        -13    1    3    3    0    0 -0.10899739748E+01  0.86113150997E+02  0.97181154575E+00  0.86125531845E+02  0.00000000000E+00 0. -1.
         13    1    3    3    0    0 -0.37747266807E+02 -0.12033059080E+02  0.33555066361E+01  0.39760660042E+02  0.00000000000E+00 0.  1.
        -13    1    4    4    0    0  0.73315224885E+02 -0.58122617966E+02 -0.17982466599E+03  0.20270735412E+03  0.00000000000E+00 0. -1.
         13    1    4    4    0    0 -0.21585588093E+02 -0.36555843988E+02 -0.42326324747E+02  0.59948186875E+02  0.00000000000E+00 0.  1.
         21    1    1    2  502  501 -0.12892396010E+02  0.20598370037E+02  0.47744475217E+02  0.53572769546E+02  0.00000000000E+00 0. -1.
<scales pt_clust_5="13000.00000" pt_clust_6="13000.00000" pt_clust_7="13000.00000" pt_clust_8="13000.00000" pt_clust_9="24.30034"></scales>
<clustering>
<clus scale="   24.300">  1  9  2 -1</clus>
<clus scale="   89.425">  7  8 -1 -1</clus>
<clus scale="   93.981">  5  6 -1 -1</clus>
<clus scale="  135.751">  2  7  1 -1</clus>
<clus scale="  135.751">  2  5  1 -1</clus>
</clustering>
</event>
<event>
 9    1  0.1612788E-005  0.1111857E+03  0.7546771E-02  0.1258479E+00
         -1   -1    0    0    0  501 -0.00000000000E+00  0.00000000000E+00  0.88179307538E+02  0.88179307538E+02  0.00000000000E+00 0.  1.
          1   -1    0    0  502    0  0.00000000000E+00 -0.00000000000E+00 -0.27486596570E+03  0.27486596570E+03  0.00000000000E+00 0. -1.
         23    2    1    2    0    0 -0.67944435756E+02 -0.39062351030E+01 -0.33596594447E+02  0.11839963932E+03  0.90873749835E+02 0.  0.
         23    2    1    2    0    0  0.48052147162E+02  0.47472697555E+02 -0.16036831342E+03  0.19620275297E+03  0.90635856404E+02 0.  0.
        -11    1    3    3    0    0  0.63102073667E+01 -0.27445228440E+02 -0.28915309368E+02  0.40362784802E+02  0.00000000000E+00 0. -1.
         11    1    3    3    0    0 -0.74254643123E+02  0.23538993337E+02 -0.46812850783E+01  0.78036854515E+02  0.00000000000E+00 0.  1.
        -13    1    4    4    0    0 -0.22675900757E+02  0.34012878221E+02 -0.53100713079E+02  0.67013118786E+02  0.00000000000E+00 0.  1.
         13    1    4    4    0    0  0.70728047919E+02  0.13459819334E+02 -0.10726760034E+03  0.12918963419E+03  0.00000000000E+00 0. -1.
         21    1    1    2  502  501  0.19892288594E+02 -0.43566462452E+02  0.72782496986E+01  0.48442880951E+02  0.00000000000E+00 0.  1.
<scales pt_clust_5="13000.00000" pt_clust_6="13000.00000" pt_clust_7="13000.00000" pt_clust_8="13000.00000" pt_clust_9="47.89300"></scales>
<clustering>
<clus scale="   47.893">  1  9  2 -1</clus>
<clus scale="   90.636">  7  8 -1 -1</clus>
<clus scale="   90.874">  5  6 -1 -1</clus>
<clus scale="  110.991">  2  7  1 -1</clus>
<clus scale="  110.991">  2  5  1 -1</clus>
</clustering>
</event>
<event>
 9    1  0.1612788E-005  0.1178354E+03  0.7546771E-02  0.1258683E+00
          2   -1    0    0  502    0  0.00000000000E+00  0.00000000000E+00  0.40068569377E+02  0.40068569377E+02  0.00000000000E+00 0. -1.
         -2   -1    0    0    0  501 -0.00000000000E+00 -0.00000000000E+00 -0.47503035405E+03  0.47503035405E+03  0.00000000000E+00 0.  1.
         23    2    1    2    0    0  0.10993751566E+02 -0.14330705479E+02 -0.23682938635E+03  0.26499032911E+03  0.11749674289E+03 0.  0.
         23    2    1    2    0    0 -0.72261567175E+01 -0.97440598299E+01 -0.62348951782E+02  0.11215594501E+03  0.92435924674E+02 0.  0.
        -11    1    3    3    0    0  0.56135374995E+02 -0.23932458775E+02 -0.18864322673E+03  0.19826802541E+03  0.00000000000E+00 0.  1.
         11    1    3    3    0    0 -0.45141623429E+02  0.96017532967E+01 -0.48186159621E+02  0.66722303701E+02  0.00000000000E+00 0. -1.
        -11    1    4    4    0    0  0.17587129454E+02 -0.22675684772E+02  0.13203647787E+02  0.31588449110E+02  0.00000000000E+00 0.  1.
         11    1    4    4    0    0 -0.24813286171E+02  0.12931624942E+02 -0.75552599569E+02  0.80567495902E+02  0.00000000000E+00 0. -1.
         21    1    1    2  502  501 -0.37675948483E+01  0.24074765308E+02 -0.13578344654E+03  0.13795264930E+03  0.00000000000E+00 0.  1.
<scales pt_clust_5="13000.00000" pt_clust_6="13000.00000" pt_clust_7="13000.00000" pt_clust_8="13000.00000" pt_clust_9="24.36779"></scales>
<clustering>
<clus scale="   24.368">  2  9  1 -1</clus>
<clus scale="   92.436">  7  8 -1 -1</clus>
<clus scale="   92.866">  1  7  2 -1</clus>
<clus scale="  117.497">  5  6 -1 -1</clus>
<clus scale="   92.866">  1  5  2 -1</clus>
</clustering>
</event>
<event>
 9    1  0.1612788E-005  0.1252751E+03  0.7546771E-02  0.1234733E+00
          1   -1    0    0  502    0  0.00000000000E+00  0.00000000000E+00  0.32136705903E+03  0.32136705903E+03  0.00000000000E+00 0. -1.
         -1   -1    0    0    0  501 -0.00000000000E+00 -0.00000000000E+00 -0.13493301696E+03  0.13493301696E+03  0.00000000000E+00 0.  1.
         23    2    1    2    0    0  0.43795932775E+02 -0.61954159625E+02 -0.72252312060E+02  0.13882492700E+03  0.91079976589E+02 0.  0.
         23    2    1    2    0    0 -0.69874592273E+02  0.52599742338E+02  0.26061959488E+03  0.28970215809E+03  0.91408837780E+02 0.  0.
        -11    1    3    3    0    0  0.40271757954E+02  0.48029700302E+01 -0.22804960737E+00  0.40557798466E+02  0.00000000000E+00 0. -1.
         11    1    3    3    0    0  0.35241748211E+01 -0.66757129655E+02 -0.72024262453E+02  0.98267128532E+02  0.00000000000E+00 0.  1.
        -13    1    4    4    0    0  0.19307385901E+02  0.22936510475E+02  0.90634561633E+02  0.95464561097E+02  0.00000000000E+00 0.  1.
         13    1    4    4    0    0 -0.89181978174E+02  0.29663231863E+02  0.16998503325E+03  0.19423759699E+03  0.00000000000E+00 0. -1.
         21    1    1    2  502  501  0.26078659498E+02  0.93544172869E+01 -0.19332407462E+01  0.27772990905E+02  0.00000000000E+00 0.  1.
<scales pt_clust_5="13000.00000" pt_clust_6="13000.00000" pt_clust_7="13000.00000" pt_clust_8="13000.00000" pt_clust_9="27.70562"></scales>
<clustering>
<clus scale="   27.706">  2  9  1 -1</clus>
<clus scale="   91.080">  5  6 -1 -1</clus>
<clus scale="   91.409">  7  8 -1 -1</clus>
<clus scale="  125.035">  2  5  1 -1</clus>
<clus scale="  125.275">  1  5  2 -1</clus>
</clustering>
</event>
<event>
 9    1  0.1612788E-005  0.1001733E+03  0.7546771E-02  0.1280639E+00
         -1   -1    0    0    0  501 -0.00000000000E+00  0.00000000000E+00  0.29536020171E+03  0.29536020171E+03  0.00000000000E+00 0.  1.
          1   -1    0    0  502    0  0.00000000000E+00 -0.00000000000E+00 -0.49553623534E+02  0.49553623534E+02  0.00000000000E+00 0. -1.
         23    2    1    2    0    0 -0.16642676697E+02  0.50926731313E+02  0.11086076416E+03  0.15127608539E+03  0.87885347640E+02 0.  0.
         23    2    1    2    0    0 -0.33696105486E+01 -0.41015003046E+02  0.59590165155E+02  0.11504252491E+03  0.89387974602E+02 0.  0.
        -11    1    3    3    0    0 -0.33900562384E+02 -0.29315795769E+01  0.79800963074E+02  0.86752729043E+02  0.00000000000E+00 0. -1.
         11    1    3    3    0    0  0.17257885687E+02  0.53858310890E+02  0.31059801084E+02  0.64523356343E+02  0.00000000000E+00 0.  1.
        -13    1    4    4    0    0 -0.32937462560E+02 -0.27861529715E+02 -0.43697492163E+01  0.43361688000E+02  0.00000000000E+00 0. -1.
         13    1    4    4    0    0  0.29567852011E+02 -0.13153473331E+02  0.63959914372E+02  0.71680836907E+02  0.00000000000E+00 0.  1.
         21    1    1    2  502  501  0.20012287245E+02 -0.99117282676E+01  0.75355648858E+02  0.78595214948E+02  0.00000000000E+00 0.  1.
<scales pt_clust_5="13000.00000" pt_clust_6="13000.00000" pt_clust_7="13000.00000" pt_clust_8="13000.00000" pt_clust_9="22.33235"></scales>
<clustering>
<clus scale="   22.332">  1  9  2 -1</clus>
<clus scale="   87.885">  5  6 -1 -1</clus>
<clus scale="   89.388">  7  8 -1 -1</clus>
<clus scale="   98.835">  1  5  2 -1</clus>
<clus scale="  100.173">  2  5  1 -1</clus>
</clustering>
</event>
<event>
 9    1  0.1612788E-005  0.1167572E+03  0.7546771E-02  0.1254505E+00
         -4   -1    0    0    0  501 -0.00000000000E+00  0.00000000000E+00  0.17757185298E+03  0.17757185298E+03  0.00000000000E+00 0.  1.
          4   -1    0    0  502    0  0.00000000000E+00 -0.00000000000E+00 -0.22763403931E+03  0.22763403931E+03  0.00000000000E+00 0. -1.
         23    2    1    2    0    0  0.62220303268E+01 -0.66814728943E+02 -0.43872001266E+02  0.10776312832E+03  0.72008455506E+02 0.  0.
         23    2    1    2    0    0  0.21292843996E+02  0.79600566375E+02 -0.12513503064E+03  0.17468926204E+03  0.89821639976E+02 0.  0.
        -13    1    3    3    0    0 -0.32823339533E+02 -0.32376968327E+02 -0.16696013846E+02  0.49034646674E+02  0.00000000000E+00 0. -1.
         13    1    3    3    0    0  0.39045369860E+02 -0.34437760617E+02 -0.27175987420E+02  0.58728481643E+02  0.00000000000E+00 0.  1.
        -13    1    4    4    0    0  0.28301837443E+02  0.10641342260E+02  0.15559654521E+01  0.30276281083E+02  0.00000000000E+00 0.  1.
         13    1    4    4    0    0 -0.70089934475E+01  0.68959224114E+02 -0.12669099609E+03  0.14441298096E+03  0.00000000000E+00 0. -1.
         21    1    1    2  502  501 -0.27514874322E+02 -0.12785837431E+02  0.11894484558E+03  0.12275350193E+03  0.00000000000E+00 0.  1.
<scales pt_clust_5="13000.00000" pt_clust_6="13000.00000" pt_clust_7="13000.00000" pt_clust_8="13000.00000" pt_clust_9="30.34050"></scales>
<clustering>
<clus scale="   30.341">  1  9  2 -1</clus>
<clus scale="   72.008">  5  6 -1 -1</clus>
<clus scale="   89.822">  7  8 -1 -1</clus>
<clus scale="  103.680">  1  5  2 -1</clus>
<clus scale="  116.757">  2  5  1 -1</clus>
</clustering>
</event>
<event>
 9    1  0.1612788E-005  0.1890877E+03  0.7546771E-02  0.1159616E+00
         -1   -1    0    0    0  501 -0.00000000000E+00  0.00000000000E+00  0.37596475749E+03  0.37596475749E+03  0.00000000000E+00 0.  1.
          1   -1    0    0  502    0  0.00000000000E+00 -0.00000000000E+00 -0.17861236625E+03  0.17861236625E+03  0.00000000000E+00 0. -1.
         23    2    1    2    0    0 -0.17353980964E+03 -0.52150472038E+02  0.15054315923E+03  0.25221719784E+03  0.90080712877E+02 0.  0.
         23    2    1    2    0    0  0.12158632505E+03  0.10826423428E+03 -0.34581906180E+02  0.19067986389E+03  0.93051186947E+02 0.  0.
        -11    1    3    3    0    0 -0.68038311089E+02 -0.35550377902E+02  0.11762664138E+03  0.14046020043E+03  0.00000000000E+00 0.  1.
         11    1    3    3    0    0 -0.10550149855E+03 -0.16600094136E+02  0.32916517855E+02  0.11175699741E+03  0.00000000000E+00 0. -1.
        -11    1    4    4    0    0  0.34600005116E+02  0.91677383055E+02 -0.27852991761E+02  0.10187095792E+03  0.00000000000E+00 0. -1.
         11    1    4    4    0    0  0.86986319936E+02  0.16586851230E+02 -0.67289144193E+01  0.88808905966E+02  0.00000000000E+00 0.  1.
         21    1    1    2  502  501  0.51953484587E+02 -0.56113762246E+02  0.81391138190E+02  0.11168006201E+03  0.00000000000E+00 0. -1.
<scales pt_clust_5="13000.00000" pt_clust_6="13000.00000" pt_clust_7="13000.00000" pt_clust_8="13000.00000" pt_clust_9="76.47169"></scales>
<clustering>
<clus scale="   76.472">  1  9  2 -1</clus>
<clus scale="   90.081">  5  6 -1 -1</clus>
<clus scale="   93.051">  7  8 -1 -1</clus>
<clus scale="  187.644">  1  5  2 -1</clus>
<clus scale="  189.088">  2  5  1 -1</clus>
</clustering>
</event>
<event>
 9    1  0.1612788E-005  0.1328287E+03  0.7546771E-02  0.1235671E+00
          1   -1    0    0  502    0  0.00000000000E+00  0.00000000000E+00  0.90868732489E+02  0.90868732489E+02  0.00000000000E+00 0. -1.
         -1   -1    0    0    0  501 -0.00000000000E+00 -0.00000000000E+00 -0.44924838554E+03  0.44924838554E+03  0.00000000000E+00 0.  1.
         23    2    1    2    0    0 -0.59682275044E+02 -0.42585830282E+02 -0.18629796084E+03  0.22036277893E+03  0.92072239174E+02 0.  0.
         23    2    1    2    0    0 -0.46246464349E+02 -0.13902173827E+02  0.81267269159E+01  0.10322058478E+03  0.90864952155E+02 0.  0.
        -13    1    4    4    0    0  0.13678670155E+02  0.22545943627E+02  0.18646066406E+02  0.32297080111E+02  0.00000000000E+00 0.  1.
         13    1    4    4    0    0 -0.59925134505E+02 -0.36448117454E+02 -0.10519339490E+02  0.70923504670E+02  0.00000000000E+00 0. -1.
        -13    1    3    3    0    0  0.20840019969E+02 -0.56357060085E+01 -0.75350518629E+02  0.78382193591E+02  0.00000000000E+00 0.  1.
         13    1    3    3    0    0 -0.80522295014E+02 -0.36950124274E+02 -0.11094744221E+03  0.14198058533E+03  0.00000000000E+00 0. -1.
         21    1    1    2  502  501  0.10592873939E+03  0.56488004109E+02 -0.18020841913E+03  0.21653375433E+03  0.00000000000E+00 0.  1.
<scales pt_clust_5="13000.00000" pt_clust_6="13000.00000" pt_clust_7="13000.00000" pt_clust_8="13000.00000" pt_clust_9="95.74008"></scales>
<clustering>
<clus scale="   90.865">  5  6 -1 -1</clus>
<clus scale="   92.072">  7  8 -1 -1</clus>
<clus scale="  102.900">  1  5  2 -1</clus>
<clus scale="   95.740">  1  9  2 -1</clus>
<clus scale="  102.900">  1  5  2 -1</clus>
</clustering>
</event>
<event>
 9    1  0.1612788E-005  0.1158073E+03  0.7546771E-02  0.1250491E+00
          1   -1    0    0  502    0  0.00000000000E+00  0.00000000000E+00  0.56312251719E+03  0.56312251719E+03  0.00000000000E+00 0. -1.
         -1   -1    0    0    0  501 -0.00000000000E+00 -0.00000000000E+00 -0.58936377321E+02  0.58936377321E+02  0.00000000000E+00 0.  1.
         23    2    1    2    0    0 -0.45727232605E+02 -0.56822186956E+02  0.23454870157E+03  0.26248925030E+03  0.92562262212E+02 0.  0.
         23    2    1    2    0    0  0.64443166534E+02  0.24900268849E+02  0.29340878525E+03  0.31558814839E+03  0.93457043819E+02 0.  0.
        -13    1    4    4    0    0  0.73096194257E+02  0.44334323101E+02  0.27313434348E+03  0.28620090043E+03  0.00000000000E+00 0.  1.
         13    1    4    4    0    0 -0.86530277231E+01 -0.19434054252E+02  0.20274441777E+02  0.29387247963E+02  0.00000000000E+00 0. -1.
        -13    1    3    3    0    0 -0.20038399307E+01  0.22511287712E+02  0.82145633053E+02  0.85197878369E+02  0.00000000000E+00 0.  1.
         13    1    3    3    0    0 -0.43723392675E+02 -0.79333474668E+02  0.15240306851E+03  0.17729137193E+03  0.00000000000E+00 0. -1.
         21    1    1    2  502  501 -0.18715933929E+02  0.31921918108E+02 -0.23771346950E+02  0.43981495818E+02  0.00000000000E+00 0.  1.
<scales pt_clust_5="13000.00000" pt_clust_6="13000.00000" pt_clust_7="13000.00000" pt_clust_8="13000.00000" pt_clust_9="37.00399"></scales>
<clustering>
<clus scale="   37.004">  2  9  1 -1</clus>
<clus scale="   92.562">  7  8 -1 -1</clus>
<clus scale="   93.457">  5  6 -1 -1</clus>
<clus scale="  115.086">  2  7  1 -1</clus>
<clus scale="  115.807">  1  5  2 -1</clus>
</clustering>
</event>
<event>
 9    1  0.1612788E-005  0.1211777E+03  0.7546771E-02  0.1243401E+00
          1   -1    0    0  502    0  0.00000000000E+00  0.00000000000E+00  0.69469359921E+03  0.69469359921E+03  0.00000000000E+00 0. -1.
         -1   -1    0    0    0  501 -0.00000000000E+00 -0.00000000000E+00 -0.39929906134E+02  0.39929906134E+02  0.00000000000E+00 0.  1.
         23    2    1    2    0    0 -0.68135306063E+01  0.94269120300E+02  0.13902095164E+03  0.19419602207E+03  0.97222316116E+02 0.  0.
         23    2    1    2    0    0 -0.34016389526E+01 -0.67183852322E+02  0.48607973077E+03  0.49898046128E+03  0.90458581204E+02 0.  0.
        -13    1    4    4    0    0 -0.27332060881E+02  0.39299933688E+01  0.56378739193E+02  0.62777771805E+02  0.00000000000E+00 0.  1.
         13    1    4    4    0    0  0.23930421928E+02 -0.71113845691E+02  0.42970099158E+03  0.43620268948E+03  0.00000000000E+00 0. -1.
        -13    1    3    3    0    0 -0.44981882236E+02  0.17732257700E+02  0.65499953842E+02  0.81412816226E+02  0.00000000000E+00 0. -1.
         13    1    3    3    0    0  0.38168351630E+02  0.76536862600E+02  0.73520997793E+02  0.11278320584E+03  0.00000000000E+00 0.  1.
         21    1    1    2  502  501  0.10215169559E+02 -0.27085267977E+02  0.29663010674E+02  0.41447022001E+02  0.00000000000E+00 0.  1.
<scales pt_clust_5="13000.00000" pt_clust_6="13000.00000" pt_clust_7="13000.00000" pt_clust_8="13000.00000" pt_clust_9="28.94756"></scales>
<clustering>
<clus scale="   28.948">  2  9  1 -1</clus>
<clus scale="   90.459">  5  6 -1 -1</clus>
<clus scale="   97.222">  7  8 -1 -1</clus>
<clus scale="  115.821">  1  5  2 -1</clus>
<clus scale="  115.821">  1  5  2 -1</clus>
</clustering>
</event>
<event>
 9    1  0.1612788E-005  0.1191869E+03  0.7546771E-02  0.1244952E+00
          1   -1    0    0  502    0  0.00000000000E+00  0.00000000000E+00  0.50206184219E+03  0.50206184219E+03  0.00000000000E+00 0. -1.
         -1   -1    0    0    0  501 -0.00000000000E+00 -0.00000000000E+00 -0.52802895615E+02  0.52802895615E+02  0.00000000000E+00 0.  1.
         23    2    1    2    0    0  0.14751826027E+02  0.72487559450E+02  0.18222093047E+03  0.21724012760E+03  0.92286200995E+02 0.  0.
         23    2    1    2    0    0  0.19459280016E+02 -0.77234645324E+02  0.27659235854E+03  0.30178859395E+03  0.90714765167E+02 0.  0.
        -11    1    3    3    0    0  0.33939875044E+02 -0.19481752652E+01  0.95419998847E+02  0.10129504768E+03  0.00000000000E+00 0. -1.
         11    1    3    3    0    0 -0.19188049017E+02  0.74435734715E+02  0.86800931622E+02  0.11594507992E+03  0.00000000000E+00 0.  1.
        -13    1    4    4    0    0  0.12809553383E+02 -0.57765556832E+02  0.27484424304E+03  0.28114107161E+03  0.00000000000E+00 0. -1.
         13    1    4    4    0    0  0.66497266338E+01 -0.19469088492E+02  0.17481155000E+01  0.20647522341E+02  0.00000000000E+00 0.  1.
         21    1    1    2  502  501 -0.34211106043E+02  0.47470858739E+01 -0.95543424386E+01  0.35836016246E+02  0.00000000000E+00 0.  1.
<scales pt_clust_5="13000.00000" pt_clust_6="13000.00000" pt_clust_7="13000.00000" pt_clust_8="13000.00000" pt_clust_9="34.53889"></scales>
<clustering>
<clus scale="   34.539">  2  9  1 -1</clus>
<clus scale="   90.715">  7  8 -1 -1</clus>
<clus scale="   92.286">  5  6 -1 -1</clus>
<clus scale="  117.974">  1  7  2 -1</clus>
<clus scale="  117.974">  1  5  2 -1</clus>
</clustering>
</event>
<event>
 9    1  0.1612788E-005  0.1129055E+03  0.7546771E-02  0.1257661E+00
         -2   -1    0    0    0  501 -0.00000000000E+00  0.00000000000E+00  0.47406970679E+02  0.47406970679E+02  0.00000000000E+00 0.  1.
          2   -1    0    0  502    0  0.00000000000E+00 -0.00000000000E+00 -0.48357505552E+03  0.48357505552E+03  0.00000000000E+00 0. -1.
         23    2    1    2    0    0  0.37363043203E+02 -0.48422591554E+02 -0.10697420207E+03  0.15330125471E+03  0.91197864117E+02 0.  0.
         23    2    1    2    0    0  0.79696803364E+01  0.89831397531E+02 -0.22238030081E+03  0.25447814843E+03  0.84693175942E+02 0.  0.
        -11    1    3    3    0    0 -0.23984515990E+02 -0.15127900387E+02 -0.67261378411E+02  0.72994543654E+02  0.00000000000E+00 0. -1.
         11    1    3    3    0    0  0.61347559193E+02 -0.33294691168E+02 -0.39712823654E+02  0.80306711061E+02  0.00000000000E+00 0.  1.
        -13    1    4    4    0    0  0.38775243957E+02  0.27447831453E+02 -0.51967736257E+02  0.70409861576E+02  0.00000000000E+00 0.  1.
         13    1    4    4    0    0 -0.30805563621E+02  0.62383566078E+02 -0.17041256455E+03  0.18406828685E+03  0.00000000000E+00 0. -1.
         21    1    1    2  502  501 -0.45332723540E+02 -0.41408805977E+02 -0.10681358196E+03  0.12320262306E+03  0.00000000000E+00 0.  1.
<scales pt_clust_5="13000.00000" pt_clust_6="13000.00000" pt_clust_7="13000.00000" pt_clust_8="13000.00000" pt_clust_9="61.39825"></scales>
<clustering>
<clus scale="   61.398">  2  9  1 -1</clus>
<clus scale="   84.693">  7  8 -1 -1</clus>
<clus scale="   91.198">  5  6 -1 -1</clus>
<clus scale="  107.720">  2  7  1 -1</clus>
<clus scale="   61.398">  2  5  1 -1</clus>
</clustering>
</event>
<event>
 9    1  0.1612788E-005  0.9639958E+02  0.7546771E-02  0.1291229E+00
          3   -1    0    0  502    0  0.00000000000E+00  0.00000000000E+00  0.15206297526E+03  0.15206297526E+03  0.00000000000E+00 0. -1.
         -3   -1    0    0    0  501 -0.00000000000E+00 -0.00000000000E+00 -0.15159708177E+03  0.15159708177E+03  0.00000000000E+00 0.  1.
         23    2    1    2    0    0 -0.39361270479E+02  0.78997460815E+01 -0.94598417390E+02  0.13662054411E+03  0.90025534698E+02 0.  0.
         23    2    1    2    0    0  0.21835811008E+02 -0.27128123865E+02  0.10523805945E+03  0.13910427708E+03  0.84036973997E+02 0.  0.
        -13    1    4    4    0    0  0.22140067046E+02 -0.53846686361E+02  0.46280363127E+02  0.74374190496E+02  0.00000000000E+00 0. -1.
         13    1    4    4    0    0 -0.30425603711E+00  0.26718562496E+02  0.58957696321E+02  0.64730086583E+02  0.00000000000E+00 0.  1.
        -13    1    3    3    0    0 -0.66353013429E+02  0.13853151497E+02 -0.50307757954E+02  0.84412692812E+02  0.00000000000E+00 0. -1.
         13    1    3    3    0    0  0.26991742950E+02 -0.59534054159E+01 -0.44290659436E+02  0.52207851295E+02  0.00000000000E+00 0.  1.
         21    1    1    2  502  501  0.17525459470E+02  0.19228377783E+02 -0.10173748559E+02  0.27935235842E+02  0.00000000000E+00 0. -1.
<scales pt_clust_5="13000.00000" pt_clust_6="13000.00000" pt_clust_7="13000.00000" pt_clust_8="13000.00000" pt_clust_9="26.01677"></scales>
<clustering>
<clus scale="   26.017">  2  9  1 -1</clus>
<clus scale="   84.037">  5  6 -1 -1</clus>
<clus scale="   90.026">  7  8 -1 -1</clus>
<clus scale="   90.832">  1  5  2 -1</clus>
<clus scale="   90.832">  1  5  2 -1</clus>
</clustering>
</event>
<event>
 9    1  0.1612788E-005  0.9302790E+02  0.7546771E-02  0.1297050E+00
          2   -1    0    0  502    0  0.00000000000E+00  0.00000000000E+00  0.11961967028E+03  0.11961967028E+03  0.00000000000E+00 0. -1.
         -2   -1    0    0    0  501 -0.00000000000E+00 -0.00000000000E+00 -0.97686500972E+02  0.97686500972E+02  0.00000000000E+00 0.  1.
         23    2    1    2    0    0  0.17300020145E+01 -0.19556387719E+02  0.47789603903E+01  0.93453363262E+02  0.91242793880E+02 0.  0.
         23    2    1    2    0    0  0.25264112643E+02  0.72124860200E+01  0.16744068102E+02  0.94167418476E+02  0.88864185945E+02 0.  0.
        -11    1    3    3    0    0  0.25126562407E+02  0.71232085949E+00  0.39573639867E+02  0.46882027598E+02  0.00000000000E+00 0. -1.
         11    1    3    3    0    0 -0.23396560393E+02 -0.20268708578E+02 -0.34794679477E+02  0.46571335664E+02  0.00000000000E+00 0.  1.
        -13    1    4    4    0    0  0.42623080798E+02  0.36452710871E+02  0.21020473151E+02  0.59894803097E+02  0.00000000000E+00 0.  1.
         13    1    4    4    0    0 -0.17358968155E+02 -0.29240224851E+02 -0.42764050492E+01  0.34272615379E+02  0.00000000000E+00 0. -1.
         21    1    1    2  502  501 -0.26994114658E+02  0.12343901699E+02  0.41014081870E+00  0.29685389517E+02  0.00000000000E+00 0. -1.
<scales pt_clust_5="13000.00000" pt_clust_6="13000.00000" pt_clust_7="13000.00000" pt_clust_8="13000.00000" pt_clust_9="29.68256"></scales>
<clustering>
<clus scale="   29.683">  2  9  1 -1</clus>
<clus scale="   88.864">  7  8 -1 -1</clus>
<clus scale="   90.696">  1  7  2 -1</clus>
<clus scale="   91.243">  5  6 -1 -1</clus>
<clus scale="   90.696">  1  5  2 -1</clus>
</clustering>
</event>
<event>
 9    1  0.1612788E-005  0.1032495E+03  0.7546771E-02  0.1275159E+00
          1   -1    0    0  502    0  0.00000000000E+00  0.00000000000E+00  0.63873731522E+03  0.63873731522E+03  0.00000000000E+00 0. -1.
         -1   -1    0    0    0  501 -0.00000000000E+00 -0.00000000000E+00 -0.53786717472E+02  0.53786717472E+02  0.00000000000E+00 0.  1.
         23    2    1    2    0    0 -0.19863587911E+02 -0.26416429890E+02  0.18991477131E+02  0.96641057711E+02  0.88805562546E+02 0.  0.
         23    2    1    2    0    0  0.67891757275E+01  0.48098819776E+02  0.56033605869E+03  0.56994680119E+03  0.92213166927E+02 0.  0.
        -11    1    3    3    0    0 -0.27870008316E+02  0.26003175136E+02  0.21108207488E+02  0.43571308266E+02  0.00000000000E+00 0. -1.
         11    1    3    3    0    0  0.80064204045E+01 -0.52419605025E+02 -0.21167303575E+01  0.53069749445E+02  0.00000000000E+00 0.  1.
        -11    1    4    4    0    0 -0.29451750557E+02 -0.13361862485E+02  0.14912948030E+03  0.15259602509E+03  0.00000000000E+00 0.  1.
         11    1    4    4    0    0  0.36240926284E+02  0.61460682261E+02  0.41120657839E+03  0.41735077610E+03  0.00000000000E+00 0. -1.
         21    1    1    2  502  501  0.13074412184E+02 -0.21682389886E+02  0.56230619267E+01  0.25936173784E+02  0.00000000000E+00 0. -1.
<scales pt_clust_5="13000.00000" pt_clust_6="13000.00000" pt_clust_7="13000.00000" pt_clust_8="13000.00000" pt_clust_9="25.31929"></scales>
<clustering>
<clus scale="   25.319">  2  9  1 -1</clus>
<clus scale="   88.806">  5  6 -1 -1</clus>
<clus scale="   92.213">  7  8 -1 -1</clus>
<clus scale="  100.218">  2  5  1 -1</clus>
<clus scale="  103.250">  1  5  2 -1</clus>
</clustering>
</event>
<event>
 9    1  0.1612788E-005  0.1011013E+03  0.7546771E-02  0.1281508E+00
          2   -1    0    0  502    0  0.00000000000E+00  0.00000000000E+00  0.56400635565E+03  0.56400635565E+03  0.00000000000E+00 0. -1.
         -2   -1    0    0    0  501 -0.00000000000E+00 -0.00000000000E+00 -0.26279809963E+02  0.26279809963E+02  0.00000000000E+00 0.  1.
         23    2    1    2    0    0 -0.19215762256E+02 -0.27380499402E+02  0.23346161653E+03  0.25292373521E+03  0.91362750470E+02 0.  0.
         23    2    1    2    0    0  0.18828322117E+02  0.51431537325E+01  0.29787178057E+03  0.31422108210E+03  0.98113877880E+02 0.  0.
        -13    1    4    4    0    0 -0.27060520606E+02  0.34511344283E+02  0.16205394854E+03  0.16788325377E+03  0.00000000000E+00 0.  1.
         13    1    4    4    0    0  0.45888842723E+02 -0.29368190550E+02  0.13581783202E+03  0.14633782832E+03  0.00000000000E+00 0. -1.
        -13    1    3    3    0    0  0.34560580456E+02  0.39839279094E+01  0.75174024167E+02  0.82833805372E+02  0.00000000000E+00 0. -1.
         13    1    3    3    0    0 -0.53776342713E+02 -0.31364427311E+02  0.15828759237E+03  0.17008992984E+03  0.00000000000E+00 0.  1.
         21    1    1    2  502  501  0.38744013888E+00  0.22237345669E+02  0.63931485836E+01  0.23141348299E+02  0.00000000000E+00 0.  1.
<scales pt_clust_5="13000.00000" pt_clust_6="13000.00000" pt_clust_7="13000.00000" pt_clust_8="13000.00000" pt_clust_9="22.24072"></scales>
<clustering>
<clus scale="   22.241">  2  9  1 -1</clus>
<clus scale="   91.363">  7  8 -1 -1</clus>
<clus scale="   94.564">  2  7  1 -1</clus>
<clus scale="   98.114">  5  6 -1 -1</clus>
<clus scale="  101.101">  1  5  2 -1</clus>
</clustering>
</event>
<event>
 9    1  0.1612788E-005  0.9819102E+02  0.7546771E-02  0.1284937E+00
          2   -1    0    0  502    0  0.00000000000E+00  0.00000000000E+00  0.32229542906E+03  0.32229542906E+03  0.00000000000E+00 0. -1.
         -2   -1    0    0    0  501 -0.00000000000E+00 -0.00000000000E+00 -0.80513093631E+02  0.80513093631E+02  0.00000000000E+00 0.  1.
         23    2    1    2    0    0 -0.29998550720E+02  0.22094864864E+02  0.12200586896E+03  0.15885159088E+03  0.94658859948E+02 0.  0.
         23    2    1    2    0    0 -0.16370018512E+02 -0.28688617338E+02  0.15605233830E+03  0.18471623075E+03  0.93149016876E+02 0.  0.
        -13    1    4    4    0    0 -0.46553003183E+02  0.49038146958E+01  0.11304511922E+03  0.12235370237E+03  0.00000000000E+00 0.  1.
         13    1    4    4    0    0  0.30182984672E+02 -0.33592432034E+02  0.43007219072E+02  0.62362528380E+02  0.00000000000E+00 0. -1.
        -13    1    3    3    0    0 -0.60678118700E+02  0.26898928386E+02  0.10271606318E+03  0.12229462814E+03  0.00000000000E+00 0.  1.
         13    1    3    3    0    0  0.30679567980E+02 -0.48040635212E+01  0.19289805779E+02  0.36556962740E+02  0.00000000000E+00 0. -1.
         21    1    1    2  502  501  0.46368569232E+02  0.65937524735E+01 -0.36275871829E+02  0.59240701053E+02  0.00000000000E+00 0.  1.
<scales pt_clust_5="13000.00000" pt_clust_6="13000.00000" pt_clust_7="13000.00000" pt_clust_8="13000.00000" pt_clust_9="46.83505"></scales>
<clustering>
<clus scale="   46.835">  2  9  1 -1</clus>
<clus scale="   93.149">  5  6 -1 -1</clus>
<clus scale="   94.659">  7  8 -1 -1</clus>
<clus scale="   96.736">  1  5  2 -1</clus>
<clus scale="   96.736">  1  5  2 -1</clus>
</clustering>
</event>
<event>
 9    1  0.1612788E-005  0.9139989E+02  0.7546771E-02  0.1299530E+00
         -2   -1    0    0    0  501 -0.00000000000E+00  0.00000000000E+00  0.24346904721E+03  0.24346904721E+03  0.00000000000E+00 0.  1.
          2   -1    0    0  502    0  0.00000000000E+00 -0.00000000000E+00 -0.11575901205E+03  0.11575901205E+03  0.00000000000E+00 0. -1.
         23    2    1    2    0    0 -0.79761843445E+01 -0.85242517703E+01  0.15490504917E+03  0.18002338356E+03  0.90975612020E+02 0.  0.
         23    2    1    2    0    0 -0.16650284409E+00 -0.10231561304E+02 -0.80602364173E+02  0.12201701157E+03  0.91031299192E+02 0.  0.
        -13    1    3    3    0    0  0.19972683152E+02 -0.28615533044E+02  0.18810204469E+02  0.39643165816E+02  0.00000000000E+00 0.  1.
         13    1    3    3    0    0 -0.27948867497E+02  0.20091281274E+02  0.13609484471E+03  0.14038021774E+03  0.00000000000E+00 0. -1.
        -13    1    4    4    0    0  0.99323295707E+01 -0.39772198404E+02 -0.81014065635E+02  0.90795141760E+02  0.00000000000E+00 0. -1.
         13    1    4    4    0    0 -0.10098832415E+02  0.29540637100E+02  0.41170146210E+00  0.31221869811E+02  0.00000000000E+00 0.  1.
         21    1    1    2  502  501  0.81426871885E+01  0.18755813074E+02  0.53407350158E+02  0.57187664139E+02  0.00000000000E+00 0. -1.
<scales pt_clust_5="13000.00000" pt_clust_6="13000.00000" pt_clust_7="13000.00000" pt_clust_8="13000.00000" pt_clust_9="20.44710"></scales>
<clustering>
<clus scale="   20.447">  1  9  2 -1</clus>
<clus scale="   90.976">  5  6 -1 -1</clus>
<clus scale="   91.031">  7  8 -1 -1</clus>
<clus scale="   91.344">  1  5  2 -1</clus>
<clus scale="   91.400">  2  5  1 -1</clus>
</clustering>
</event>
<event>
 9    1  0.1612788E-005  0.9449991E+02  0.7546771E-02  0.1295775E+00
          2   -1    0    0  502    0  0.00000000000E+00  0.00000000000E+00  0.52107128244E+03  0.52107128244E+03  0.00000000000E+00 0. -1.
         -2   -1    0    0    0  501 -0.00000000000E+00 -0.00000000000E+00 -0.21719800192E+02  0.21719800192E+02  0.00000000000E+00 0.  1.
         23    2    1    2    0    0  0.14406048714E+02  0.15561814390E+01  0.17836221817E+03  0.19860335650E+03  0.86140910157E+02 0.  0.
         23    2    1    2    0    0 -0.18119139159E+02  0.24799844648E+02  0.26299201568E+03  0.28037465558E+03  0.92205269268E+02 0.  0.
        -11    1    3    3    0    0 -0.29291769884E+01  0.40294560223E+02  0.55719853014E+02  0.68825385443E+02  0.00000000000E+00 0.  1.
         11    1    3    3    0    0  0.17335225703E+02 -0.38738378784E+02  0.12264236515E+03  0.12977797106E+03  0.00000000000E+00 0. -1.
        -13    1    4    4    0    0 -0.26814692416E+02  0.52487611625E+02  0.11141821300E+03  0.12604759137E+03  0.00000000000E+00 0.  1.
         13    1    4    4    0    0  0.86955532567E+01 -0.27687766977E+02  0.15157380268E+03  0.15432706420E+03  0.00000000000E+00 0. -1.
         21    1    1    2  502  501  0.37130904449E+01 -0.26356026087E+02  0.57997248405E+02  0.63813070560E+02  0.00000000000E+00 0. -1.
<scales pt_clust_5="13000.00000" pt_clust_6="13000.00000" pt_clust_7="13000.00000" pt_clust_8="13000.00000" pt_clust_9="26.61629"></scales>
<clustering>
<clus scale="   26.616">  2  9  1 -1</clus>
<clus scale="   86.141">  5  6 -1 -1</clus>
<clus scale="   88.593">  2  5  1 -1</clus>
<clus scale="   92.205">  7  8 -1 -1</clus>
<clus scale="   94.500">  1  5  2 -1</clus>
</clustering>
</event>
<event>
 9    1  0.1612788E-005  0.9701003E+02  0.7546771E-02  0.1286731E+00
         -1   -1    0    0    0  501 -0.00000000000E+00  0.00000000000E+00  0.15076603206E+03  0.15076603206E+03  0.00000000000E+00 0.  1.
          1   -1    0    0  502    0  0.00000000000E+00 -0.00000000000E+00 -0.98779322186E+02  0.98779322186E+02  0.00000000000E+00 0. -1.
         23    2    1    2    0    0  0.15400213140E+02  0.10654979183E+02  0.72484655493E+02  0.11789233629E+03  0.91070755607E+02 0.  0.
         23    2    1    2    0    0 -0.26137346170E+02 -0.28839842757E+02 -0.36116137948E+02  0.10538700912E+03  0.91033778760E+02 0.  0.
        -13    1    4    4    0    0  0.24337777543E+02 -0.59075234196E+00  0.14661314171E+02  0.28418841237E+02  0.00000000000E+00 0.  1.
         13    1    4    4    0    0 -0.50475123712E+02 -0.28249090415E+02 -0.50777452120E+02  0.76968167880E+02  0.00000000000E+00 0. -1.
        -13    1    3    3    0    0 -0.36197820491E+02 -0.62867523559E+00  0.13304855367E+02  0.38570670427E+02  0.00000000000E+00 0. -1.
         13    1    3    3    0    0  0.51598033631E+02  0.11283654418E+02  0.59179800126E+02  0.79321665858E+02  0.00000000000E+00 0.  1.
         21    1    1    2  502  501  0.10737133030E+02  0.18184863575E+02  0.15618192331E+02  0.26266008844E+02  0.00000000000E+00 0. -1.
<scales pt_clust_5="13000.00000" pt_clust_6="13000.00000" pt_clust_7="13000.00000" pt_clust_8="13000.00000" pt_clust_9="21.11813"></scales>
<clustering>
<clus scale="   21.118">  1  9  2 -1</clus>
<clus scale="   91.034">  5  6 -1 -1</clus>
<clus scale="   91.071">  7  8 -1 -1</clus>
<clus scale="   96.975">  2  5  1 -1</clus>
<clus scale="   96.975">  2  5  1 -1</clus>
</clustering>
</event>
<event>
 9    1  0.1612788E-005  0.1306126E+03  0.7546771E-02  0.1226553E+00
         -1   -1    0    0    0  501 -0.00000000000E+00  0.00000000000E+00  0.31190368753E+02  0.31190368753E+02  0.00000000000E+00 0.  1.
          1   -1    0    0  502    0  0.00000000000E+00 -0.00000000000E+00 -0.70200250834E+03  0.70200250834E+03  0.00000000000E+00 0. -1.
         23    2    1    2    0    0 -0.92592732689E+02 -0.67917306313E+01 -0.21446327895E+03  0.25053423500E+03  0.90295975208E+02 0.  0.
         23    2    1    2    0    0  0.94999141905E+02 -0.14030533974E+02 -0.42482569794E+03  0.44480276679E+03  0.90282528014E+02 0.  0.
        -11    1    4    4    0    0 -0.14868879107E+02 -0.14637258016E+02 -0.91008922004E+02  0.93369999317E+02  0.00000000000E+00 0. -1.
         11    1    4    4    0    0  0.10986802101E+03  0.60672404209E+00 -0.33381677594E+03  0.35143276747E+03  0.00000000000E+00 0.  1.
        -13    1    3    3    0    0 -0.61344941904E+01  0.27760429919E+02 -0.19485935501E+02  0.34467015690E+02  0.00000000000E+00 0.  1.
         13    1    3    3    0    0 -0.86458238498E+02 -0.34552160550E+02 -0.19497734345E+03  0.21606721931E+03  0.00000000000E+00 0. -1.
         21    1    1    2  502  501 -0.24064092159E+01  0.20822264605E+02 -0.31523162696E+02  0.37855875303E+02  0.00000000000E+00 0. -1.
<scales pt_clust_5="13000.00000" pt_clust_6="13000.00000" pt_clust_7="13000.00000" pt_clust_8="13000.00000" pt_clust_9="20.96086"></scales>
<clustering>
<clus scale="   20.961">  1  9  2 -1</clus>
<clus scale="   90.283">  5  6 -1 -1</clus>
<clus scale="   90.296">  7  8 -1 -1</clus>
<clus scale="  130.603">  2  5  1 -1</clus>
<clus scale="  130.603">  2  5  1 -1</clus>
</clustering>
</event>
<event>
 9    1  0.1612788E-005  0.9717283E+02  0.7546771E-02  0.1286667E+00
          3   -1    0    0  502    0  0.00000000000E+00  0.00000000000E+00  0.38797160981E+03  0.38797160981E+03  0.00000000000E+00 0. -1.
         -3   -1    0    0    0  501 -0.00000000000E+00 -0.00000000000E+00 -0.68602865828E+02  0.68602865828E+02  0.00000000000E+00 0.  1.
         23    2    1    2    0    0  0.51155650256E+02 -0.40054741179E+02  0.83892192212E+02  0.14036965393E+03  0.91893726595E+02 0.  0.
         23    2    1    2    0    0  0.44470853624E+02  0.22788293239E+02  0.16863529149E+03  0.19826283365E+03  0.91505882553E+02 0.  0.
        -11    1    3    3    0    0  0.21064307558E+02 -0.61101506282E+02  0.80871381837E+02  0.10352429436E+03  0.00000000000E+00 0. -1.
         11    1    3    3    0    0  0.30091342698E+02  0.21046765103E+02  0.30208103747E+01  0.36845359573E+02  0.00000000000E+00 0.  1.
        -13    1    4    4    0    0  0.61812497612E+02 -0.98517866084E+01  0.75564517653E+02  0.98121551601E+02  0.00000000000E+00 0. -1.
         13    1    4    4    0    0 -0.17341643988E+02  0.32640079848E+02  0.93070773836E+02  0.10014128205E+03  0.00000000000E+00 0.  1.
         21    1    1    2  502  501 -0.95626503881E+02  0.17266447940E+02  0.66841260279E+02  0.11794198805E+03  0.00000000000E+00 0. -1.
<scales pt_clust_5="13000.00000" pt_clust_6="13000.00000" pt_clust_7="13000.00000" pt_clust_8="13000.00000" pt_clust_9="97.17283"></scales>
<clustering>
<clus scale="   91.506">  7  8 -1 -1</clus>
<clus scale="   91.894">  5  6 -1 -1</clus>
<clus scale="   97.173">  2  9  1 -1</clus>
<clus scale="   96.605">  1  7  2 -1</clus>
<clus scale="   96.605">  1  5  2 -1</clus>
</clustering>
</event>
<event>
 9    1  0.1612788E-005  0.1130107E+03  0.7546771E-02  0.1255651E+00
          1   -1    0    0  502    0  0.00000000000E+00  0.00000000000E+00  0.56771294576E+03  0.56771294576E+03  0.00000000000E+00 0. -1.
         -1   -1    0    0    0  501 -0.00000000000E+00 -0.00000000000E+00 -0.66000130346E+02  0.66000130346E+02  0.00000000000E+00 0.  1.
         23    2    1    2    0    0  0.36547099755E+02 -0.47522600746E+02  0.15861729290E+03  0.19164741651E+03  0.89303967238E+02 0.  0.
         23    2    1    2    0    0 -0.56520720377E+02  0.44085355780E+02  0.38148697027E+03  0.39865294907E+03  0.90850178250E+02 0.  0.
        -11    1    3    3    0    0  0.36889085441E+02 -0.70397202347E+02  0.14406648051E+03  0.16453486418E+03  0.00000000000E+00 0. -1.
         11    1    3    3    0    0 -0.34198568619E+00  0.22874601601E+02  0.14550812388E+02  0.27112552328E+02  0.00000000000E+00 0.  1.
        -11    1    4    4    0    0 -0.50367102299E+02  0.70368898430E+02  0.25391726426E+03  0.26825846482E+03  0.00000000000E+00 0.  1.
         11    1    4    4    0    0 -0.61536180776E+01 -0.26283542650E+02  0.12756970601E+03  0.13039448425E+03  0.00000000000E+00 0. -1.
         21    1    1    2  502  501  0.19973620622E+02  0.34372449660E+01 -0.38391447764E+02  0.43412710525E+02  0.00000000000E+00 0.  1.
<scales pt_clust_5="13000.00000" pt_clust_6="13000.00000" pt_clust_7="13000.00000" pt_clust_8="13000.00000" pt_clust_9="20.26722"></scales>
<clustering>
<clus scale="   20.267">  2  9  1 -1</clus>
<clus scale="   89.304">  5  6 -1 -1</clus>
<clus scale="   90.850">  7  8 -1 -1</clus>
<clus scale="  111.771">  2  5  1 -1</clus>
<clus scale="  113.011">  1  5  2 -1</clus>
</clustering>
</event>
<event>
 9    1  0.1612788E-005  0.1128821E+03  0.7546771E-02  0.1262389E+00
         -4   -1    0    0    0  501 -0.00000000000E+00  0.00000000000E+00  0.27578545495E+03  0.27578545495E+03  0.00000000000E+00 0.  1.
          4   -1    0    0  502    0  0.00000000000E+00 -0.00000000000E+00 -0.15736860243E+03  0.15736860243E+03  0.00000000000E+00 0. -1.
         23    2    1    2    0    0  0.41636370782E+01  0.13379104899E+02  0.58711130034E+02  0.11036130115E+03  0.92392010906E+02 0.  0.
         23    2    1    2    0    0 -0.23891187800E+02  0.40517333498E+02 -0.99163934993E+02  0.15387392841E+03  0.10784830398E+03 0.  0.
        -11    1    3    3    0    0 -0.35454008895E+02 -0.20189821850E+02  0.32682631684E+02  0.52275903309E+02  0.00000000000E+00 0. -1.
         11    1    3    3    0    0  0.39617645973E+02  0.33568926749E+02  0.26028498350E+02  0.58085397837E+02  0.00000000000E+00 0.  1.
        -11    1    4    4    0    0  0.35198772041E+02  0.39514717607E+02 -0.23595705995E+02  0.57940692109E+02  0.00000000000E+00 0.  1.
         11    1    4    4    0    0 -0.59089959841E+02  0.10026158911E+01 -0.75568228998E+02  0.95933236298E+02  0.00000000000E+00 0. -1.
         21    1    1    2  502  501  0.19727550722E+02 -0.53896438397E+02  0.15886965748E+03  0.16891882783E+03  0.00000000000E+00 0. -1.
<scales pt_clust_5="13000.00000" pt_clust_6="13000.00000" pt_clust_7="13000.00000" pt_clust_8="13000.00000" pt_clust_9="57.39340"></scales>
<clustering>
<clus scale="   57.393">  1  9  2 -1</clus>
<clus scale="   92.392">  5  6 -1 -1</clus>
<clus scale="   98.221">  1  5  2 -1</clus>
<clus scale="  107.848">  7  8 -1 -1</clus>
<clus scale="  112.882">  2  5  1 -1</clus>
</clustering>
</event>
<event>
 9    1  0.1612788E-005  0.2086980E+03  0.7546771E-02  0.1144075E+00
         -1   -1    0    0    0  501 -0.00000000000E+00  0.00000000000E+00  0.10709527305E+03  0.10709527305E+03  0.00000000000E+00 0.  1.
          1   -1    0    0  502    0  0.00000000000E+00 -0.00000000000E+00 -0.71506428123E+03  0.71506428123E+03  0.00000000000E+00 0. -1.
         23    2    1    2    0    0 -0.11815284202E+03  0.94592573001E+02 -0.11525224498E+03  0.21134807705E+03  0.92071063616E+02 0.  0.
         23    2    1    2    0    0  0.18825997354E+03 -0.15446675141E+03 -0.33068654356E+03  0.42438798298E+03  0.10700362179E+03 0.  0.
        -11    1    3    3    0    0 -0.74410257031E+02  0.44392141407E+01 -0.66581452663E+02  0.99948400749E+02  0.00000000000E+00 0. -1.
         11    1    3    3    0    0 -0.43742584992E+02  0.90153358860E+02 -0.48670792320E+02  0.11139967630E+03  0.00000000000E+00 0.  1.
        -13    1    4    4    0    0 -0.13718750254E+02 -0.16153722460E+02 -0.26046742843E+02  0.33579453101E+02  0.00000000000E+00 0. -1.
         13    1    4    4    0    0  0.20197872380E+03 -0.13831302895E+03 -0.30463980072E+03  0.39080852988E+03  0.00000000000E+00 0.  1.
         21    1    1    2  502  501 -0.70107131519E+02  0.59874178414E+02 -0.16203021964E+03  0.18642349424E+03  0.00000000000E+00 0. -1.
<scales pt_clust_5="13000.00000" pt_clust_6="13000.00000" pt_clust_7="13000.00000" pt_clust_8="13000.00000" pt_clust_9="92.19505"></scales>
<clustering>
<clus scale="   92.071">  5  6 -1 -1</clus>
<clus scale="   92.195">  2  9  1 -1</clus>
<clus scale="  107.004">  7  8 -1 -1</clus>
<clus scale="  201.450">  1  5  2 -1</clus>
<clus scale="   92.195">  2  5  1 -1</clus>
</clustering>
</event>
<event>
 9    1  0.1612788E-005  0.1055782E+03  0.7546771E-02  0.1272280E+00
          1   -1    0    0  502    0  0.00000000000E+00  0.00000000000E+00  0.93804662360E+02  0.93804662360E+02  0.00000000000E+00 0. -1.
         -1   -1    0    0    0  501 -0.00000000000E+00 -0.00000000000E+00 -0.24013268919E+03  0.24013268919E+03  0.00000000000E+00 0.  1.
         23    2    1    2    0    0 -0.19781478799E+02 -0.27353209331E+02 -0.16837461225E+03  0.19487773800E+03  0.92129353382E+02 0.  0.
         23    2    1    2    0    0  0.42855636376E+02  0.30750324463E+02  0.26421758446E+02  0.11532990057E+03  0.99099387597E+02 0.  0.
        -11    1    3    3    0    0  0.28165543219E+02 -0.27171370614E+02 -0.32762093020E+02  0.51038573108E+02  0.00000000000E+00 0. -1.
         11    1    3    3    0    0 -0.47947022018E+02 -0.18183871747E+00 -0.13561251923E+03  0.14383916490E+03  0.00000000000E+00 0.  1.
        -13    1    4    4    0    0  0.23927126368E+02  0.63762020812E+02 -0.15185813553E+01  0.68120545826E+02  0.00000000000E+00 0. -1.
         13    1    4    4    0    0  0.18928510009E+02 -0.33011696350E+02  0.27940339801E+02  0.47209354743E+02  0.00000000000E+00 0.  1.
         21    1    1    2  502  501 -0.23074157577E+02 -0.33971151314E+01 -0.43751730279E+01  0.23729712981E+02  0.00000000000E+00 0. -1.
<scales pt_clust_5="13000.00000" pt_clust_6="13000.00000" pt_clust_7="13000.00000" pt_clust_8="13000.00000" pt_clust_9="23.32289"></scales>
<clustering>
<clus scale="   23.323">  1  9  2 -1</clus>
<clus scale="   92.129">  5  6 -1 -1</clus>
<clus scale="   99.065">  2  5  1 -1</clus>
<clus scale="   99.099">  7  8 -1 -1</clus>
<clus scale="   23.323">  1  5  2 -1</clus>
</clustering>
</event>
<event>
 9    1  0.1612788E-005  0.1368873E+03  0.7546771E-02  0.1229732E+00
         -1   -1    0    0    0  501 -0.00000000000E+00  0.00000000000E+00  0.10411193173E+03  0.10411193173E+03  0.00000000000E+00 0.  1.
          1   -1    0    0  502    0  0.00000000000E+00 -0.00000000000E+00 -0.48243455857E+03  0.48243455857E+03  0.00000000000E+00 0. -1.
         23    2    1    2    0    0 -0.70963701613E+02 -0.82934846299E+01 -0.10062343011E+03  0.15132576666E+03  0.87577303771E+02 0.  0.
         23    2    1    2    0    0 -0.47060006077E+02  0.31600790045E+02 -0.29512772500E+03  0.31366176815E+03  0.89833605233E+02 0.  0.
        -13    1    4    4    0    0 -0.37810592175E+02 -0.22789738001E+02 -0.77927606776E+02  0.89564082849E+02  0.00000000000E+00 0.  1.
         13    1    4    4    0    0 -0.92494139025E+01  0.54390528047E+02 -0.21720011823E+03  0.22409768530E+03  0.00000000000E+00 0. -1.
        -13    1    3    3    0    0 -0.41902486300E+02 -0.42538308152E+02 -0.28031698915E+02  0.65962884735E+02  0.00000000000E+00 0. -1.
         13    1    3    3    0    0 -0.29061215313E+02  0.34244823522E+02 -0.72591731194E+02  0.85362881929E+02  0.00000000000E+00 0.  1.
         21    1    1    2  502  501  0.11802370769E+03 -0.23307305415E+02  0.17428528274E+02  0.12155895549E+03  0.00000000000E+00 0.  1.
<scales pt_clust_5="13000.00000" pt_clust_6="13000.00000" pt_clust_7="13000.00000" pt_clust_8="13000.00000" pt_clust_9="105.20624"></scales>
<clustering>
<clus scale="   87.577">  7  8 -1 -1</clus>
<clus scale="   89.834">  5  6 -1 -1</clus>
<clus scale="  106.223">  2  5  1 -1</clus>
<clus scale="  105.206">  1  9  2 -1</clus>
<clus scale="  106.223">  2  5  1 -1</clus>
</clustering>
</event>
<event>
 9    1  0.1612788E-005  0.9448917E+02  0.7546771E-02  0.1292532E+00
          1   -1    0    0  502    0  0.00000000000E+00  0.00000000000E+00  0.21499537165E+03  0.21499537165E+03  0.00000000000E+00 0. -1.
         -1   -1    0    0    0  501 -0.00000000000E+00 -0.00000000000E+00 -0.24698348994E+03  0.24698348994E+03  0.00000000000E+00 0.  1.
         23    2    1    2    0    0  0.39834213708E+02  0.39179169159E+01 -0.19248445138E+03  0.21643521128E+03  0.90508684674E+02 0.  0.
         23    2    1    2    0    0  0.29743659239E+00  0.27605312057E+02  0.16894959930E+03  0.19381627815E+03  0.90877064504E+02 0.  0.
        -11    1    4    4    0    0 -0.32487469322E+02  0.11897648362E+02  0.18895288751E+02  0.39421081118E+02  0.00000000000E+00 0.  1.
         11    1    4    4    0    0  0.32784905915E+02  0.15707663695E+02  0.15005431055E+03  0.15439519704E+03  0.00000000000E+00 0. -1.
        -13    1    3    3    0    0  0.66748105543E+02  0.13708624683E+02 -0.15453845577E+03  0.16889455378E+03  0.00000000000E+00 0.  1.
         13    1    3    3    0    0 -0.26913891835E+02 -0.97907077668E+01 -0.37945995615E+02  0.47540657500E+02  0.00000000000E+00 0. -1.
         21    1    1    2  502  501 -0.40131650300E+02 -0.31523228973E+02 -0.84532662105E+01  0.51727372157E+02  0.00000000000E+00 0.  1.
<scales pt_clust_5="13000.00000" pt_clust_6="13000.00000" pt_clust_7="13000.00000" pt_clust_8="13000.00000" pt_clust_9="51.03198"></scales>
<clustering>
<clus scale="   51.032">  2  9  1 -1</clus>
<clus scale="   90.509">  7  8 -1 -1</clus>
<clus scale="   90.877">  5  6 -1 -1</clus>
<clus scale="   94.135">  2  7  1 -1</clus>
<clus scale="   94.489">  1  5  2 -1</clus>
</clustering>
</event>
<event>
 9    1  0.1612788E-005  0.2130853E+03  0.7546771E-02  0.1139246E+00
         -3   -1    0    0    0  501 -0.00000000000E+00  0.00000000000E+00  0.13347376124E+04  0.13347376124E+04  0.00000000000E+00 0.  1.
          3   -1    0    0  502    0  0.00000000000E+00 -0.00000000000E+00 -0.47257438698E+02  0.47257438698E+02  0.00000000000E+00 0. -1.
         23    2    1    2    0    0  0.17566966935E+03  0.17869393191E+02  0.68543064070E+03  0.71375160075E+03  0.91907760401E+02 0.  0.
         23    2    1    2    0    0 -0.22188806504E+03 -0.29493489224E+02  0.48331711831E+03  0.54030344094E+03  0.90709382773E+02 0.  0.
        -11    1    3    3    0    0  0.12101706203E+03 -0.31816736303E+02  0.44018535709E+03  0.45762493661E+03  0.00000000000E+00 0. -1.
         11    1    3    3    0    0  0.54652607325E+02  0.49686129494E+02  0.24524528360E+03  0.25612666413E+03  0.00000000000E+00 0.  1.
        -13    1    4    4    0    0 -0.46741487334E+02 -0.20331888177E+02  0.20574011727E+03  0.21196025139E+03  0.00000000000E+00 0.  1.
         13    1    4    4    0    0 -0.17514657771E+03 -0.91616010466E+01  0.27757700105E+03  0.32834318955E+03  0.00000000000E+00 0. -1.
         21    1    1    2  502  501  0.46218395687E+02  0.11624096033E+02  0.11873241466E+03  0.12794000938E+03  0.00000000000E+00 0.  1.
<scales pt_clust_5="13000.00000" pt_clust_6="13000.00000" pt_clust_7="13000.00000" pt_clust_8="13000.00000" pt_clust_9="47.65774"></scales>
<clustering>
<clus scale="   47.658">  2  9  1 -1</clus>
<clus scale="   90.709">  7  8 -1 -1</clus>
<clus scale="   91.908">  5  6 -1 -1</clus>
<clus scale="  212.571">  2  7  1 -1</clus>
<clus scale="   47.658">  2  5  1 -1</clus>
</clustering>
</event>
<event>
 9    1  0.1612788E-005  0.1032840E+03  0.7546771E-02  0.1276073E+00
         -2   -1    0    0    0  501 -0.00000000000E+00  0.00000000000E+00  0.30563177046E+03  0.30563177046E+03  0.00000000000E+00 0.  1.
          2   -1    0    0  502    0  0.00000000000E+00 -0.00000000000E+00 -0.73890810488E+02  0.73890810488E+02  0.00000000000E+00 0. -1.
         23    2    1    2    0    0 -0.43946561711E+02  0.38032715409E+02  0.10979427501E+03  0.15118603201E+03  0.86166383951E+02 0.  0.
         23    2    1    2    0    0 -0.14458656816E+02 -0.51687779451E+02  0.17235039652E+02  0.10766277801E+03  0.91725393845E+02 0.  0.
        -11    1    4    4    0    0 -0.49271773109E+02 -0.31492545064E+02 -0.96430705071E+01  0.59266152471E+02  0.00000000000E+00 0. -1.
         11    1    4    4    0    0  0.34813116293E+02 -0.20195234387E+02  0.26878110159E+02  0.48396625541E+02  0.00000000000E+00 0.  1.
        -11    1    3    3    0    0 -0.69025559013E+02  0.36942087295E+02  0.76215827036E+02  0.10926160305E+03  0.00000000000E+00 0.  1.
         11    1    3    3    0    0  0.25078997302E+02  0.10906281140E+01  0.33578447972E+02  0.41924428959E+02  0.00000000000E+00 0. -1.
         21    1    1    2  502  501  0.58405218527E+02  0.13655064042E+02  0.10471164531E+03  0.12067377092E+03  0.00000000000E+00 0.  1.
<scales pt_clust_5="13000.00000" pt_clust_6="13000.00000" pt_clust_7="13000.00000" pt_clust_8="13000.00000" pt_clust_9="59.98025"></scales>
<clustering>
<clus scale="   59.980">  1  9  2 -1</clus>
<clus scale="   86.166">  7  8 -1 -1</clus>
<clus scale="   91.725">  5  6 -1 -1</clus>
<clus scale="   98.380">  1  7  2 -1</clus>
<clus scale="  103.284">  2  5  1 -1</clus>
</clustering>
</event>
<event>
 9    1  0.1612788E-005  0.9506146E+02  0.7546771E-02  0.1293118E+00
          1   -1    0    0  502    0  0.00000000000E+00  0.00000000000E+00  0.34340304559E+03  0.34340304559E+03  0.00000000000E+00 0. -1.
         -1   -1    0    0    0  501 -0.00000000000E+00 -0.00000000000E+00 -0.12306830357E+03  0.12306830357E+03  0.00000000000E+00 0.  1.
         23    2    1    2    0    0  0.32251970444E+02  0.20411717668E+00  0.13605958906E+03  0.16714584442E+03  0.91571230576E+02 0.  0.
         23    2    1    2    0    0 -0.17622164488E+02  0.16470884853E+02  0.17964740867E+03  0.20140740594E+03  0.87806155803E+02 0.  0.
        -13    1    4    4    0    0  0.35288035500E+02  0.11557252467E+02  0.87192423727E+02  0.94769901812E+02  0.00000000000E+00 0.  1.
         13    1    4    4    0    0 -0.52910199988E+02  0.49136323861E+01  0.92454984940E+02  0.10663750413E+03  0.00000000000E+00 0. -1.
        -13    1    3    3    0    0  0.63153271090E+02 -0.27227619323E+01  0.10882696539E+03  0.12585331731E+03  0.00000000000E+00 0.  1.
         13    1    3    3    0    0 -0.30901300646E+02  0.29268791090E+01  0.27232623671E+02  0.41292527108E+02  0.00000000000E+00 0. -1.
         21    1    1    2  502  501 -0.14629805956E+02 -0.16675002030E+02 -0.95372255709E+02  0.97918098807E+02  0.00000000000E+00 0.  1.
<scales pt_clust_5="13000.00000" pt_clust_6="13000.00000" pt_clust_7="13000.00000" pt_clust_8="13000.00000" pt_clust_9="22.18303"></scales>
<clustering>
<clus scale="   22.183">  2  9  1 -1</clus>
<clus scale="   87.806">  5  6 -1 -1</clus>
<clus scale="   91.440">  1  5  2 -1</clus>
<clus scale="   91.571">  7  8 -1 -1</clus>
<clus scale="   91.440">  1  5  2 -1</clus>
</clustering>
</event>
<event>
 9    1  0.1612788E-005  0.2310736E+03  0.7546771E-02  0.1125965E+00
         -2   -1    0    0    0  501 -0.00000000000E+00  0.00000000000E+00  0.17145528016E+03  0.17145528016E+03  0.00000000000E+00 0.  1.
          2   -1    0    0  502    0  0.00000000000E+00 -0.00000000000E+00 -0.45869094126E+03  0.45869094126E+03  0.00000000000E+00 0. -1.
         23    2    1    2    0    0  0.12613188477E+03 -0.17136784527E+03 -0.46377611560E+02  0.23579643828E+03  0.90404019288E+02 0.  0.
         23    2    1    2    0    0 -0.97061940214E+02  0.19013793078E+03 -0.26526856254E+03  0.35200298950E+03  0.89248201043E+02 0.  0.
        -11    1    3    3    0    0  0.11693310538E+03 -0.13482757804E+03 -0.69569454892E+02  0.19155087050E+03  0.00000000000E+00 0.  1.
         11    1    3    3    0    0  0.91987793923E+01 -0.36540267224E+02  0.23191843332E+02  0.44245567781E+02  0.00000000000E+00 0. -1.
        -13    1    4    4    0    0 -0.50240718809E+02  0.85149654889E+02 -0.19120843089E+03  0.21525626030E+03  0.00000000000E+00 0.  1.
         13    1    4    4    0    0 -0.46821221405E+02  0.10498827589E+03 -0.74060131645E+02  0.13674672920E+03  0.00000000000E+00 0. -1.
         21    1    1    2  502  501 -0.29069944554E+02 -0.18770085514E+02  0.24410512997E+02  0.42346793638E+02  0.00000000000E+00 0.  1.
<scales pt_clust_5="13000.00000" pt_clust_6="13000.00000" pt_clust_7="13000.00000" pt_clust_8="13000.00000" pt_clust_9="34.60315"></scales>
<clustering>
<clus scale="   34.603">  1  9  2 -1</clus>
<clus scale="   89.248">  7  8 -1 -1</clus>
<clus scale="   90.404">  5  6 -1 -1</clus>
<clus scale="  230.624">  2  7  1 -1</clus>
<clus scale="  230.624">  2  5  1 -1</clus>
</clustering>
</event>
<event>
 9    1  0.1612788E-005  0.9944770E+02  0.7546771E-02  0.1282734E+00
          1   -1    0    0  502    0  0.00000000000E+00  0.00000000000E+00  0.14894489179E+03  0.14894489179E+03  0.00000000000E+00 0. -1.
         -1   -1    0    0    0  501 -0.00000000000E+00 -0.00000000000E+00 -0.26042245091E+03  0.26042245091E+03  0.00000000000E+00 0.  1.
         23    2    1    2    0    0 -0.30453154665E+02  0.58249760351E+01 -0.19221368500E+03  0.21428483659E+03  0.89501762634E+02 0.  0.
         23    2    1    2    0    0  0.35397592023E+02  0.15541506482E+02  0.11630846002E+03  0.15329297402E+03  0.92068181619E+02 0.  0.
        -11    1    3    3    0    0 -0.29116053854E+02  0.44386961055E+02 -0.83689921294E+02  0.99105750741E+02  0.00000000000E+00 0.  1.
         11    1    3    3    0    0 -0.13371008112E+01 -0.38561985020E+02 -0.10852376371E+03  0.11517908585E+03  0.00000000000E+00 0. -1.
        -11    1    4    4    0    0 -0.23200725244E+02 -0.17013847070E+02  0.16815093766E+02  0.33324045708E+02  0.00000000000E+00 0.  1.
         11    1    4    4    0    0  0.58598317268E+02  0.32555353551E+02  0.99493366259E+02  0.11996892831E+03  0.00000000000E+00 0. -1.
         21    1    1    2  502  501 -0.49444373586E+01 -0.21366482517E+02 -0.35572334145E+02  0.41789532092E+02  0.00000000000E+00 0.  1.
<scales pt_clust_5="13000.00000" pt_clust_6="13000.00000" pt_clust_7="13000.00000" pt_clust_8="13000.00000" pt_clust_9="21.93112"></scales>
<clustering>
<clus scale="   21.931">  2  9  1 -1</clus>
<clus scale="   89.502">  5  6 -1 -1</clus>
<clus scale="   92.068">  7  8 -1 -1</clus>
<clus scale="   97.077">  2  5  1 -1</clus>
<clus scale="   99.448">  1  5  2 -1</clus>
</clustering>
</event>
<event>
 9    1  0.1612788E-005  0.9268977E+02  0.7546771E-02  0.1296989E+00
         -2   -1    0    0    0  501 -0.00000000000E+00  0.00000000000E+00  0.12263728133E+03  0.12263728133E+03  0.00000000000E+00 0.  1.
          2   -1    0    0  502    0  0.00000000000E+00 -0.00000000000E+00 -0.16885706948E+03  0.16885706948E+03  0.00000000000E+00 0. -1.
         23    2    1    2    0    0  0.73832448464E+01  0.36570330690E+02  0.46458302958E+02  0.10845062619E+03  0.90616019640E+02 0.  0.
         23    2    1    2    0    0 -0.73111378990E+01 -0.76980947158E+01 -0.11441695576E+03  0.14690248162E+03  0.91522597978E+02 0.  0.
        -13    1    4    4    0    0 -0.22465690079E+02  0.31607755608E+02 -0.20260985215E+02  0.43752313849E+02  0.00000000000E+00 0.  1.
         13    1    4    4    0    0  0.15154552180E+02 -0.39305850324E+02 -0.94155970547E+02  0.10315016777E+03  0.00000000000E+00 0. -1.
        -13    1    3    3    0    0 -0.38741841938E+02  0.13917871970E+01  0.27087807704E+02  0.47292882282E+02  0.00000000000E+00 0. -1.
         13    1    3    3    0    0  0.46125086784E+02  0.35178543493E+02  0.19370495254E+02  0.61157743905E+02  0.00000000000E+00 0.  1.
         21    1    1    2  502  501 -0.72106947482E-01 -0.28872235975E+02  0.21738864653E+02  0.36141243006E+02  0.00000000000E+00 0. -1.
<scales pt_clust_5="13000.00000" pt_clust_6="13000.00000" pt_clust_7="13000.00000" pt_clust_8="13000.00000" pt_clust_9="28.87233"></scales>
<clustering>
<clus scale="   28.872">  1  9  2 -1</clus>
<clus scale="   90.616">  7  8 -1 -1</clus>
<clus scale="   91.523">  5  6 -1 -1</clus>
<clus scale="   91.795">  1  7  2 -1</clus>
<clus scale="   92.690">  2  5  1 -1</clus>
</clustering>
</event>
<event>
 9    1  0.1612788E-005  0.9296041E+02  0.7546771E-02  0.1296605E+00
         -2   -1    0    0    0  501 -0.00000000000E+00  0.00000000000E+00  0.39542126828E+03  0.39542126828E+03  0.00000000000E+00 0.  1.
          2   -1    0    0  502    0  0.00000000000E+00 -0.00000000000E+00 -0.53797624614E+02  0.53797624614E+02  0.00000000000E+00 0. -1.
         23    2    1    2    0    0  0.17980966066E+02  0.23725283740E+02  0.11048301522E+03  0.14640039137E+03  0.91325646516E+02 0.  0.
         23    2    1    2    0    0  0.60206065384E+01  0.51556617155E+00  0.28198740232E+02  0.97029521539E+02  0.92644727793E+02 0.  0.
        -11    1    3    3    0    0 -0.30633007823E+02  0.20121191620E+02  0.82301429634E+02  0.90093112058E+02  0.00000000000E+00 0.  1.
         11    1    3    3    0    0  0.48613973889E+02  0.36040921196E+01  0.28181585588E+02  0.56307279312E+02  0.00000000000E+00 0. -1.
        -11    1    4    4    0    0 -0.25726716089E+02 -0.19514560694E+02 -0.18421061352E+02  0.37175495977E+02  0.00000000000E+00 0. -1.
         11    1    4    4    0    0  0.31747322627E+02  0.20030126866E+02  0.46619801584E+02  0.59854025562E+02  0.00000000000E+00 0.  1.
         21    1    1    2  502  501 -0.24001572604E+02 -0.24240849911E+02  0.20294188821E+03  0.20578897999E+03  0.00000000000E+00 0. -1.
<scales pt_clust_5="13000.00000" pt_clust_6="13000.00000" pt_clust_7="13000.00000" pt_clust_8="13000.00000" pt_clust_9="34.11296"></scales>
<clustering>
<clus scale="   34.113">  1  9  2 -1</clus>
<clus scale="   91.326">  5  6 -1 -1</clus>
<clus scale="   91.646">  1  5  2 -1</clus>
<clus scale="   92.645">  7  8 -1 -1</clus>
<clus scale="   92.960">  2  5  1 -1</clus>
</clustering>
</event>
<event>
 9    1  0.1612788E-005  0.1981694E+03  0.7546771E-02  0.1151760E+00
          1   -1    0    0  502    0  0.00000000000E+00  0.00000000000E+00  0.47304891567E+03  0.47304891567E+03  0.00000000000E+00 0. -1.
         -1   -1    0    0    0  501 -0.00000000000E+00 -0.00000000000E+00 -0.10859559197E+03  0.10859559197E+03  0.00000000000E+00 0.  1.
         23    2    1    2    0    0 -0.15471491517E+03  0.64274142025E+01  0.64022507919E+02  0.18858507945E+03  0.86529960383E+02 0.  0.
         23    2    1    2    0    0  0.18756921074E+03  0.17434948186E+02  0.27309237223E+03  0.34410835494E+03  0.91350588040E+02 0.  0.
        -13    1    3    3    0    0 -0.10200695252E+03 -0.20071373685E+02  0.34336266258E+01  0.10401955680E+03  0.00000000000E+00 0.  1.
         13    1    3    3    0    0 -0.52707962642E+02  0.26498787888E+02  0.60588881294E+02  0.84565522654E+02  0.00000000000E+00 0. -1.
        -13    1    4    4    0    0  0.25610799449E+02  0.21856975744E+02  0.10661470480E+03  0.11180490024E+03  0.00000000000E+00 0.  1.
         13    1    4    4    0    0  0.16195841129E+03 -0.44220275579E+01  0.16647766742E+03  0.23230345470E+03  0.00000000000E+00 0. -1.
         21    1    1    2  502  501 -0.32854295575E+02 -0.23862362389E+02  0.27338443555E+02  0.48951073252E+02  0.00000000000E+00 0. -1.
<scales pt_clust_5="13000.00000" pt_clust_6="13000.00000" pt_clust_7="13000.00000" pt_clust_8="13000.00000" pt_clust_9="40.60563"></scales>
<clustering>
<clus scale="   40.606">  2  9  1 -1</clus>
<clus scale="   86.530">  5  6 -1 -1</clus>
<clus scale="   91.351">  7  8 -1 -1</clus>
<clus scale="  195.994">  2  5  1 -1</clus>
<clus scale="  198.169">  1  5  2 -1</clus>
</clustering>
</event>
<event>
 9    1  0.1612788E-005  0.1028739E+03  0.7546771E-02  0.1277398E+00
         -2   -1    0    0    0  501 -0.00000000000E+00  0.00000000000E+00  0.99837430304E+02  0.99837430304E+02  0.00000000000E+00 0.  1.
          2   -1    0    0  502    0  0.00000000000E+00 -0.00000000000E+00 -0.19457808825E+03  0.19457808825E+03  0.00000000000E+00 0. -1.
         23    2    1    2    0    0  0.22547142144E+02  0.31385386070E+01 -0.54654594243E+01  0.98185054449E+02  0.95353078750E+02 0.  0.
         23    2    1    2    0    0 -0.44797832089E+02  0.93090331214E+00 -0.12130626044E+03  0.15701767935E+03  0.89059701703E+02 0.  0.
        -13    1    3    3    0    0  0.51534049506E+02 -0.23836039492E+02 -0.12052392554E+02  0.58044596678E+02  0.00000000000E+00 0.  1.
         13    1    3    3    0    0 -0.28986907362E+02  0.26974578099E+02  0.65869331301E+01  0.40140457772E+02  0.00000000000E+00 0. -1.
        -13    1    4    4    0    0  0.11363815567E+02 -0.31564969585E+02 -0.30005676917E+02  0.45009157473E+02  0.00000000000E+00 0.  1.
         13    1    4    4    0    0 -0.56161647656E+02  0.32495872897E+02 -0.91300583521E+02  0.11200852188E+03  0.00000000000E+00 0. -1.
         21    1    1    2  502  501  0.22250689946E+02 -0.40694419191E+01  0.32031061915E+02  0.39212784751E+02  0.00000000000E+00 0.  1.
<scales pt_clust_5="13000.00000" pt_clust_6="13000.00000" pt_clust_7="13000.00000" pt_clust_8="13000.00000" pt_clust_9="22.61976"></scales>
<clustering>
<clus scale="   22.620">  1  9  2 -1</clus>
<clus scale="   89.060">  7  8 -1 -1</clus>
<clus scale="   95.353">  5  6 -1 -1</clus>
<clus scale="   97.069">  2  7  1 -1</clus>
<clus scale="   97.069">  2  5  1 -1</clus>
</clustering>
</event>
<event>
 9    1  0.1612788E-005  0.2200284E+03  0.7546771E-02  0.1133921E+00
          1   -1    0    0  502    0  0.00000000000E+00  0.00000000000E+00  0.56968368746E+03  0.56968368746E+03  0.00000000000E+00 0. -1.
         -1   -1    0    0    0  501 -0.00000000000E+00 -0.00000000000E+00 -0.14874777485E+03  0.14874777485E+03  0.00000000000E+00 0.  1.
         23    2    1    2    0    0  0.63573312820E+02  0.20612147058E+03  0.10769251016E+03  0.25613837903E+03  0.86496044608E+02 0.  0.
         23    2    1    2    0    0  0.35303612220E+02 -0.19982904914E+03  0.28237943913E+03  0.35852013350E+03  0.87295730516E+02 0.  0.
        -11    1    4    4    0    0 -0.36771618752E+01 -0.22347299568E+02 -0.93243239068E-01  0.22648002378E+02  0.00000000000E+00 0.  1.
         11    1    4    4    0    0  0.38980774096E+02 -0.17748174957E+03  0.28247268236E+03  0.33587213112E+03  0.00000000000E+00 0. -1.
        -13    1    3    3    0    0  0.37643253134E+02  0.13672023112E+03  0.23078988607E+02  0.14367350423E+03  0.00000000000E+00 0.  1.
         13    1    3    3    0    0  0.25930059686E+02  0.69401239459E+02  0.84613521554E+02  0.11246487480E+03  0.00000000000E+00 0. -1.
         21    1    1    2  502  501 -0.98876925041E+02 -0.62924214371E+01  0.30863963329E+02  0.10377294978E+03  0.00000000000E+00 0.  1.
<scales pt_clust_5="13000.00000" pt_clust_6="13000.00000" pt_clust_7="13000.00000" pt_clust_8="13000.00000" pt_clust_9="99.07694"></scales>
<clustering>
<clus scale="   86.496">  7  8 -1 -1</clus>
<clus scale="   87.296">  5  6 -1 -1</clus>
<clus scale="   99.077">  2  9  1 -1</clus>
<clus scale="  219.712">  2  7  1 -1</clus>
<clus scale="  220.028">  1  5  2 -1</clus>
</clustering>
</event>
<event>
 9    1  0.1612788E-005  0.1139248E+03  0.7546771E-02  0.1253929E+00
         -2   -1    0    0    0  501 -0.00000000000E+00  0.00000000000E+00  0.77329854834E+02  0.77329854834E+02  0.00000000000E+00 0.  1.
          2   -1    0    0  502    0  0.00000000000E+00 -0.00000000000E+00 -0.32192731045E+03  0.32192731045E+03  0.00000000000E+00 0. -1.
         23    2    1    2    0    0  0.35310365603E+02  0.41650558833E+02 -0.98018561051E+02  0.14395229509E+03  0.90183335378E+02 0.  0.
         23    2    1    2    0    0 -0.60936329615E+02 -0.55065844674E+02 -0.17629732806E+03  0.21383385364E+03  0.88874549579E+02 0.  0.
        -11    1    4    4    0    0 -0.78377874523E+02 -0.34638906919E+02 -0.93681488601E+02  0.12696127911E+03  0.00000000000E+00 0.  1.
         11    1    4    4    0    0  0.17441544908E+02 -0.20426937756E+02 -0.82615839460E+02  0.86872574524E+02  0.00000000000E+00 0. -1.
        -13    1    3    3    0    0  0.35812809729E+02  0.65029788708E+02 -0.47096843156E+02  0.87917821830E+02  0.00000000000E+00 0. -1.
         13    1    3    3    0    0 -0.50244412668E+00 -0.23379229875E+02 -0.50921717895E+02  0.56034473256E+02  0.00000000000E+00 0.  1.
         21    1    1    2  502  501  0.25625964012E+02  0.13415285842E+02  0.29718433493E+02  0.41471016566E+02  0.00000000000E+00 0.  1.
<scales pt_clust_5="13000.00000" pt_clust_6="13000.00000" pt_clust_7="13000.00000" pt_clust_8="13000.00000" pt_clust_9="28.92507"></scales>
<clustering>
<clus scale="   28.925">  1  9  2 -1</clus>
<clus scale="   88.875">  5  6 -1 -1</clus>
<clus scale="   90.183">  7  8 -1 -1</clus>
<clus scale="  112.892">  2  5  1 -1</clus>
<clus scale="  112.892">  2  5  1 -1</clus>
</clustering>
</event>
<event>
 9    1  0.1612788E-005  0.1301166E+03  0.7546771E-02  0.1227681E+00
          2   -1    0    0  502    0  0.00000000000E+00  0.00000000000E+00  0.97094249310E+03  0.97094249310E+03  0.00000000000E+00 0. -1.
         -2   -1    0    0    0  501 -0.00000000000E+00 -0.00000000000E+00 -0.20884734829E+02  0.20884734829E+02  0.00000000000E+00 0.  1.
         23    2    1    2    0    0  0.46793071773E+02  0.77551291461E+02  0.41691977650E+03  0.43600092066E+03  0.89838234654E+02 0.  0.
         23    2    1    2    0    0 -0.68449776013E+02 -0.67652529740E+02  0.43201846918E+03  0.45194101404E+03  0.91370048952E+02 0.  0.
        -11    1    4    4    0    0 -0.72687525477E+01 -0.27257667708E+02  0.22982878286E+02  0.36387194269E+02  0.00000000000E+00 0. -1.
         11    1    4    4    0    0 -0.61181023465E+02 -0.40394862032E+02  0.40903559089E+03  0.41555381977E+03  0.00000000000E+00 0.  1.
        -13    1    3    3    0    0  0.66243609526E+02  0.39410513472E+02  0.33283237740E+03  0.34164132627E+03  0.00000000000E+00 0. -1.
         13    1    3    3    0    0 -0.19450537753E+02  0.38140777990E+02  0.84087399105E+02  0.94359594386E+02  0.00000000000E+00 0.  1.
         21    1    1    2  502  501  0.21656704239E+02 -0.98987617214E+01  0.10111951260E+03  0.10388529323E+03  0.00000000000E+00 0. -1.
<scales pt_clust_5="13000.00000" pt_clust_6="13000.00000" pt_clust_7="13000.00000" pt_clust_8="13000.00000" pt_clust_9="23.81173"></scales>
<clustering>
<clus scale="   23.812">  1  9  2 -1</clus>
<clus scale="   89.838">  7  8 -1 -1</clus>
<clus scale="   91.370">  5  6 -1 -1</clus>
<clus scale="  129.046">  2  7  1 -1</clus>
<clus scale="   23.812">  1  5  2 -1</clus>
</clustering>
</event>
<event>
 9    1  0.1612788E-005  0.1254946E+03  0.7546771E-02  0.1237791E+00
         -2   -1    0    0    0  501 -0.00000000000E+00  0.00000000000E+00  0.27264223773E+03  0.27264223773E+03  0.00000000000E+00 0.  1.
          2   -1    0    0  502    0  0.00000000000E+00 -0.00000000000E+00 -0.36183991323E+03  0.36183991323E+03  0.00000000000E+00 0. -1.
         23    2    1    2    0    0 -0.68642611288E+02  0.73657201057E+02  0.89648803858E+02  0.16918114721E+03  0.10221624718E+03 0.  0.
         23    2    1    2    0    0  0.47723299330E+02 -0.51980300149E+02 -0.30996185766E+03  0.33076941610E+03  0.91392497087E+02 0.  0.
        -11    1    4    4    0    0 -0.10837471742E+02 -0.41419420049E+02 -0.21096051828E+03  0.21526114239E+03  0.00000000000E+00 0. -1.
         11    1    4    4    0    0  0.58560771072E+02 -0.10560880100E+02 -0.99001339376E+02  0.11550827371E+03  0.00000000000E+00 0.  1.
        -13    1    3    3    0    0 -0.84617205966E+02  0.52049007448E+02  0.30025380311E+02  0.10378195501E+03  0.00000000000E+00 0. -1.
         13    1    3    3    0    0  0.15974594678E+02  0.21608193609E+02  0.59623423547E+02  0.65399192209E+02  0.00000000000E+00 0.  1.
         21    1    1    2  502  501  0.20919311959E+02 -0.21676900908E+02  0.13111537830E+03  0.13453158764E+03  0.00000000000E+00 0. -1.
<scales pt_clust_5="13000.00000" pt_clust_6="13000.00000" pt_clust_7="13000.00000" pt_clust_8="13000.00000" pt_clust_9="30.12483"></scales>
<clustering>
<clus scale="   30.125">  1  9  2 -1</clus>
<clus scale="   91.392">  5  6 -1 -1</clus>
<clus scale="  102.216">  7  8 -1 -1</clus>
<clus scale="  116.847">  2  5  1 -1</clus>
<clus scale="  116.847">  2  5  1 -1</clus>
</clustering>
</event>
<event>
 9    1  0.1612788E-005  0.1518523E+03  0.7546771E-02  0.1216879E+00
          1   -1    0    0  502    0  0.00000000000E+00  0.00000000000E+00  0.16671200894E+03  0.16671200894E+03  0.00000000000E+00 0. -1.
         -1   -1    0    0    0  501 -0.00000000000E+00 -0.00000000000E+00 -0.25558497271E+03  0.25558497271E+03  0.00000000000E+00 0.  1.
         23    2    1    2    0    0  0.10966058071E+03  0.60983918620E+02 -0.35071371672E+01  0.16188072217E+03  0.10221832960E+03 0.  0.
         23    2    1    2    0    0 -0.13637709226E+01 -0.41728133450E+02  0.24792568155E+02  0.10474398768E+03  0.92809129548E+02 0.  0.
        -13    1    3    3    0    0  0.12924652353E+03  0.47519694079E+02  0.89838439669E+00  0.13770835946E+03  0.00000000000E+00 0. -1.
         13    1    3    3    0    0 -0.19585942822E+02  0.13464224541E+02 -0.44055215639E+01  0.24172362709E+02  0.00000000000E+00 0.  1.
        -13    1    4    4    0    0 -0.45819276996E+02 -0.10114170667E+02  0.74966480273E+01  0.47517389705E+02  0.00000000000E+00 0.  1.
         13    1    4    4    0    0  0.44455506073E+02 -0.31613962782E+02  0.17295920128E+02  0.57226597977E+02  0.00000000000E+00 0. -1.
         21    1    1    2  502  501 -0.10829680979E+03 -0.19255785171E+02 -0.11015839476E+03  0.15567227180E+03  0.00000000000E+00 0.  1.
<scales pt_clust_5="13000.00000" pt_clust_6="13000.00000" pt_clust_7="13000.00000" pt_clust_8="13000.00000" pt_clust_9="112.29657"></scales>
<clustering>
<clus scale="   92.809">  7  8 -1 -1</clus>
<clus scale="  101.768">  1  7  2 -1</clus>
<clus scale="  102.218">  5  6 -1 -1</clus>
<clus scale="  112.297">  2  9  1 -1</clus>
<clus scale="  101.768">  1  5  2 -1</clus>
</clustering>
</event>
<event>
 9    1  0.1612788E-005  0.1027314E+03  0.7546771E-02  0.1275397E+00
          1   -1    0    0  502    0  0.00000000000E+00  0.00000000000E+00  0.20454599467E+03  0.20454599467E+03  0.00000000000E+00 0. -1.
         -1   -1    0    0    0  501 -0.00000000000E+00 -0.00000000000E+00 -0.98946176307E+02  0.98946176307E+02  0.00000000000E+00 0.  1.
         23    2    1    2    0    0  0.64929166101E+02 -0.50917017969E+01  0.10781463453E+02  0.11359151972E+03  0.92439555175E+02 0.  0.
         23    2    1    2    0    0 -0.36516694384E+02 -0.13332024854E+02  0.11410476451E+03  0.15093056212E+03  0.90823595181E+02 0.  0.
        -11    1    3    3    0    0  0.88044011180E+02 -0.10997063906E+02  0.12810336479E+02  0.89648134614E+02  0.00000000000E+00 0.  1.
         11    1    3    3    0    0 -0.23114845079E+02  0.59053621094E+01 -0.20288730263E+01  0.23943385108E+02  0.00000000000E+00 0. -1.
        -13    1    4    4    0    0  0.29519685191E+02 -0.93482832579E+01  0.24153395930E+02  0.39270711078E+02  0.00000000000E+00 0.  1.
         13    1    4    4    0    0 -0.66036379575E+02 -0.39837415956E+01  0.89951368579E+02  0.11165985104E+03  0.00000000000E+00 0. -1.
         21    1    1    2  502  501 -0.28412471717E+02  0.18423726650E+02 -0.19286409595E+02  0.38970089143E+02  0.00000000000E+00 0. -1.
<scales pt_clust_5="13000.00000" pt_clust_6="13000.00000" pt_clust_7="13000.00000" pt_clust_8="13000.00000" pt_clust_9="33.86299"></scales>
<clustering>
<clus scale="   33.863">  2  9  1 -1</clus>
<clus scale="   90.824">  7  8 -1 -1</clus>
<clus scale="   92.440">  5  6 -1 -1</clus>
<clus scale="  101.280">  1  7  2 -1</clus>
<clus scale="  101.280">  1  5  2 -1</clus>
</clustering>
</event>
<event>
 9    1  0.1612788E-005  0.1056627E+03  0.7546771E-02  0.1278941E+00
          1   -1    0    0  502    0  0.00000000000E+00  0.00000000000E+00  0.25813646933E+03  0.25813646933E+03  0.00000000000E+00 0. -1.
         -1   -1    0    0    0  501 -0.00000000000E+00 -0.00000000000E+00 -0.19402821058E+03  0.19402821058E+03  0.00000000000E+00 0.  1.
         23    2    1    2    0    0 -0.59354726634E+02  0.37543915708E+01 -0.15081423543E+03  0.18519519417E+03  0.89527913546E+02 0.  0.
         23    2    1    2    0    0  0.16035325892E+02  0.19862393114E+02  0.20450482368E+03  0.21654279779E+03  0.66459867818E+02 0.  0.
        -11    1    3    3    0    0  0.33894601512E+01  0.20736126648E+02 -0.45812880769E-01  0.21011365670E+02  0.00000000000E+00 0. -1.
         11    1    3    3    0    0 -0.62744186785E+02 -0.16981735077E+02 -0.15076842255E+03  0.16418382850E+03  0.00000000000E+00 0.  1.
        -13    1    4    4    0    0  0.11648046533E+02 -0.20552751858E+02  0.34968236867E+02  0.42200357659E+02  0.00000000000E+00 0.  1.
         13    1    4    4    0    0  0.43872793589E+01  0.40415144972E+02  0.16953658681E+03  0.17434244013E+03  0.00000000000E+00 0. -1.
         21    1    1    2  502  501  0.43319400742E+02 -0.23616784685E+02  0.10417670497E+02  0.50426687955E+02  0.00000000000E+00 0. -1.
<scales pt_clust_5="13000.00000" pt_clust_6="13000.00000" pt_clust_7="13000.00000" pt_clust_8="13000.00000" pt_clust_9="49.33886"></scales>
<clustering>
<clus scale="   49.339">  1  9  2 -1</clus>
<clus scale="   66.460">  7  8 -1 -1</clus>
<clus scale="   86.984">  1  7  2 -1</clus>
<clus scale="   89.528">  5  6 -1 -1</clus>
<clus scale="   49.339">  1  5  2 -1</clus>
</clustering>
</event>
<event>
 9    1  0.1612788E-005  0.1023529E+03  0.7546771E-02  0.1277832E+00
         -1   -1    0    0    0  501 -0.00000000000E+00  0.00000000000E+00  0.25826602058E+03  0.25826602058E+03  0.00000000000E+00 0.  1.
          1   -1    0    0  502    0  0.00000000000E+00 -0.00000000000E+00 -0.53079918341E+02  0.53079918341E+02  0.00000000000E+00 0. -1.
         23    2    1    2    0    0  0.36777687512E+01 -0.45954533857E+02  0.10399918468E+03  0.14342412985E+03  0.87345895402E+02 0.  0.
         23    2    1    2    0    0 -0.31191874522E+02  0.34444023561E+02  0.71133091104E+02  0.12558092637E+03  0.92473394133E+02 0.  0.
        -13    1    4    4    0    0 -0.16271879517E+02 -0.31007975640E+02  0.34259424038E+02  0.48989557578E+02  0.00000000000E+00 0.  1.
         13    1    4    4    0    0 -0.14919995005E+02  0.65451999201E+02  0.36873667066E+02  0.76591368791E+02  0.00000000000E+00 0. -1.
        -13    1    3    3    0    0 -0.41730197252E+02 -0.19038900013E+02  0.44960070029E+02  0.64228474787E+02  0.00000000000E+00 0. -1.
         13    1    3    3    0    0  0.45407966004E+02 -0.26915633845E+02  0.59039114651E+02  0.79195655061E+02  0.00000000000E+00 0.  1.
         21    1    1    2  502  501  0.27514105771E+02  0.11510510296E+02  0.30053826458E+02  0.42340882707E+02  0.00000000000E+00 0.  1.
<scales pt_clust_5="13000.00000" pt_clust_6="13000.00000" pt_clust_7="13000.00000" pt_clust_8="13000.00000" pt_clust_9="29.82479"></scales>
<clustering>
<clus scale="   29.825">  1  9  2 -1</clus>
<clus scale="   87.346">  7  8 -1 -1</clus>
<clus scale="   92.473">  5  6 -1 -1</clus>
<clus scale="   97.745">  1  7  2 -1</clus>
<clus scale="  102.353">  2  5  1 -1</clus>
</clustering>
</event>
<event>
 9    1  0.1612788E-005  0.9968655E+02  0.7546771E-02  0.1281132E+00
         -1   -1    0    0    0  501 -0.00000000000E+00  0.00000000000E+00  0.40659109743E+03  0.40659109743E+03  0.00000000000E+00 0.  1.
          1   -1    0    0  502    0  0.00000000000E+00 -0.00000000000E+00 -0.50420746223E+02  0.50420746223E+02  0.00000000000E+00 0. -1.
         23    2    1    2    0    0  0.48604217753E+02 -0.21362031851E+02  0.86329372245E+02  0.13684467155E+03  0.91951058897E+02 0.  0.
         23    2    1    2    0    0 -0.15757946525E+02  0.24063883464E+02  0.73046654577E+02  0.12063225374E+03  0.91591176052E+02 0.  0.
        -11    1    4    4    0    0 -0.32014992338E+02 -0.68423904279E+01  0.78717265723E+02  0.85253656602E+02  0.00000000000E+00 0.  1.
         11    1    4    4    0    0  0.16257045812E+02  0.30906273891E+02 -0.56706111461E+01  0.35378597134E+02  0.00000000000E+00 0. -1.
        -13    1    3    3    0    0  0.69132510440E+02 -0.33598046770E+02  0.82295037469E+02  0.11260819659E+03  0.00000000000E+00 0.  1.
         13    1    3    3    0    0 -0.20528292687E+02  0.12236014919E+02  0.40343347759E+01  0.24236474967E+02  0.00000000000E+00 0. -1.
         21    1    1    2  502  501 -0.32846271228E+02 -0.27018516128E+01  0.19679432439E+03  0.19953491837E+03  0.00000000000E+00 0. -1.
<scales pt_clust_5="13000.00000" pt_clust_6="13000.00000" pt_clust_7="13000.00000" pt_clust_8="13000.00000" pt_clust_9="32.95721"></scales>
<clustering>
<clus scale="   32.957">  1  9  2 -1</clus>
<clus scale="   91.591">  5  6 -1 -1</clus>
<clus scale="   91.951">  7  8 -1 -1</clus>
<clus scale="   99.355">  2  5  1 -1</clus>
<clus scale="   99.355">  2  5  1 -1</clus>
</clustering>
</event>
<event>
 9    1  0.1612788E-005  0.1064569E+03  0.7546771E-02  0.1268097E+00
         -1   -1    0    0    0  501 -0.00000000000E+00  0.00000000000E+00  0.42395978062E+02  0.42395978062E+02  0.00000000000E+00 0.  1.
          1   -1    0    0  502    0  0.00000000000E+00 -0.00000000000E+00 -0.42257221394E+03  0.42257221394E+03  0.00000000000E+00 0. -1.
         23    2    1    2    0    0 -0.36750965891E+02  0.48098625824E+02 -0.92637650355E+02  0.14269080933E+03  0.90082304058E+02 0.  0.
         23    2    1    2    0    0  0.13344126014E+02 -0.55087022756E+02 -0.27610508075E+03  0.29530623371E+03  0.88085812021E+02 0.  0.
        -11    1    4    4    0    0 -0.24565795249E+02 -0.10285203607E+02 -0.22094723106E+02  0.34604053210E+02  0.00000000000E+00 0.  1.
         11    1    4    4    0    0  0.37909921263E+02 -0.44801819149E+02 -0.25401035764E+03  0.26070218050E+03  0.00000000000E+00 0. -1.
        -13    1    3    3    0    0  0.21989349845E+02  0.44064943525E+02 -0.36087662075E+02  0.61053829598E+02  0.00000000000E+00 0.  1.
         13    1    3    3    0    0 -0.58740315736E+02  0.40336822983E+01 -0.56549988280E+02  0.81636979734E+02  0.00000000000E+00 0. -1.
         21    1    1    2  502  501  0.23406839877E+02  0.69883969318E+01 -0.11433504777E+02  0.26971148959E+02  0.00000000000E+00 0. -1.
<scales pt_clust_5="13000.00000" pt_clust_6="13000.00000" pt_clust_7="13000.00000" pt_clust_8="13000.00000" pt_clust_9="24.42781"></scales>
<clustering>
<clus scale="   24.428">  1  9  2 -1</clus>
<clus scale="   88.086">  5  6 -1 -1</clus>
<clus scale="   90.082">  7  8 -1 -1</clus>
<clus scale="  104.773">  2  5  1 -1</clus>
<clus scale="  104.773">  2  5  1 -1</clus>
</clustering>
</event>
<event>
 9    1  0.1612788E-005  0.1439190E+03  0.7546771E-02  0.1209866E+00
         -2   -1    0    0    0  501 -0.00000000000E+00  0.00000000000E+00  0.11284380907E+03  0.11284380907E+03  0.00000000000E+00 0.  1.
          2   -1    0    0  502    0  0.00000000000E+00 -0.00000000000E+00 -0.32840422196E+03  0.32840422196E+03  0.00000000000E+00 0. -1.
         23    2    1    2    0    0 -0.49716731120E+02 -0.13114144044E+03 -0.52283723773E+02  0.17898833081E+03  0.98149905957E+02 0.  0.
         23    2    1    2    0    0 -0.39631372474E+01  0.94105586976E+02 -0.14376896126E+03  0.19418816318E+03  0.90376769911E+02 0.  0.
        -11    1    4    4    0    0 -0.44846697542E+02  0.63665008175E+02 -0.10174412630E+03  0.12812621427E+03  0.00000000000E+00 0.  1.
         11    1    4    4    0    0  0.40883560295E+02  0.30440578801E+02 -0.42024834958E+02  0.66061948907E+02  0.00000000000E+00 0. -1.
        -13    1    3    3    0    0  0.24162675786E+02 -0.13551403714E+02 -0.25302054757E+02  0.37518920810E+02  0.00000000000E+00 0. -1.
         13    1    3    3    0    0 -0.73879406906E+02 -0.11759003673E+03 -0.26981669015E+02  0.14146941000E+03  0.00000000000E+00 0.  1.
         21    1    1    2  502  501  0.53679868367E+02  0.37035853464E+02 -0.19507727857E+02  0.68071537047E+02  0.00000000000E+00 0.  1.
<scales pt_clust_5="13000.00000" pt_clust_6="13000.00000" pt_clust_7="13000.00000" pt_clust_8="13000.00000" pt_clust_9="65.21643"></scales>
<clustering>
<clus scale="   65.216">  1  9  2 -1</clus>
<clus scale="   90.377">  5  6 -1 -1</clus>
<clus scale="   98.150">  7  8 -1 -1</clus>
<clus scale="  138.734">  2  5  1 -1</clus>
<clus scale="  138.734">  2  5  1 -1</clus>
</clustering>
</event>
<event>
 9    1  0.1612788E-005  0.9571297E+02  0.7546771E-02  0.1291869E+00
         -1   -1    0    0    0  501 -0.00000000000E+00  0.00000000000E+00  0.39848158167E+02  0.39848158167E+02  0.00000000000E+00 0.  1.
          1   -1    0    0  502    0  0.00000000000E+00 -0.00000000000E+00 -0.39836591532E+03  0.39836591532E+03  0.00000000000E+00 0. -1.
         23    2    1    2    0    0  0.32773748849E+01  0.54931007427E+01 -0.12396625048E+03  0.15413986724E+03  0.91381355170E+02 0.  0.
         23    2    1    2    0    0  0.58478401080E+01  0.15112244823E+02 -0.24176302708E+03  0.26041293323E+03  0.95409419637E+02 0.  0.
        -11    1    3    3    0    0  0.34355263308E+02 -0.16806812658E+01 -0.11637782270E+03  0.12135446602E+03  0.00000000000E+00 0. -1.
         11    1    3    3    0    0 -0.31077888423E+02  0.71737820085E+01 -0.75884277836E+01  0.32785401224E+02  0.00000000000E+00 0.  1.
        -11    1    4    4    0    0  0.33360145132E+02 -0.28979960129E+02 -0.12582288941E+03  0.13335717780E+03  0.00000000000E+00 0. -1.
         11    1    4    4    0    0 -0.27512305024E+02  0.44092204952E+02 -0.11594013767E+03  0.12705575543E+03  0.00000000000E+00 0.  1.
         21    1    1    2  502  501 -0.91252149929E+01 -0.20605345566E+02  0.72115203977E+01  0.23661273021E+02  0.00000000000E+00 0.  1.
<scales pt_clust_5="13000.00000" pt_clust_6="13000.00000" pt_clust_7="13000.00000" pt_clust_8="13000.00000" pt_clust_9="22.53552"></scales>
<clustering>
<clus scale="   22.536">  1  9  2 -1</clus>
<clus scale="   91.381">  5  6 -1 -1</clus>
<clus scale="   91.698">  1  5  2 -1</clus>
<clus scale="   95.409">  7  8 -1 -1</clus>
<clus scale="   95.713">  2  5  1 -1</clus>
</clustering>
</event>
<event>
 9    1  0.1612788E-005  0.1064245E+03  0.7546771E-02  0.1268242E+00
          1   -1    0    0  502    0  0.00000000000E+00  0.00000000000E+00  0.23488377269E+03  0.23488377269E+03  0.00000000000E+00 0. -1.
         -1   -1    0    0    0  501 -0.00000000000E+00 -0.00000000000E+00 -0.20943929826E+03  0.20943929826E+03  0.00000000000E+00 0.  1.
         23    2    1    2    0    0 -0.21779019966E+02  0.16700006610E+02 -0.15490812397E+03  0.18305738444E+03  0.93596277671E+02 0.  0.
         23    2    1    2    0    0  0.18355423017E+02 -0.49495857540E+02  0.19759576808E+03  0.22405526117E+03  0.91487217829E+02 0.  0.
        -11    1    4    4    0    0 -0.15810205141E+02 -0.42181725527E+02  0.17878663864E+03  0.18437440905E+03  0.00000000000E+00 0. -1.
         11    1    4    4    0    0  0.34165628158E+02 -0.73141320131E+01  0.18809129433E+02  0.39680852115E+02  0.00000000000E+00 0.  1.
        -13    1    3    3    0    0  0.21078217363E+02  0.28317852596E+02 -0.19022059025E+02  0.40100258757E+02  0.00000000000E+00 0. -1.
         13    1    3    3    0    0 -0.42857237329E+02 -0.11617845986E+02 -0.13588606494E+03  0.14295712568E+03  0.00000000000E+00 0.  1.
         21    1    1    2  502  501  0.34235969491E+01  0.32795850930E+02 -0.17243169674E+02  0.37210425350E+02  0.00000000000E+00 0.  1.
<scales pt_clust_5="13000.00000" pt_clust_6="13000.00000" pt_clust_7="13000.00000" pt_clust_8="13000.00000" pt_clust_9="32.97406"></scales>
<clustering>
<clus scale="   32.974">  2  9  1 -1</clus>
<clus scale="   91.487">  5  6 -1 -1</clus>
<clus scale="   93.596">  7  8 -1 -1</clus>
<clus scale="  104.574">  1  5  2 -1</clus>
<clus scale="  104.574">  1  5  2 -1</clus>
</clustering>
</event>
<event>
 9    1  0.1612788E-005  0.9529228E+02  0.7546771E-02  0.1291297E+00
         -2   -1    0    0    0  501 -0.00000000000E+00  0.00000000000E+00  0.11459088657E+03  0.11459088657E+03  0.00000000000E+00 0.  1.
          2   -1    0    0  502    0  0.00000000000E+00 -0.00000000000E+00 -0.29056911620E+03  0.29056911620E+03  0.00000000000E+00 0. -1.
         23    2    1    2    0    0  0.33207821163E+01  0.24976291695E+02  0.32357875347E+02  0.98674883628E+02  0.89748859722E+02 0.  0.
         23    2    1    2    0    0  0.18477975876E+02 -0.22362281525E+02 -0.24540547642E+03  0.26340197629E+03  0.91187970832E+02 0.  0.
        -13    1    4    4    0    0  0.42460474356E+01 -0.50139903709E+02 -0.76020957637E+02  0.91165919415E+02  0.00000000000E+00 0. -1.
         13    1    4    4    0    0  0.14231928441E+02  0.27777622184E+02 -0.16938451879E+03  0.17223605687E+03  0.00000000000E+00 0.  1.
        -13    1    3    3    0    0  0.24950681231E+02  0.31315297597E+02 -0.17699240378E+02  0.43777248285E+02  0.00000000000E+00 0.  1.
         13    1    3    3    0    0 -0.21629899115E+02 -0.63390059023E+01  0.50057115725E+02  0.54897635343E+02  0.00000000000E+00 0. -1.
         21    1    1    2  502  501 -0.21798757993E+02 -0.26140101699E+01  0.37069371441E+02  0.43083142855E+02  0.00000000000E+00 0.  1.
<scales pt_clust_5="13000.00000" pt_clust_6="13000.00000" pt_clust_7="13000.00000" pt_clust_8="13000.00000" pt_clust_9="21.95493"></scales>
<clustering>
<clus scale="   21.955">  1  9  2 -1</clus>
<clus scale="   89.749">  7  8 -1 -1</clus>
<clus scale="   91.188">  5  6 -1 -1</clus>
<clus scale="   93.916">  1  7  2 -1</clus>
<clus scale="   95.292">  2  5  1 -1</clus>
</clustering>
</event>
<event>
 9    1  0.1612788E-005  0.1143878E+03  0.7546771E-02  0.1253082E+00
          1   -1    0    0  502    0  0.00000000000E+00  0.00000000000E+00  0.29573986471E+03  0.29573986471E+03  0.00000000000E+00 0. -1.
         -1   -1    0    0    0  501 -0.00000000000E+00 -0.00000000000E+00 -0.11270039168E+03  0.11270039168E+03  0.00000000000E+00 0.  1.
         23    2    1    2    0    0 -0.61527639839E+02  0.79197694084E+02 -0.28688959781E+02  0.13786251891E+03  0.90139294952E+02 0.  0.
         23    2    1    2    0    0  0.50290963033E+02 -0.39153487874E+02  0.19726693857E+03  0.22654438453E+03  0.91356097414E+02 0.  0.
        -11    1    4    4    0    0  0.35873714362E+02 -0.63966415864E+02  0.17647224646E+03  0.19110489138E+03  0.00000000000E+00 0. -1.
         11    1    4    4    0    0  0.14417248671E+02  0.24812927990E+02  0.20794692115E+02  0.35439493152E+02  0.00000000000E+00 0.  1.
        -13    1    3    3    0    0 -0.66972775813E+02  0.44686019148E+02  0.15024630095E+02  0.81901968944E+02  0.00000000000E+00 0.  1.
         13    1    3    3    0    0  0.54451359738E+01  0.34511674936E+02 -0.43713589876E+02  0.55960549966E+02  0.00000000000E+00 0. -1.
         21    1    1    2  502  501  0.11236676806E+02 -0.40044206210E+02  0.14461494238E+02  0.44033352953E+02  0.00000000000E+00 0.  1.
<scales pt_clust_5="13000.00000" pt_clust_6="13000.00000" pt_clust_7="13000.00000" pt_clust_8="13000.00000" pt_clust_9="41.59088"></scales>
<clustering>
<clus scale="   41.591">  2  9  1 -1</clus>
<clus scale="   90.139">  7  8 -1 -1</clus>
<clus scale="   91.356">  5  6 -1 -1</clus>
<clus scale="  113.418">  2  7  1 -1</clus>
<clus scale="  114.388">  1  5  2 -1</clus>
</clustering>
</event>
<event>
 9    1  0.1612788E-005  0.1009505E+03  0.7546771E-02  0.1282299E+00
         -4   -1    0    0    0  501 -0.00000000000E+00  0.00000000000E+00  0.46179531736E+02  0.46179531736E+02  0.00000000000E+00 0.  1.
          4   -1    0    0  502    0  0.00000000000E+00 -0.00000000000E+00 -0.41506335801E+03  0.41506335801E+03  0.00000000000E+00 0. -1.
         23    2    1    2    0    0  0.46842604529E+01 -0.16689047274E+02 -0.11269469497E+03  0.14637089302E+03  0.91781683652E+02 0.  0.
         23    2    1    2    0    0  0.18641682518E+02 -0.43446049476E+02 -0.20458228954E+03  0.23226693881E+03  0.99292225920E+02 0.  0.
        -11    1    4    4    0    0  0.13267450480E+02 -0.68619366312E+02 -0.19052189293E+03  0.20293652792E+03  0.00000000000E+00 0.  1.
         11    1    4    4    0    0  0.53742320376E+01  0.25173316836E+02 -0.14060396609E+02  0.29330410896E+02  0.00000000000E+00 0. -1.
        -13    1    3    3    0    0 -0.26151010030E+02 -0.33719443737E+02 -0.19838921178E+02  0.47058038687E+02  0.00000000000E+00 0.  1.
         13    1    3    3    0    0  0.30835270482E+02  0.17030396463E+02 -0.92855773787E+02  0.99312854329E+02  0.00000000000E+00 0. -1.
         21    1    1    2  502  501 -0.23325942971E+02  0.60135096751E+02 -0.51606841766E+02  0.82605057919E+02  0.00000000000E+00 0.  1.
<scales pt_clust_5="13000.00000" pt_clust_6="13000.00000" pt_clust_7="13000.00000" pt_clust_8="13000.00000" pt_clust_9="64.50062"></scales>
<clustering>
<clus scale="   64.501">  1  9  2 -1</clus>
<clus scale="   91.782">  7  8 -1 -1</clus>
<clus scale="   93.573">  1  7  2 -1</clus>
<clus scale="   99.292">  5  6 -1 -1</clus>
<clus scale="  100.950">  2  5  1 -1</clus>
</clustering>
</event>
<event>
 9    1  0.1612788E-005  0.1083671E+03  0.7546771E-02  0.1264569E+00
         -2   -1    0    0    0  501 -0.00000000000E+00  0.00000000000E+00  0.27099460623E+02  0.27099460623E+02  0.00000000000E+00 0.  1.
          2   -1    0    0  502    0  0.00000000000E+00 -0.00000000000E+00 -0.58210948880E+03  0.58210948880E+03  0.00000000000E+00 0. -1.
         23    2    1    2    0    0 -0.43421473243E+02 -0.72938405737E+01 -0.19054924998E+03  0.21525300151E+03  0.89923375943E+02 0.  0.
         23    2    1    2    0    0  0.65415037411E+02  0.10155800166E+02 -0.34876531896E+03  0.36678509739E+03  0.92259376564E+02 0.  0.
        -11    1    4    4    0    0  0.78621262794E+02 -0.11932115677E+02 -0.31154877753E+03  0.32153743037E+03  0.00000000000E+00 0. -1.
         11    1    4    4    0    0 -0.13206225382E+02  0.22087915843E+02 -0.37216541431E+02  0.45247667026E+02  0.00000000000E+00 0.  1.
        -11    1    3    3    0    0 -0.67979131808E+02  0.11798483822E+02 -0.13343278529E+03  0.15021542788E+03  0.00000000000E+00 0.  1.
         11    1    3    3    0    0  0.24557658565E+02 -0.19092324396E+02 -0.57116464688E+02  0.65037573629E+02  0.00000000000E+00 0. -1.
         21    1    1    2  502  501 -0.21993564168E+02 -0.28619595920E+01 -0.15695459241E+02  0.27170850526E+02  0.00000000000E+00 0.  1.
<scales pt_clust_5="13000.00000" pt_clust_6="13000.00000" pt_clust_7="13000.00000" pt_clust_8="13000.00000" pt_clust_9="22.17899"></scales>
<clustering>
<clus scale="   22.179">  1  9  2 -1</clus>
<clus scale="   89.923">  7  8 -1 -1</clus>
<clus scale="   92.259">  5  6 -1 -1</clus>
<clus scale="  106.385">  1  7  2 -1</clus>
<clus scale="  108.367">  2  5  1 -1</clus>
</clustering>
</event>
<event>
 9    1  0.1612788E-005  0.1119818E+03  0.7546771E-02  0.1257988E+00
         -1   -1    0    0    0  501 -0.00000000000E+00  0.00000000000E+00  0.63537293605E+02  0.63537293605E+02  0.00000000000E+00 0.  1.
          1   -1    0    0  502    0  0.00000000000E+00 -0.00000000000E+00 -0.57540607328E+03  0.57540607328E+03  0.00000000000E+00 0. -1.
         23    2    1    2    0    0 -0.70578714891E+02  0.42959019184E+01 -0.55437326800E+02  0.12786021964E+03  0.90967734916E+02 0.  0.
         23    2    1    2    0    0  0.14578083194E+02 -0.86273893615E+02 -0.21963192096E+03  0.25431383406E+03  0.93710406375E+02 0.  0.
        -11    1    4    4    0    0  0.21743674373E+02 -0.40406328833E+02 -0.19772735507E+03  0.20298168816E+03  0.00000000000E+00 0. -1.
         11    1    4    4    0    0 -0.71655911790E+01 -0.45867564782E+02 -0.21904565882E+02  0.51332145898E+02  0.00000000000E+00 0.  1.
        -13    1    3    3    0    0 -0.19956161989E+02  0.42734050959E+02 -0.64326733208E+01  0.47600701663E+02  0.00000000000E+00 0. -1.
         13    1    3    3    0    0 -0.50622552902E+02 -0.38438149041E+02 -0.49004653479E+02  0.80259517982E+02  0.00000000000E+00 0.  1.
         21    1    1    2  502  501  0.56000631698E+02  0.81977991697E+02 -0.23679953192E+03  0.25676931318E+03  0.00000000000E+00 0. -1.
<scales pt_clust_5="13000.00000" pt_clust_6="13000.00000" pt_clust_7="13000.00000" pt_clust_8="13000.00000" pt_clust_9="99.27972"></scales>
<clustering>
<clus scale="   90.968">  7  8 -1 -1</clus>
<clus scale="   93.710">  5  6 -1 -1</clus>
<clus scale="   99.280">  2  9  1 -1</clus>
<clus scale="  109.697">  1  7  2 -1</clus>
<clus scale="   99.280">  2  5  1 -1</clus>
</clustering>
</event>
<event>
 9    1  0.1612788E-005  0.9574715E+02  0.7546771E-02  0.1292147E+00
         -1   -1    0    0    0  501 -0.00000000000E+00  0.00000000000E+00  0.48973285840E+02  0.48973285840E+02  0.00000000000E+00 0.  1.
          1   -1    0    0  502    0  0.00000000000E+00 -0.00000000000E+00 -0.30432642764E+03  0.30432642764E+03  0.00000000000E+00 0. -1.
         23    2    1    2    0    0  0.10827901097E+02  0.13915026428E+02 -0.88553610625E+02  0.12792020429E+03  0.90614376943E+02 0.  0.
         23    2    1    2    0    0 -0.37803987479E+02 -0.14189910415E+02 -0.17340679799E+03  0.19760468655E+03  0.85715806776E+02 0.  0.
        -11    1    4    4    0    0 -0.45471142772E+02  0.23466920404E+02 -0.12957105815E+03  0.13930893829E+03  0.00000000000E+00 0.  1.
         11    1    4    4    0    0  0.76671552932E+01 -0.37656830819E+02 -0.43835739834E+02  0.58295748253E+02  0.00000000000E+00 0. -1.
        -13    1    3    3    0    0 -0.24500123117E+02 -0.94859687510E+01  0.35738382000E+01  0.26514372619E+02  0.00000000000E+00 0.  1.
         13    1    3    3    0    0  0.35328024215E+02  0.23400995179E+02 -0.92127448825E+02  0.10140583167E+03  0.00000000000E+00 0. -1.
         21    1    1    2  502  501  0.26976086382E+02  0.27488398666E+00  0.66072668142E+01  0.27774822636E+02  0.00000000000E+00 0. -1.
<scales pt_clust_5="13000.00000" pt_clust_6="13000.00000" pt_clust_7="13000.00000" pt_clust_8="13000.00000" pt_clust_9="26.97749"></scales>
<clustering>
<clus scale="   26.977">  1  9  2 -1</clus>
<clus scale="   85.716">  5  6 -1 -1</clus>
<clus scale="   90.614">  7  8 -1 -1</clus>
<clus scale="   91.125">  2  5  1 -1</clus>
<clus scale="   91.125">  2  5  1 -1</clus>
</clustering>
</event>
<event>
 9    1  0.1612788E-005  0.1642824E+03  0.7546771E-02  0.1184587E+00
         -1   -1    0    0    0  501 -0.00000000000E+00  0.00000000000E+00  0.14468411005E+03  0.14468411005E+03  0.00000000000E+00 0.  1.
          1   -1    0    0  502    0  0.00000000000E+00 -0.00000000000E+00 -0.49358451628E+03  0.49358451628E+03  0.00000000000E+00 0. -1.
         23    2    1    2    0    0 -0.12539166788E+03 -0.73045657516E+02  0.42005595883E+02  0.17536689340E+03  0.89052449497E+02 0.  0.
         23    2    1    2    0    0  0.13132359524E+03  0.29682834389E+02 -0.38544845569E+03  0.41879609831E+03  0.93234664396E+02 0.  0.
        -11    1    3    3    0    0 -0.78381090543E+02 -0.28400629896E+02  0.65903505622E+02  0.10627070709E+03  0.00000000000E+00 0.  1.
         11    1    3    3    0    0 -0.47010577334E+02 -0.44645027620E+02 -0.23897909739E+02  0.69096186308E+02  0.00000000000E+00 0. -1.
        -11    1    4    4    0    0  0.10109825888E+03 -0.20145189392E+02 -0.27905380254E+03  0.29748564892E+03  0.00000000000E+00 0. -1.
         11    1    4    4    0    0  0.30225336353E+02  0.49828023781E+02 -0.10639465315E+03  0.12131044939E+03  0.00000000000E+00 0.  1.
         21    1    1    2  502  501 -0.59319273604E+01  0.43362823127E+02 -0.54575464267E+01  0.44105634615E+02  0.00000000000E+00 0.  1.
<scales pt_clust_5="13000.00000" pt_clust_6="13000.00000" pt_clust_7="13000.00000" pt_clust_8="13000.00000" pt_clust_9="43.76668"></scales>
<clustering>
<clus scale="   43.767">  1  9  2 -1</clus>
<clus scale="   89.052">  5  6 -1 -1</clus>
<clus scale="   93.235">  7  8 -1 -1</clus>
<clus scale="  161.946">  1  5  2 -1</clus>
<clus scale="  164.282">  2  5  1 -1</clus>
</clustering>
</event>
<event>
 9    1  0.1612788E-005  0.9783284E+02  0.7546771E-02  0.1285046E+00
         -1   -1    0    0    0  501 -0.00000000000E+00  0.00000000000E+00  0.42726969108E+02  0.42726969108E+02  0.00000000000E+00 0.  1.
          1   -1    0    0  502    0  0.00000000000E+00 -0.00000000000E+00 -0.40387641490E+03  0.40387641490E+03  0.00000000000E+00 0. -1.
         23    2    1    2    0    0  0.25255424791E+02  0.40050953913E+02 -0.20037032103E+03  0.22505737274E+03  0.90888063506E+02 0.  0.
         23    2    1    2    0    0 -0.42204709244E+01 -0.26196662790E+02 -0.17020622159E+03  0.19465213052E+03  0.90637831675E+02 0.  0.
        -13    1    4    4    0    0 -0.36647049749E+02 -0.20579541615E+02 -0.15057777135E+03  0.15633358248E+03  0.00000000000E+00 0. -1.
         13    1    4    4    0    0  0.32426578824E+02 -0.56171211755E+01 -0.19628450247E+02  0.38318548037E+02  0.00000000000E+00 0.  1.
        -13    1    3    3    0    0 -0.28590937550E+02  0.39336722719E+02 -0.94479070463E+02  0.10625965471E+03  0.00000000000E+00 0. -1.
         13    1    3    3    0    0  0.53846362341E+02  0.71423119397E+00 -0.10589125056E+03  0.11879771803E+03  0.00000000000E+00 0.  1.
         21    1    1    2  502  501 -0.21034953866E+02 -0.13854291122E+02  0.94270968299E+01  0.26893880741E+02  0.00000000000E+00 0. -1.
<scales pt_clust_5="13000.00000" pt_clust_6="13000.00000" pt_clust_7="13000.00000" pt_clust_8="13000.00000" pt_clust_9="25.18751"></scales>
<clustering>
<clus scale="   25.188">  1  9  2 -1</clus>
<clus scale="   90.638">  5  6 -1 -1</clus>
<clus scale="   90.888">  7  8 -1 -1</clus>
<clus scale="   97.600">  2  5  1 -1</clus>
<clus scale="   97.600">  2  5  1 -1</clus>
</clustering>
</event>
<event>
 9    1  0.1612788E-005  0.9334924E+02  0.7546771E-02  0.1298823E+00
         -2   -1    0    0    0  501 -0.00000000000E+00  0.00000000000E+00  0.15584744111E+03  0.15584744111E+03  0.00000000000E+00 0.  1.
          2   -1    0    0  502    0  0.00000000000E+00 -0.00000000000E+00 -0.80076899137E+02  0.80076899137E+02  0.00000000000E+00 0. -1.
         23    2    1    2    0    0  0.28551007456E+02 -0.24794225895E+02  0.37326570363E+02  0.98013932444E+02  0.82362275549E+02 0.  0.
         23    2    1    2    0    0 -0.21469998845E+02  0.54402098122E+01 -0.26685164261E+01  0.91921764706E+02  0.89173612205E+02 0.  0.
        -13    1    4    4    0    0 -0.10409694041E+02 -0.41505305755E+02 -0.75236979833E+01  0.43447188254E+02  0.00000000000E+00 0.  1.
         13    1    4    4    0    0 -0.11060304804E+02  0.46945515567E+02  0.48551815572E+01  0.48474576452E+02  0.00000000000E+00 0. -1.
        -13    1    3    3    0    0 -0.36496936176E+01 -0.48623901798E+02  0.10723655683E+02  0.49925953980E+02  0.00000000000E+00 0.  1.
         13    1    3    3    0    0  0.32200701074E+02  0.23829675903E+02  0.26602914680E+02  0.48087978465E+02  0.00000000000E+00 0. -1.
         21    1    1    2  502  501 -0.70810086115E+01  0.19354016082E+02  0.41112488039E+02  0.45988643101E+02  0.00000000000E+00 0. -1.
<scales pt_clust_5="13000.00000" pt_clust_6="13000.00000" pt_clust_7="13000.00000" pt_clust_8="13000.00000" pt_clust_9="20.60870"></scales>
<clustering>
<clus scale="   20.609">  1  9  2 -1</clus>
<clus scale="   82.362">  7  8 -1 -1</clus>
<clus scale="   86.866">  1  7  2 -1</clus>
<clus scale="   89.174">  5  6 -1 -1</clus>
<clus scale="   93.349">  2  5  1 -1</clus>
</clustering>
</event>
<event>
 9    1  0.1612788E-005  0.1443577E+03  0.7546771E-02  0.1207794E+00
         -3   -1    0    0    0  501 -0.00000000000E+00  0.00000000000E+00  0.50773444788E+02  0.50773444788E+02  0.00000000000E+00 0.  1.
          3   -1    0    0  502    0  0.00000000000E+00 -0.00000000000E+00 -0.66493156556E+03  0.66493156556E+03  0.00000000000E+00 0. -1.
         23    2    1    2    0    0 -0.96093030820E+02 -0.26803807891E+02 -0.12021154423E+03  0.17982323844E+03  0.89068889222E+02 0.  0.
         23    2    1    2    0    0  0.98221946221E+02  0.68472727181E+02 -0.45409707616E+03  0.47818589861E+03  0.90119553698E+02 0.  0.
        -11    1    4    4    0    0  0.73929433177E+02  0.37199716523E+02 -0.41263027794E+03  0.42084810356E+03  0.00000000000E+00 0.  1.
         11    1    4    4    0    0  0.24292513044E+02  0.31273010658E+02 -0.41466798224E+02  0.57337795045E+02  0.00000000000E+00 0. -1.
        -13    1    3    3    0    0 -0.39023916279E+02 -0.44678009780E+02 -0.10078005998E+03  0.11694276844E+03  0.00000000000E+00 0. -1.
         13    1    3    3    0    0 -0.57069114541E+02  0.17874201889E+02 -0.19431484247E+02  0.62880470003E+02  0.00000000000E+00 0.  1.
         21    1    1    2  502  501 -0.21289154006E+01 -0.41668919290E+02 -0.39849500377E+02  0.57695873300E+02  0.00000000000E+00 0.  1.
<scales pt_clust_5="13000.00000" pt_clust_6="13000.00000" pt_clust_7="13000.00000" pt_clust_8="13000.00000" pt_clust_9="41.72327"></scales>
<clustering>
<clus scale="   41.723">  1  9  2 -1</clus>
<clus scale="   89.069">  7  8 -1 -1</clus>
<clus scale="   90.120">  5  6 -1 -1</clus>
<clus scale="  143.704">  1  7  2 -1</clus>
<clus scale="  144.358">  2  5  1 -1</clus>
</clustering>
</event>
<event>
 9    1  0.1612788E-005  0.1652309E+03  0.7546771E-02  0.1204726E+00
          1   -1    0    0  502    0  0.00000000000E+00  0.00000000000E+00  0.67221209474E+03  0.67221209474E+03  0.00000000000E+00 0. -1.
         -1   -1    0    0    0  501 -0.00000000000E+00 -0.00000000000E+00 -0.95340120830E+02  0.95340120830E+02  0.00000000000E+00 0.  1.
         23    2    1    2    0    0 -0.32976642886E+02  0.51634156541E+01  0.35380795806E+00  0.10236498680E+03  0.96769548445E+02 0.  0.
         23    2    1    2    0    0  0.97508955561E+02 -0.11062976908E+03  0.47449050076E+03  0.50488371805E+03  0.89551053706E+02 0.  0.
        -11    1    4    4    0    0 -0.11247853336E+02 -0.34885655928E+02  0.14905789087E+03  0.15349846261E+03  0.00000000000E+00 0.  1.
         11    1    4    4    0    0  0.10875680890E+03 -0.75744113149E+02  0.32543260990E+03  0.35138525544E+03  0.00000000000E+00 0. -1.
        -11    1    3    3    0    0 -0.13260835334E+02 -0.41205736203E+02 -0.20422836975E+02  0.47862874129E+02  0.00000000000E+00 0. -1.
         11    1    3    3    0    0 -0.19715807551E+02  0.46369151857E+02  0.20776644933E+02  0.54502112675E+02  0.00000000000E+00 0.  1.
         21    1    1    2  502  501 -0.64532312676E+02  0.10546635342E+03  0.10202766519E+03  0.16030351072E+03  0.00000000000E+00 0.  1.
<scales pt_clust_5="13000.00000" pt_clust_6="13000.00000" pt_clust_7="13000.00000" pt_clust_8="13000.00000" pt_clust_9="138.85916"></scales>
<clustering>
<clus scale="   89.551">  5  6 -1 -1</clus>
<clus scale="   96.770">  7  8 -1 -1</clus>
<clus scale="  102.364">  2  7  1 -1</clus>
<clus scale="  138.859">  2  9  1 -1</clus>
<clus scale="  165.231">  1  5  2 -1</clus>
</clustering>
</event>
<event>
 9    1  0.1612788E-005  0.1281238E+03  0.7546771E-02  0.1230394E+00
          1   -1    0    0  502    0  0.00000000000E+00  0.00000000000E+00  0.14814621164E+03  0.14814621164E+03  0.00000000000E+00 0. -1.
         -1   -1    0    0    0  501 -0.00000000000E+00 -0.00000000000E+00 -0.38049564781E+03  0.38049564781E+03  0.00000000000E+00 0.  1.
         23    2    1    2    0    0  0.52138603760E+02 -0.32610938455E+02 -0.61838554135E+02  0.12533200265E+03  0.90012203630E+02 0.  0.
         23    2    1    2    0    0 -0.88344959751E+02  0.55348237802E+02  0.73321962937E+02  0.15575715274E+03  0.89531676174E+02 0.  0.
        -13    1    4    4    0    0 -0.82780376979E+02  0.21088315720E+01  0.34875828942E+02  0.89851886056E+02  0.00000000000E+00 0.  1.
         13    1    4    4    0    0 -0.55645827717E+01  0.53239406230E+02  0.38446133995E+02  0.65905266681E+02  0.00000000000E+00 0. -1.
        -13    1    3    3    0    0  0.17673000137E+02 -0.60306322118E+02 -0.24460162643E+02  0.67435057483E+02  0.00000000000E+00 0.  1.
         13    1    3    3    0    0  0.34465603623E+02  0.27695383663E+02 -0.37378391492E+02  0.57896945169E+02  0.00000000000E+00 0. -1.
         21    1    1    2  502  501  0.36206355991E+02 -0.22737299347E+02 -0.24383284497E+03  0.24755270405E+03  0.00000000000E+00 0.  1.
<scales pt_clust_5="13000.00000" pt_clust_6="13000.00000" pt_clust_7="13000.00000" pt_clust_8="13000.00000" pt_clust_9="42.75377"></scales>
<clustering>
<clus scale="   42.754">  2  9  1 -1</clus>
<clus scale="   89.532">  5  6 -1 -1</clus>
<clus scale="   90.012">  7  8 -1 -1</clus>
<clus scale="  127.787">  1  5  2 -1</clus>
<clus scale="  127.787">  1  5  2 -1</clus>
</clustering>
</event>
<event>
 9    1  0.1612788E-005  0.1088679E+03  0.7546771E-02  0.1263835E+00
         -1   -1    0    0    0  501 -0.00000000000E+00  0.00000000000E+00  0.11296084058E+03  0.11296084058E+03  0.00000000000E+00 0.  1.
          1   -1    0    0  502    0  0.00000000000E+00 -0.00000000000E+00 -0.34367900430E+03  0.34367900430E+03  0.00000000000E+00 0. -1.
         23    2    1    2    0    0  0.33985589250E+02  0.59549768418E+02 -0.90770613373E+02  0.14467232745E+03  0.89384466679E+02 0.  0.
         23    2    1    2    0    0 -0.36762883794E+02 -0.38620243642E+02 -0.21178959306E+03  0.23708736336E+03  0.92263499243E+02 0.  0.
        -11    1    4    4    0    0 -0.65341701746E+02 -0.42142616123E+02 -0.15280448997E+03  0.17144897269E+03  0.00000000000E+00 0.  1.
         11    1    4    4    0    0  0.28578817952E+02  0.35223724814E+01 -0.58985103089E+02  0.65638390670E+02  0.00000000000E+00 0. -1.
        -13    1    3    3    0    0  0.55623998641E+01  0.37734410115E+02 -0.10054202374E+03  0.10753382973E+03  0.00000000000E+00 0. -1.
         13    1    3    3    0    0  0.28423189386E+02  0.21815358303E+02  0.97714103643E+01  0.37138497725E+02  0.00000000000E+00 0.  1.
         21    1    1    2  502  501  0.27772945442E+01 -0.20929524776E+02  0.71842042707E+02  0.74880154064E+02  0.00000000000E+00 0.  1.
<scales pt_clust_5="13000.00000" pt_clust_6="13000.00000" pt_clust_7="13000.00000" pt_clust_8="13000.00000" pt_clust_9="21.11299"></scales>
<clustering>
<clus scale="   21.113">  1  9  2 -1</clus>
<clus scale="   89.384">  7  8 -1 -1</clus>
<clus scale="   92.263">  5  6 -1 -1</clus>
<clus scale="  106.439">  1  7  2 -1</clus>
<clus scale="  108.868">  2  5  1 -1</clus>
</clustering>
</event>
<event>
 9    1  0.1612788E-005  0.1870182E+03  0.7546771E-02  0.1161849E+00
          1   -1    0    0  502    0  0.00000000000E+00  0.00000000000E+00  0.75159546917E+03  0.75159546917E+03  0.00000000000E+00 0. -1.
         -1   -1    0    0    0  501 -0.00000000000E+00 -0.00000000000E+00 -0.71529769958E+02  0.71529769958E+02  0.00000000000E+00 0.  1.
         23    2    1    2    0    0  0.44607569463E+02  0.13330800796E+03  0.20100785838E+03  0.26259625652E+03  0.93764463232E+02 0.  0.
         23    2    1    2    0    0 -0.92769877351E+02 -0.15098291153E+03  0.46795428241E+03  0.50803803932E+03  0.87859827298E+02 0.  0.
        -13    1    4    4    0    0 -0.12433028746E+01 -0.73101450357E+02  0.23190795246E+03  0.24315975461E+03  0.00000000000E+00 0. -1.
         13    1    4    4    0    0 -0.91526574477E+02 -0.77881461173E+02  0.23604632995E+03  0.26487828472E+03  0.00000000000E+00 0.  1.
        -13    1    3    3    0    0  0.74028825926E+02  0.10066531378E+03  0.14522771139E+03  0.19158512630E+03  0.00000000000E+00 0. -1.
         13    1    3    3    0    0 -0.29421256463E+02  0.32642694187E+02  0.55780146993E+02  0.71011130213E+02  0.00000000000E+00 0.  1.
         21    1    1    2  502  501  0.48162307888E+02  0.17674903568E+02  0.11103558410E+02  0.52490943282E+02  0.00000000000E+00 0. -1.
<scales pt_clust_5="13000.00000" pt_clust_6="13000.00000" pt_clust_7="13000.00000" pt_clust_8="13000.00000" pt_clust_9="51.30312"></scales>
<clustering>
<clus scale="   51.303">  2  9  1 -1</clus>
<clus scale="   87.860">  5  6 -1 -1</clus>
<clus scale="   93.764">  7  8 -1 -1</clus>
<clus scale="  184.129">  1  5  2 -1</clus>
<clus scale="  184.129">  1  5  2 -1</clus>
</clustering>
</event>
<event>
 9    1  0.1612788E-005  0.1190893E+03  0.7546771E-02  0.1247665E+00
          1   -1    0    0  502    0  0.00000000000E+00  0.00000000000E+00  0.15381443737E+03  0.15381443737E+03  0.00000000000E+00 0. -1.
         -1   -1    0    0    0  501 -0.00000000000E+00 -0.00000000000E+00 -0.52665859173E+03  0.52665859173E+03  0.00000000000E+00 0.  1.
         23    2    1    2    0    0  0.56428482532E+02  0.94716363340E+01 -0.54846240762E+02  0.13133196070E+03  0.10471909205E+03 0.  0.
         23    2    1    2    0    0 -0.16504956624E+02 -0.63485334277E+02  0.82564556987E+02  0.14298634378E+03  0.96568044282E+02 0.  0.
        -11    1    3    3    0    0  0.32852576734E+02 -0.17305166718E+02  0.24395969032E+02  0.44428863346E+02  0.00000000000E+00 0.  1.
         11    1    3    3    0    0  0.23575905798E+02  0.26776803052E+02 -0.79242209794E+02  0.86903097350E+02  0.00000000000E+00 0. -1.
        -13    1    4    4    0    0  0.75551522417E+01  0.23911916499E+02  0.10516171959E+02  0.27192828994E+02  0.00000000000E+00 0.  1.
         13    1    4    4    0    0 -0.24060108866E+02 -0.87397250776E+02  0.72048385028E+02  0.11579351479E+03  0.00000000000E+00 0. -1.
         21    1    1    2  502  501 -0.39923525908E+02  0.54013697943E+02 -0.40056247058E+03  0.40615472462E+03  0.00000000000E+00 0.  1.
<scales pt_clust_5="13000.00000" pt_clust_6="13000.00000" pt_clust_7="13000.00000" pt_clust_8="13000.00000" pt_clust_9="67.16671"></scales>
<clustering>
<clus scale="   67.167">  2  9  1 -1</clus>
<clus scale="   96.568">  7  8 -1 -1</clus>
<clus scale="  104.719">  5  6 -1 -1</clus>
<clus scale="  111.989">  1  7  2 -1</clus>
<clus scale="  111.989">  1  5  2 -1</clus>
</clustering>
</event>
<event>
 9    1  0.1612788E-005  0.9545222E+02  0.7546771E-02  0.1292925E+00
         -1   -1    0    0    0  501 -0.00000000000E+00  0.00000000000E+00  0.13308600734E+03  0.13308600734E+03  0.00000000000E+00 0.  1.
          1   -1    0    0  502    0  0.00000000000E+00 -0.00000000000E+00 -0.11038515669E+03  0.11038515669E+03  0.00000000000E+00 0. -1.
         23    2    1    2    0    0 -0.30477041606E+02  0.32959896766E+02 -0.34729532392E+01  0.10189127058E+03  0.91403308229E+02 0.  0.
         23    2    1    2    0    0  0.19560706492E+02  0.38485416278E+01 -0.95242896813E+01  0.89154886118E+02  0.86373891389E+02 0.  0.
        -11    1    3    3    0    0 -0.32436970191E+02 -0.18332915528E+02  0.23353977898E+02  0.43973413679E+02  0.00000000000E+00 0.  1.
         11    1    3    3    0    0  0.19599285851E+01  0.51292812295E+02 -0.26826931137E+02  0.57917856896E+02  0.00000000000E+00 0. -1.
        -13    1    4    4    0    0  0.17560875473E+02 -0.39781778711E+02 -0.12872567944E+02  0.45350603858E+02  0.00000000000E+00 0.  1.
         13    1    4    4    0    0  0.19998310193E+01  0.43630320339E+02  0.33482782631E+01  0.43804282260E+02  0.00000000000E+00 0. -1.
         21    1    1    2  502  501  0.10916335114E+02 -0.36808438394E+02  0.35698093568E+02  0.52425007331E+02  0.00000000000E+00 0.  1.
<scales pt_clust_5="13000.00000" pt_clust_6="13000.00000" pt_clust_7="13000.00000" pt_clust_8="13000.00000" pt_clust_9="38.39307"></scales>
<clustering>
<clus scale="   38.393">  1  9  2 -1</clus>
<clus scale="   86.374">  7  8 -1 -1</clus>
<clus scale="   90.648">  2  7  1 -1</clus>
<clus scale="   91.403">  5  6 -1 -1</clus>
<clus scale="   90.648">  2  5  1 -1</clus>
</clustering>
</event>
<event>
 9    1  0.1612788E-005  0.1098140E+03  0.7546771E-02  0.1261161E+00
         -1   -1    0    0    0  501 -0.00000000000E+00  0.00000000000E+00  0.37539005002E+02  0.37539005002E+02  0.00000000000E+00 0.  1.
          1   -1    0    0  502    0  0.00000000000E+00 -0.00000000000E+00 -0.42066033877E+03  0.42066033877E+03  0.00000000000E+00 0. -1.
         23    2    1    2    0    0 -0.51103953676E+02 -0.25112904778E+02 -0.11658716163E+03  0.15826611461E+03  0.90627394914E+02 0.  0.
         23    2    1    2    0    0  0.70648749873E+02  0.15221766881E+02 -0.23006779650E+03  0.25739348046E+03  0.89984802900E+02 0.  0.
        -11    1    3    3    0    0 -0.44109728936E+02  0.15149962913E+02 -0.15363001923E+02  0.49104087316E+02  0.00000000000E+00 0.  1.
         11    1    3    3    0    0 -0.69942247395E+01 -0.40262867691E+02 -0.10122415970E+03  0.10916202729E+03  0.00000000000E+00 0. -1.
        -13    1    4    4    0    0  0.82931290245E+02  0.32824734105E+02 -0.15014392638E+03  0.17463751229E+03  0.00000000000E+00 0.  1.
         13    1    4    4    0    0 -0.12282540372E+02 -0.17602967223E+02 -0.79923870114E+02  0.82755968166E+02  0.00000000000E+00 0. -1.
         21    1    1    2  502  501 -0.19544796197E+02  0.98911378962E+01 -0.36466375640E+02  0.42539748702E+02  0.00000000000E+00 0.  1.
<scales pt_clust_5="13000.00000" pt_clust_6="13000.00000" pt_clust_7="13000.00000" pt_clust_8="13000.00000" pt_clust_9="21.90511"></scales>
<clustering>
<clus scale="   21.905">  2  9  1 -1</clus>
<clus scale="   89.985">  7  8 -1 -1</clus>
<clus scale="   90.627">  5  6 -1 -1</clus>
<clus scale="  109.284">  2  7  1 -1</clus>
<clus scale="   21.905">  2  5  1 -1</clus>
</clustering>
</event>
<event>
 9    1  0.1612788E-005  0.1496280E+03  0.7546771E-02  0.1201038E+00
          1   -1    0    0  502    0  0.00000000000E+00  0.00000000000E+00  0.56479398110E+03  0.56479398110E+03  0.00000000000E+00 0. -1.
         -1   -1    0    0    0  501 -0.00000000000E+00 -0.00000000000E+00 -0.45309785157E+02  0.45309785157E+02  0.00000000000E+00 0.  1.
         23    2    1    2    0    0 -0.12421482203E+03  0.18397971637E+02  0.25460260101E+03  0.29814683497E+03  0.91111159494E+02 0.  0.
         23    2    1    2    0    0  0.11178797795E+03 -0.25443685477E+01  0.23490559582E+03  0.27584150928E+03  0.91678096988E+02 0.  0.
        -13    1    3    3    0    0 -0.72637151265E+01 -0.28187746835E+02  0.42920119430E+02  0.51859881228E+02  0.00000000000E+00 0. -1.
         13    1    3    3    0    0 -0.11695110690E+03  0.46585718472E+02  0.21168248158E+03  0.24628695374E+03  0.00000000000E+00 0.  1.
        -13    1    4    4    0    0  0.77861805717E+02 -0.56558077932E-01  0.22826898324E+03  0.24118290299E+03  0.00000000000E+00 0. -1.
         13    1    4    4    0    0  0.33926172231E+02 -0.24878104697E+01  0.66366125888E+01  0.34658606288E+02  0.00000000000E+00 0.  1.
         21    1    1    2  502  501  0.12426844081E+02 -0.15853603089E+02  0.29975999101E+02  0.36115422008E+02  0.00000000000E+00 0.  1.
<scales pt_clust_5="13000.00000" pt_clust_6="13000.00000" pt_clust_7="13000.00000" pt_clust_8="13000.00000" pt_clust_9="20.14356"></scales>
<clustering>
<clus scale="   20.144">  2  9  1 -1</clus>
<clus scale="   91.111">  5  6 -1 -1</clus>
<clus scale="   91.678">  7  8 -1 -1</clus>
<clus scale="  149.281">  2  5  1 -1</clus>
<clus scale="  149.628">  1  5  2 -1</clus>
</clustering>
</event>
<event>
 9    1  0.1612788E-005  0.9564002E+02  0.7546771E-02  0.1291091E+00
         -1   -1    0    0    0  501 -0.00000000000E+00  0.00000000000E+00  0.11646698573E+03  0.11646698573E+03  0.00000000000E+00 0.  1.
          1   -1    0    0  502    0  0.00000000000E+00 -0.00000000000E+00 -0.16579620514E+03  0.16579620514E+03  0.00000000000E+00 0. -1.
         23    2    1    2    0    0 -0.21071217014E+02  0.19157447927E+02 -0.19608230414E+02  0.99278650261E+02  0.93063224209E+02 0.  0.
         23    2    1    2    0    0 -0.42743670407E+00 -0.21850165953E+02 -0.83415889030E+02  0.12508302826E+03  0.90608724541E+02 0.  0.
        -13    1    4    4    0    0  0.11735816851E+02  0.33811078402E+02 -0.26346245775E+02  0.44441456842E+02  0.00000000000E+00 0.  1.
         13    1    4    4    0    0 -0.12163253555E+02 -0.55661244355E+02 -0.57069643255E+02  0.80641571422E+02  0.00000000000E+00 0. -1.
        -13    1    3    3    0    0 -0.53533347728E+02  0.22524132216E+02  0.51605907961E+01  0.58307697163E+02  0.00000000000E+00 0.  1.
         13    1    3    3    0    0  0.32462130714E+02 -0.33666842894E+01 -0.24768821210E+02  0.40970953098E+02  0.00000000000E+00 0. -1.
         21    1    1    2  502  501  0.21498653718E+02  0.26927180264E+01  0.53694900034E+02  0.57901512344E+02  0.00000000000E+00 0.  1.
<scales pt_clust_5="13000.00000" pt_clust_6="13000.00000" pt_clust_7="13000.00000" pt_clust_8="13000.00000" pt_clust_9="21.66663"></scales>
<clustering>
<clus scale="   21.667">  1  9  2 -1</clus>
<clus scale="   90.609">  5  6 -1 -1</clus>
<clus scale="   93.063">  7  8 -1 -1</clus>
<clus scale="   93.253">  2  5  1 -1</clus>
<clus scale="   93.253">  2  5  1 -1</clus>
</clustering>
</event>
<event>
 9    1  0.1612788E-005  0.1046003E+03  0.7546771E-02  0.1271122E+00
         -1   -1    0    0    0  501 -0.00000000000E+00  0.00000000000E+00  0.24179739285E+03  0.24179739285E+03  0.00000000000E+00 0.  1.
          1   -1    0    0  502    0  0.00000000000E+00 -0.00000000000E+00 -0.82770495113E+02  0.82770495113E+02  0.00000000000E+00 0. -1.
         23    2    1    2    0    0  0.48003619483E+02 -0.50002110192E+02  0.36599123333E+02  0.12089498739E+03  0.92040988909E+02 0.  0.
         23    2    1    2    0    0 -0.33509652686E+02  0.78617845834E+01  0.33580861871E+02  0.10427644198E+03  0.92526739849E+02 0.  0.
        -13    1    3    3    0    0  0.45027553374E+02 -0.75526479273E+02  0.36480418921E+02  0.95197429581E+02  0.00000000000E+00 0.  1.
         13    1    3    3    0    0  0.29760661090E+01  0.25524369081E+02  0.11870441243E+00  0.25697557806E+02  0.00000000000E+00 0. -1.
        -13    1    4    4    0    0 -0.61700790900E+02  0.23295246674E+02  0.16978706111E+02  0.68102368362E+02  0.00000000000E+00 0. -1.
         13    1    4    4    0    0  0.28191138214E+02 -0.15433462091E+02  0.16602155759E+02  0.36174073613E+02  0.00000000000E+00 0.  1.
         21    1    1    2  502  501 -0.14493966797E+02  0.42140325609E+02  0.88846912535E+02  0.99396458604E+02  0.00000000000E+00 0. -1.
<scales pt_clust_5="13000.00000" pt_clust_6="13000.00000" pt_clust_7="13000.00000" pt_clust_8="13000.00000" pt_clust_9="44.56324"></scales>
<clustering>
<clus scale="   44.563">  1  9  2 -1</clus>
<clus scale="   92.041">  5  6 -1 -1</clus>
<clus scale="   92.527">  7  8 -1 -1</clus>
<clus scale="  104.171">  1  5  2 -1</clus>
<clus scale="  104.600">  2  5  1 -1</clus>
</clustering>
</event>
<event>
 9    1  0.1612788E-005  0.2514318E+03  0.7546771E-02  0.1112448E+00
          2   -1    0    0  502    0  0.00000000000E+00  0.00000000000E+00  0.15852957420E+04  0.15852957420E+04  0.00000000000E+00 0. -1.
         -2   -1    0    0    0  501 -0.00000000000E+00 -0.00000000000E+00 -0.57544939699E+02  0.57544939699E+02  0.00000000000E+00 0.  1.
         23    2    1    2    0    0  0.22120971853E+03 -0.11074078761E+03  0.45652649811E+03  0.52718399900E+03  0.91155162808E+02 0.  0.
         23    2    1    2    0    0 -0.20975503652E+03  0.91353244046E+02  0.10637166006E+04  0.10919195346E+04  0.91938420009E+02 0.  0.
        -11    1    3    3    0    0  0.13940338664E+03 -0.10891418375E+03  0.35627152113E+03  0.39777506257E+03  0.00000000000E+00 0. -1.
         11    1    3    3    0    0  0.81806331891E+02 -0.18266038600E+01  0.10025497698E+03  0.12940893643E+03  0.00000000000E+00 0.  1.
        -11    1    4    4    0    0 -0.39542808174E+02  0.20207606977E+02  0.84312472358E+02  0.95292046117E+02  0.00000000000E+00 0.  1.
         11    1    4    4    0    0 -0.17021222834E+03  0.71145637068E+02  0.97940412829E+03  0.99662748852E+03  0.00000000000E+00 0. -1.
         21    1    1    2  502  501 -0.11454682013E+02  0.19387543567E+02  0.75077035252E+01  0.23737148055E+02  0.00000000000E+00 0.  1.
<scales pt_clust_5="13000.00000" pt_clust_6="13000.00000" pt_clust_7="13000.00000" pt_clust_8="13000.00000" pt_clust_9="22.51858"></scales>
<clustering>
<clus scale="   22.519">  2  9  1 -1</clus>
<clus scale="   91.155">  5  6 -1 -1</clus>
<clus scale="   91.938">  7  8 -1 -1</clus>
<clus scale="  251.146">  2  5  1 -1</clus>
<clus scale="  251.432">  1  5  2 -1</clus>
</clustering>
</event>
<event>
 9    1  0.1612788E-005  0.9221009E+02  0.7546771E-02  0.1299193E+00
         -1   -1    0    0    0  501 -0.00000000000E+00  0.00000000000E+00  0.80050938425E+02  0.80050938425E+02  0.00000000000E+00 0.  1.
          1   -1    0    0  502    0  0.00000000000E+00 -0.00000000000E+00 -0.30193114945E+03  0.30193114945E+03  0.00000000000E+00 0. -1.
         23    2    1    2    0    0 -0.34448678721E+02 -0.18234262319E+02 -0.42341949170E+02  0.10566677126E+03  0.88619558236E+02 0.  0.
         23    2    1    2    0    0 -0.14473409100E+02  0.10455066513E+02 -0.20163089236E+03  0.22207537849E+03  0.91343686117E+02 0.  0.
        -11    1    3    3    0    0  0.12209261811E+02 -0.18277473928E+02  0.18683760411E+02  0.28848137380E+02  0.00000000000E+00 0.  1.
         11    1    3    3    0    0 -0.46657940533E+02  0.43211608718E-01 -0.61025709581E+02  0.76818633885E+02  0.00000000000E+00 0. -1.
        -13    1    4    4    0    0 -0.58753803713E+01 -0.39022122530E+02 -0.11909152293E+03  0.12545930406E+03  0.00000000000E+00 0.  1.
         13    1    4    4    0    0 -0.85980287291E+01  0.49477189043E+02 -0.82539369427E+02  0.96616074434E+02  0.00000000000E+00 0. -1.
         21    1    1    2  502  501  0.48922087822E+02  0.77791958061E+01  0.22092630504E+02  0.54239938116E+02  0.00000000000E+00 0.  1.
<scales pt_clust_5="13000.00000" pt_clust_6="13000.00000" pt_clust_7="13000.00000" pt_clust_8="13000.00000" pt_clust_9="49.53672"></scales>
<clustering>
<clus scale="   49.537">  1  9  2 -1</clus>
<clus scale="   88.620">  5  6 -1 -1</clus>
<clus scale="   89.512">  1  5  2 -1</clus>
<clus scale="   91.344">  7  8 -1 -1</clus>
<clus scale="   92.210">  2  5  1 -1</clus>
</clustering>
</event>
<event>
 9    1  0.1612788E-005  0.9726320E+02  0.7546771E-02  0.1286488E+00
         -1   -1    0    0    0  501 -0.00000000000E+00  0.00000000000E+00  0.49963594737E+02  0.49963594737E+02  0.00000000000E+00 0.  1.
          1   -1    0    0  502    0  0.00000000000E+00 -0.00000000000E+00 -0.30017665545E+03  0.30017665545E+03  0.00000000000E+00 0. -1.
         23    2    1    2    0    0  0.18146141498E+02 -0.17497136728E+02 -0.10959215791E+03  0.14476468405E+03  0.91164359425E+02 0.  0.
         23    2    1    2    0    0 -0.15906414024E+01  0.42800056423E+02 -0.14277366300E+03  0.17506126745E+03  0.91802797040E+02 0.  0.
        -11    1    3    3    0    0  0.39463506091E+02 -0.16614475250E+01 -0.11135295193E+03  0.11815078766E+03  0.00000000000E+00 0. -1.
         11    1    3    3    0    0 -0.21317364593E+02 -0.15835689203E+02  0.17607940231E+01  0.26613896395E+02  0.00000000000E+00 0.  1.
        -13    1    4    4    0    0  0.24201616028E+02  0.44481196094E+02 -0.28929623956E+02  0.58319963705E+02  0.00000000000E+00 0. -1.
         13    1    4    4    0    0 -0.25792257430E+02 -0.16811396711E+01 -0.11384403904E+03  0.11674130374E+03  0.00000000000E+00 0.  1.
         21    1    1    2  502  501 -0.16555500096E+02 -0.25302919695E+02  0.21527601901E+01  0.30314298688E+02  0.00000000000E+00 0.  1.
<scales pt_clust_5="13000.00000" pt_clust_6="13000.00000" pt_clust_7="13000.00000" pt_clust_8="13000.00000" pt_clust_9="30.23776"></scales>
<clustering>
<clus scale="   30.238">  1  9  2 -1</clus>
<clus scale="   91.164">  5  6 -1 -1</clus>
<clus scale="   91.803">  7  8 -1 -1</clus>
<clus scale="   96.661">  1  5  2 -1</clus>
<clus scale="   97.263">  2  5  1 -1</clus>
</clustering>
</event>
<event>
 9    1  0.1612788E-005  0.1699533E+03  0.7546771E-02  0.1178847E+00
         -2   -1    0    0    0  501 -0.00000000000E+00  0.00000000000E+00  0.72052344859E+02  0.72052344859E+02  0.00000000000E+00 0.  1.
          2   -1    0    0  502    0  0.00000000000E+00 -0.00000000000E+00 -0.91291648927E+03  0.91291648927E+03  0.00000000000E+00 0. -1.
         23    2    1    2    0    0 -0.11720746160E+03 -0.80904109387E+02 -0.44231488557E+03  0.47514670970E+03  0.99191097244E+02 0.  0.
         23    2    1    2    0    0  0.12044760049E+03  0.60232231763E+02 -0.43668513465E+03  0.46632304341E+03  0.92885562840E+02 0.  0.
        -11    1    3    3    0    0 -0.49342875583E+02 -0.83036452839E+02 -0.18106464477E+03  0.20521739072E+03  0.00000000000E+00 0.  1.
         11    1    3    3    0    0 -0.67864586017E+02  0.21323434523E+01 -0.26125024080E+03  0.26992931898E+03  0.00000000000E+00 0. -1.
        -13    1    4    4    0    0  0.65436433007E+02  0.43519356784E+02 -0.37009641426E+03  0.37834801047E+03  0.00000000000E+00 0. -1.
         13    1    4    4    0    0  0.55011167480E+02  0.16712874979E+02 -0.66588720399E+02  0.87975032946E+02  0.00000000000E+00 0.  1.
         21    1    1    2  502  501 -0.32401388862E+01  0.20671877624E+02  0.38135875817E+02  0.43499081011E+02  0.00000000000E+00 0. -1.
<scales pt_clust_5="13000.00000" pt_clust_6="13000.00000" pt_clust_7="13000.00000" pt_clust_8="13000.00000" pt_clust_9="20.92427"></scales>
<clustering>
<clus scale="   20.924">  1  9  2 -1</clus>
<clus scale="   92.886">  7  8 -1 -1</clus>
<clus scale="   99.191">  5  6 -1 -1</clus>
<clus scale="  166.352">  2  7  1 -1</clus>
<clus scale="  166.352">  2  5  1 -1</clus>
</clustering>
</event>
<event>
 9    1  0.1612788E-005  0.2095243E+03  0.7546771E-02  0.1142010E+00
         -2   -1    0    0    0  501 -0.00000000000E+00  0.00000000000E+00  0.18103895083E+03  0.18103895083E+03  0.00000000000E+00 0.  1.
          2   -1    0    0  502    0  0.00000000000E+00 -0.00000000000E+00 -0.28974518432E+03  0.28974518432E+03  0.00000000000E+00 0. -1.
         23    2    1    2    0    0  0.11936811609E+03  0.13067546097E+03 -0.39469923223E+02  0.20447126757E+03  0.94476458356E+02 0.  0.
         23    2    1    2    0    0 -0.14853993754E+03 -0.12892902509E+03 -0.84070576600E+02  0.23353939259E+03  0.93733555832E+02 0.  0.
        -13    1    3    3    0    0 -0.95683448804E+01  0.39325212743E+02  0.37612652158E+01  0.40646927277E+02  0.00000000000E+00 0. -1.
         13    1    3    3    0    0  0.12893646097E+03  0.91350248231E+02 -0.43231188439E+02  0.16382434029E+03  0.00000000000E+00 0.  1.
        -13    1    4    4    0    0 -0.95098763287E+02 -0.41988999463E+02 -0.43608467730E+01  0.10404743072E+03  0.00000000000E+00 0.  1.
         13    1    4    4    0    0 -0.53441174252E+02 -0.86940025625E+02 -0.79709729827E+02  0.12949196187E+03  0.00000000000E+00 0. -1.
         21    1    1    2  502  501  0.29171821453E+02 -0.17464358855E+01  0.14834266328E+02  0.32773474987E+02  0.00000000000E+00 0. -1.
<scales pt_clust_5="13000.00000" pt_clust_6="13000.00000" pt_clust_7="13000.00000" pt_clust_8="13000.00000" pt_clust_9="29.22405"></scales>
<clustering>
<clus scale="   29.224">  1  9  2 -1</clus>
<clus scale="   93.734">  7  8 -1 -1</clus>
<clus scale="   94.476">  5  6 -1 -1</clus>
<clus scale="  209.190">  2  7  1 -1</clus>
<clus scale="  209.190">  2  5  1 -1</clus>
</clustering>
</event>
<event>
 9    1  0.1612788E-005  0.1096001E+03  0.7546771E-02  0.1261331E+00
         -1   -1    0    0    0  501 -0.00000000000E+00  0.00000000000E+00  0.65409216224E+02  0.65409216224E+02  0.00000000000E+00 0.  1.
          1   -1    0    0  502    0  0.00000000000E+00 -0.00000000000E+00 -0.40517750222E+03  0.40517750222E+03  0.00000000000E+00 0. -1.
         23    2    1    2    0    0  0.12327994894E+02  0.45125280610E+02 -0.32772188823E+01  0.10223967752E+03  0.90851203002E+02 0.  0.
         23    2    1    2    0    0 -0.36873315315E+02 -0.52880719323E+02 -0.31712116278E+03  0.33613193922E+03  0.90900147531E+02 0.  0.
        -11    1    4    4    0    0  0.27232956539E+02 -0.97415677747E+01 -0.13892910682E+03  0.14190781792E+03  0.00000000000E+00 0.  1.
         11    1    4    4    0    0 -0.64106271854E+02 -0.43139151549E+02 -0.17819205596E+03  0.19422412130E+03  0.00000000000E+00 0. -1.
        -13    1    3    3    0    0 -0.37879179104E+02  0.12578185292E+02 -0.12219166205E+02  0.41741477903E+02  0.00000000000E+00 0. -1.
         13    1    3    3    0    0  0.50207173998E+02  0.32547095318E+02  0.89419473225E+01  0.60498199613E+02  0.00000000000E+00 0.  1.
         21    1    1    2  502  501  0.24545320421E+02  0.77554387137E+01 -0.19369904332E+02  0.32215101708E+02  0.00000000000E+00 0.  1.
<scales pt_clust_5="13000.00000" pt_clust_6="13000.00000" pt_clust_7="13000.00000" pt_clust_8="13000.00000" pt_clust_9="25.74140"></scales>
<clustering>
<clus scale="   25.741">  1  9  2 -1</clus>
<clus scale="   90.851">  7  8 -1 -1</clus>
<clus scale="   90.900">  5  6 -1 -1</clus>
<clus scale="  109.560">  1  7  2 -1</clus>
<clus scale="  109.600">  2  5  1 -1</clus>
</clustering>
</event>
<event>
 9    1  0.1612788E-005  0.1122941E+03  0.7546771E-02  0.1265067E+00
          2   -1    0    0  502    0  0.00000000000E+00  0.00000000000E+00  0.21359356370E+03  0.21359356370E+03  0.00000000000E+00 0. -1.
         -2   -1    0    0    0  501 -0.00000000000E+00 -0.00000000000E+00 -0.28447593252E+03  0.28447593252E+03  0.00000000000E+00 0.  1.
         23    2    1    2    0    0  0.41522929779E+02 -0.22022244167E+01 -0.14844008450E+03  0.17935066157E+03  0.91668956746E+02 0.  0.
         23    2    1    2    0    0 -0.21241262552E+02  0.59614387255E+01  0.18122539849E+03  0.21301894735E+03  0.10976200110E+03 0.  0.
        -11    1    4    4    0    0  0.19154903429E+02 -0.25232874626E+02  0.83428064996E+01  0.32759894804E+02  0.00000000000E+00 0.  1.
         11    1    4    4    0    0 -0.40396165981E+02  0.31194313352E+02  0.17288259199E+03  0.18025905254E+03  0.00000000000E+00 0. -1.
        -13    1    3    3    0    0  0.53853304633E+02 -0.20587191130E+02 -0.43827163193E+02  0.72421206094E+02  0.00000000000E+00 0.  1.
         13    1    3    3    0    0 -0.12330374854E+02  0.18384966713E+02 -0.10461292130E+03  0.10692945548E+03  0.00000000000E+00 0. -1.
         21    1    1    2  502  501 -0.20281667226E+02 -0.37592143087E+01 -0.10366768281E+03  0.10569988731E+03  0.00000000000E+00 0.  1.
<scales pt_clust_5="13000.00000" pt_clust_6="13000.00000" pt_clust_7="13000.00000" pt_clust_8="13000.00000" pt_clust_9="20.62711"></scales>
<clustering>
<clus scale="   20.627">  2  9  1 -1</clus>
<clus scale="   91.669">  7  8 -1 -1</clus>
<clus scale="   94.686">  2  7  1 -1</clus>
<clus scale="  109.762">  5  6 -1 -1</clus>
<clus scale="  112.294">  1  5  2 -1</clus>
</clustering>
</event>
<event>
 9    1  0.1612788E-005  0.2369417E+03  0.7546771E-02  0.1142374E+00
         -1   -1    0    0    0  501 -0.00000000000E+00  0.00000000000E+00  0.28558571288E+03  0.28558571288E+03  0.00000000000E+00 0.  1.
          1   -1    0    0  502    0  0.00000000000E+00 -0.00000000000E+00 -0.46284835929E+03  0.46284835929E+03  0.00000000000E+00 0. -1.
         23    2    1    2    0    0  0.17741864167E+03 -0.24898703970E+03 -0.18956588901E+03  0.37142814832E+03  0.92475525067E+02 0.  0.
         23    2    1    2    0    0 -0.84617934662E+02  0.73788948516E+02 -0.73320095649E+02  0.16104829275E+03  0.89194800201E+02 0.  0.
        -11    1    3    3    0    0  0.50694040383E+02 -0.91264739874E+02 -0.17551888624E+02  0.10586409811E+03  0.00000000000E+00 0.  1.
         11    1    3    3    0    0  0.12672460129E+03 -0.15772229983E+03 -0.17201400039E+03  0.26556405021E+03  0.00000000000E+00 0. -1.
        -11    1    4    4    0    0 -0.99916596217E+02  0.42968431995E+02 -0.51851087157E+02  0.12049127598E+03  0.00000000000E+00 0.  1.
         11    1    4    4    0    0  0.15298661554E+02  0.30820516521E+02 -0.21469008492E+02  0.40557016774E+02  0.00000000000E+00 0. -1.
         21    1    1    2  502  501 -0.92800707006E+02  0.17519809119E+03  0.85623338246E+02  0.21595763110E+03  0.00000000000E+00 0.  1.
<scales pt_clust_5="13000.00000" pt_clust_6="13000.00000" pt_clust_7="13000.00000" pt_clust_8="13000.00000" pt_clust_9="218.15055"></scales>
<clustering>
<clus scale="   89.195">  7  8 -1 -1</clus>
<clus scale="   92.476">  5  6 -1 -1</clus>
<clus scale="  143.390">  2  7  1 -1</clus>
<clus scale="  218.151">  1  9  2 -1</clus>
<clus scale="  143.390">  2  5  1 -1</clus>
</clustering>
</event>
<event>
 9    1  0.1612788E-005  0.1131705E+03  0.7546771E-02  0.1255254E+00
         -1   -1    0    0    0  501 -0.00000000000E+00  0.00000000000E+00  0.69025269685E+03  0.69025269685E+03  0.00000000000E+00 0.  1.
          1   -1    0    0  502    0  0.00000000000E+00 -0.00000000000E+00 -0.36372963927E+02  0.36372963927E+02  0.00000000000E+00 0. -1.
         23    2    1    2    0    0 -0.71596035708E+02  0.27053284678E+02  0.49674883314E+03  0.51065627711E+03  0.90291514468E+02 0.  0.
         23    2    1    2    0    0  0.52720367137E+02 -0.37645737125E+02  0.85129358571E+02  0.14078485833E+03  0.91524477657E+02 0.  0.
        -11    1    3    3    0    0 -0.54616132922E+02 -0.22797075998E+02  0.34474624727E+03  0.34978937041E+03  0.00000000000E+00 0.  1.
         11    1    3    3    0    0 -0.16979902786E+02  0.49850360676E+02  0.15200258588E+03  0.16086690670E+03  0.00000000000E+00 0. -1.
        -13    1    4    4    0    0  0.41611254332E+02 -0.67075148315E+02  0.49114304221E+02  0.92966590170E+02  0.00000000000E+00 0.  1.
         13    1    4    4    0    0  0.11109112805E+02  0.29429411190E+02  0.36015054350E+02  0.47818268163E+02  0.00000000000E+00 0. -1.
         21    1    1    2  502  501  0.18875668571E+02  0.10592452447E+02  0.72001541203E+02  0.75184525325E+02  0.00000000000E+00 0.  1.
<scales pt_clust_5="13000.00000" pt_clust_6="13000.00000" pt_clust_7="13000.00000" pt_clust_8="13000.00000" pt_clust_9="21.64465"></scales>
<clustering>
<clus scale="   21.645">  1  9  2 -1</clus>
<clus scale="   90.292">  5  6 -1 -1</clus>
<clus scale="   91.524">  7  8 -1 -1</clus>
<clus scale="  112.176">  1  5  2 -1</clus>
<clus scale="  113.171">  2  5  1 -1</clus>
</clustering>
</event>
<event>
 9    1  0.1612788E-005  0.9067381E+02  0.7546771E-02  0.1301623E+00
          1   -1    0    0  502    0  0.00000000000E+00  0.00000000000E+00  0.22936877234E+03  0.22936877234E+03  0.00000000000E+00 0. -1.
         -1   -1    0    0    0  501 -0.00000000000E+00 -0.00000000000E+00 -0.24675999341E+03  0.24675999341E+03  0.00000000000E+00 0.  1.
         23    2    1    2    0    0 -0.21590943681E+02 -0.14952936797E+02  0.15136338327E+02  0.95064928590E+02  0.90102567899E+02 0.  0.
         23    2    1    2    0    0  0.67642357367E+01 -0.56901022547E+01  0.16179695824E+03  0.18508428597E+03  0.89441629409E+02 0.  0.
        -11    1    3    3    0    0 -0.11570584574E+02 -0.53012594678E+02  0.12085462453E+02  0.55590215187E+02  0.00000000000E+00 0. -1.
         11    1    3    3    0    0 -0.10020359108E+02  0.38059657881E+02  0.30508758736E+01  0.39474713403E+02  0.00000000000E+00 0.  1.
        -13    1    4    4    0    0 -0.16795490746E+02  0.23351552256E+02  0.12831412586E+02  0.31496486330E+02  0.00000000000E+00 0.  1.
         13    1    4    4    0    0  0.23559726483E+02 -0.29041654511E+02  0.14896554565E+03  0.15358779964E+03  0.00000000000E+00 0. -1.
         21    1    1    2  502  501  0.14826707945E+02  0.20643039051E+02 -0.19432451763E+03  0.19597955118E+03  0.00000000000E+00 0.  1.
<scales pt_clust_5="13000.00000" pt_clust_6="13000.00000" pt_clust_7="13000.00000" pt_clust_8="13000.00000" pt_clust_9="25.41587"></scales>
<clustering>
<clus scale="   25.416">  2  9  1 -1</clus>
<clus scale="   89.442">  7  8 -1 -1</clus>
<clus scale="   90.017">  1  7  2 -1</clus>
<clus scale="   90.103">  5  6 -1 -1</clus>
<clus scale="   90.017">  1  5  2 -1</clus>
</clustering>
</event>
<event>
 9    1  0.2617554E-005  0.9458795E+02  0.7546771E-02  0.1292234E+00
         -1   -1    0    0    0  501 -0.00000000000E+00  0.00000000000E+00  0.31984018258E+03  0.31984018258E+03  0.00000000000E+00 0.  1.
          1   -1    0    0  502    0  0.00000000000E+00 -0.00000000000E+00 -0.12283229074E+03  0.12283229074E+03  0.00000000000E+00 0. -1.
         23    2    1    2    0    0 -0.96829987814E+01 -0.26090034608E+02  0.26829153110E+03  0.28468661196E+03  0.91058612963E+02 0.  0.
         23    2    1    2    0    0  0.20747242597E+00 -0.31608709334E+01 -0.84891732393E+02  0.12436174392E+03  0.90825123029E+02 0.  0.
        -11    1    3    3    0    0  0.33620296281E+02 -0.23488724399E+02  0.19707701730E+03  0.20129926787E+03  0.00000000000E+00 0.  1.
         11    1    3    3    0    0 -0.43303295063E+02 -0.26013102094E+01  0.71214513799E+02  0.83387344086E+02  0.00000000000E+00 0. -1.
        -13    1    4    4    0    0 -0.41268978980E+02  0.74908393724E+01 -0.64484813321E+02  0.76925499346E+02  0.00000000000E+00 0. -1.
         13    1    4    4    0    0  0.41476451406E+02 -0.10651710306E+02 -0.20406919072E+02  0.47436244578E+02  0.00000000000E+00 0.  1.
         21    1    1    2  502  501  0.94755263555E+01  0.29250905542E+02  0.13608093135E+02  0.33624117438E+02  0.00000000000E+00 0. -1.
<scales pt_clust_5="13000.00000" pt_clust_6="13000.00000" pt_clust_7="13000.00000" pt_clust_8="13000.00000" pt_clust_9="30.74738"></scales>
<clustering>
<clus scale="   30.747">  2  9  1 -1</clus>
<clus scale="   90.825">  7  8 -1 -1</clus>
<clus scale="   91.059">  5  6 -1 -1</clus>
<clus scale="   94.363">  2  7  1 -1</clus>
<clus scale="   30.747">  2  5  1 -1</clus>
</clustering>
</event>
<event>
 9    1  0.1612788E-005  0.1046722E+03  0.7546771E-02  0.1272808E+00
         -1   -1    0    0    0  501 -0.00000000000E+00  0.00000000000E+00  0.51205525282E+02  0.51205525282E+02  0.00000000000E+00 0.  1.
          1   -1    0    0  502    0  0.00000000000E+00 -0.00000000000E+00 -0.34034270440E+03  0.34034270440E+03  0.00000000000E+00 0. -1.
         23    2    1    2    0    0  0.20557938652E+02  0.31690963295E+02 -0.47021684328E+02  0.11081461479E+03  0.92961788166E+02 0.  0.
         23    2    1    2    0    0 -0.10589704602E+02 -0.51168109633E+02 -0.23696727338E+03  0.25825631293E+03  0.88388445111E+02 0.  0.
        -11    1    4    4    0    0 -0.16608004438E+01  0.22729373245E+02 -0.26166086423E+02  0.34699376722E+02  0.00000000000E+00 0. -1.
         11    1    4    4    0    0 -0.89289041578E+01 -0.73897482878E+02 -0.21080118696E+03  0.22355693621E+03  0.00000000000E+00 0.  1.
        -11    1    3    3    0    0  0.41134270442E+02  0.44633041353E+02 -0.32960895666E+01  0.60786518173E+02  0.00000000000E+00 0.  1.
         11    1    3    3    0    0 -0.20576331790E+02 -0.12942078058E+02 -0.43725594761E+02  0.50028096622E+02  0.00000000000E+00 0. -1.
         21    1    1    2  502  501 -0.99682340500E+01  0.19477146338E+02 -0.51482214126E+01  0.22477301957E+02  0.00000000000E+00 0.  1.
<scales pt_clust_5="13000.00000" pt_clust_6="13000.00000" pt_clust_7="13000.00000" pt_clust_8="13000.00000" pt_clust_9="21.87978"></scales>
<clustering>
<clus scale="   21.880">  1  9  2 -1</clus>
<clus scale="   88.388">  5  6 -1 -1</clus>
<clus scale="   92.962">  7  8 -1 -1</clus>
<clus scale="  100.632">  2  5  1 -1</clus>
<clus scale="  100.632">  2  5  1 -1</clus>
</clustering>
</event>
<event>
 9    1  0.1612788E-005  0.9290156E+02  0.7546771E-02  0.1297659E+00
         -1   -1    0    0    0  501 -0.00000000000E+00  0.00000000000E+00  0.80084875934E+02  0.80084875934E+02  0.00000000000E+00 0.  1.
          1   -1    0    0  502    0  0.00000000000E+00 -0.00000000000E+00 -0.19042932586E+03  0.19042932586E+03  0.00000000000E+00 0. -1.
         23    2    1    2    0    0 -0.16906473381E+02  0.15089151246E+02 -0.46154924244E+02  0.10153418060E+03  0.87552278495E+02 0.  0.
         23    2    1    2    0    0 -0.29646901537E+02 -0.23771903717E+02 -0.71005679849E+02  0.12113582757E+03  0.90487789077E+02 0.  0.
        -11    1    3    3    0    0  0.10944621357E+02 -0.29965352943E+02 -0.97714302168E+00  0.31916483549E+02  0.00000000000E+00 0.  1.
         11    1    3    3    0    0 -0.27851094738E+02  0.45054504190E+02 -0.45177781222E+02  0.69617697046E+02  0.00000000000E+00 0. -1.
        -13    1    4    4    0    0  0.17888441504E+02 -0.41938351812E+02 -0.22541258074E+02  0.50861871846E+02  0.00000000000E+00 0.  1.
         13    1    4    4    0    0 -0.47535343042E+02  0.18166448095E+02 -0.48464421776E+02  0.70273955720E+02  0.00000000000E+00 0. -1.
         21    1    1    2  502  501  0.46553374918E+02  0.86827524704E+01  0.68161541669E+01  0.47844193633E+02  0.00000000000E+00 0.  1.
<scales pt_clust_5="13000.00000" pt_clust_6="13000.00000" pt_clust_7="13000.00000" pt_clust_8="13000.00000" pt_clust_9="47.35617"></scales>
<clustering>
<clus scale="   47.356">  1  9  2 -1</clus>
<clus scale="   87.552">  5  6 -1 -1</clus>
<clus scale="   90.045">  1  5  2 -1</clus>
<clus scale="   90.488">  7  8 -1 -1</clus>
<clus scale="   92.902">  2  5  1 -1</clus>
</clustering>
</event>
<event>
 9    1  0.1612788E-005  0.1314795E+03  0.7546771E-02  0.1225322E+00
         -2   -1    0    0    0  501 -0.00000000000E+00  0.00000000000E+00  0.91740443947E+02  0.91740443947E+02  0.00000000000E+00 0.  1.
          2   -1    0    0  502    0  0.00000000000E+00 -0.00000000000E+00 -0.37622391172E+03  0.37622391172E+03  0.00000000000E+00 0. -1.
         23    2    1    2    0    0  0.71775606930E+02 -0.39323170302E+02 -0.46409447082E+02  0.13087800693E+03  0.90978934088E+02 0.  0.
         23    2    1    2    0    0 -0.91888684996E+02  0.38878646388E+02 -0.26850979644E+03  0.30060251730E+03  0.91155268905E+02 0.  0.
        -13    1    3    3    0    0  0.27903972912E+02 -0.19866229161E+02 -0.69602857376E+02  0.77574844636E+02  0.00000000000E+00 0. -1.
         13    1    3    3    0    0  0.43871634018E+02 -0.19456941141E+02  0.23193410294E+02  0.53303162299E+02  0.00000000000E+00 0.  1.
        -13    1    4    4    0    0 -0.89702439007E+01 -0.23344018147E+02 -0.22492829977E+02  0.33635336467E+02  0.00000000000E+00 0.  1.
         13    1    4    4    0    0 -0.82918441095E+02  0.62222664535E+02 -0.24601696646E+03  0.26696718083E+03  0.00000000000E+00 0. -1.
         21    1    1    2  502  501  0.20113078066E+02  0.44452391403E+00  0.30435775746E+02  0.36483831433E+02  0.00000000000E+00 0. -1.
<scales pt_clust_5="13000.00000" pt_clust_6="13000.00000" pt_clust_7="13000.00000" pt_clust_8="13000.00000" pt_clust_9="20.11799"></scales>
<clustering>
<clus scale="   20.118">  1  9  2 -1</clus>
<clus scale="   90.979">  5  6 -1 -1</clus>
<clus scale="   91.155">  7  8 -1 -1</clus>
<clus scale="  131.357">  1  5  2 -1</clus>
<clus scale="  131.479">  2  5  1 -1</clus>
</clustering>
</event>
<event>
 9    1  0.1612788E-005  0.1036758E+03  0.7546771E-02  0.1274104E+00
         -2   -1    0    0    0  501 -0.00000000000E+00  0.00000000000E+00  0.77674947320E+02  0.77674947320E+02  0.00000000000E+00 0.  1.
          2   -1    0    0  502    0  0.00000000000E+00 -0.00000000000E+00 -0.26691773880E+03  0.26691773880E+03  0.00000000000E+00 0. -1.
         23    2    1    2    0    0  0.24833872729E+02 -0.25628333445E+02 -0.34457130155E+02  0.10398766542E+03  0.91392603807E+02 0.  0.
         23    2    1    2    0    0 -0.44557496860E+02  0.15718624312E+02 -0.17903937807E+03  0.20781071540E+03  0.94327879544E+02 0.  0.
        -11    1    3    3    0    0 -0.29521529984E+02 -0.11239697980E+02 -0.35800018395E+02  0.47744034815E+02  0.00000000000E+00 0.  1.
         11    1    3    3    0    0  0.54355402713E+02 -0.14388635465E+02  0.13428882403E+01  0.56243630603E+02  0.00000000000E+00 0. -1.
        -13    1    4    4    0    0 -0.13653920012E+02  0.50151166554E+02 -0.56217970423E+02  0.76563889902E+02  0.00000000000E+00 0. -1.
         13    1    4    4    0    0 -0.30903576848E+02 -0.34432542242E+02 -0.12282140765E+03  0.13124682550E+03  0.00000000000E+00 0.  1.
         21    1    1    2  502  501  0.19723624131E+02  0.99097091330E+01  0.24253716747E+02  0.32794305299E+02  0.00000000000E+00 0.  1.
<scales pt_clust_5="13000.00000" pt_clust_6="13000.00000" pt_clust_7="13000.00000" pt_clust_8="13000.00000" pt_clust_9="22.07314"></scales>
<clustering>
<clus scale="   22.073">  1  9  2 -1</clus>
<clus scale="   91.393">  5  6 -1 -1</clus>
<clus scale="   94.328">  7  8 -1 -1</clus>
<clus scale="  101.013">  1  5  2 -1</clus>
<clus scale="  103.676">  2  5  1 -1</clus>
</clustering>
</event>
<event>
 9    1  0.1612788E-005  0.9224425E+02  0.7546771E-02  0.1299243E+00
          1   -1    0    0  502    0  0.00000000000E+00  0.00000000000E+00  0.45604059542E+03  0.45604059542E+03  0.00000000000E+00 0. -1.
         -1   -1    0    0    0  501 -0.00000000000E+00 -0.00000000000E+00 -0.13283498144E+03  0.13283498144E+03  0.00000000000E+00 0.  1.
         23    2    1    2    0    0  0.53009091226E+01 -0.25776327621E+02  0.47477889692E+02  0.10420797554E+03  0.88952984509E+02 0.  0.
         23    2    1    2    0    0  0.75374545884E-01  0.47005151744E+01  0.37341868655E+03  0.38458454378E+03  0.91878481300E+02 0.  0.
        -11    1    4    4    0    0 -0.39290335062E+02  0.25563580764E+02  0.16999795334E+03  0.17634208582E+03  0.00000000000E+00 0.  1.
         11    1    4    4    0    0  0.39365709608E+02 -0.20863065589E+02  0.20342073321E+03  0.20824245796E+03  0.00000000000E+00 0. -1.
        -13    1    3    3    0    0 -0.64415005743E+01 -0.51191826368E+02  0.30387086849E+01  0.51684908504E+02  0.00000000000E+00 0.  1.
         13    1    3    3    0    0  0.11742409697E+02  0.25415498748E+02  0.44439181007E+02  0.52523067034E+02  0.00000000000E+00 0. -1.
         21    1    1    2  502  501 -0.53762836685E+01  0.21075812446E+02 -0.97690962268E+02  0.10008305753E+03  0.00000000000E+00 0.  1.
<scales pt_clust_5="13000.00000" pt_clust_6="13000.00000" pt_clust_7="13000.00000" pt_clust_8="13000.00000" pt_clust_9="21.75073"></scales>
<clustering>
<clus scale="   21.751">  2  9  1 -1</clus>
<clus scale="   88.953">  7  8 -1 -1</clus>
<clus scale="   89.331">  2  7  1 -1</clus>
<clus scale="   91.878">  5  6 -1 -1</clus>
<clus scale="   92.244">  1  5  2 -1</clus>
</clustering>
</event>
<event>
 9    1  0.1612788E-005  0.1613358E+03  0.7546771E-02  0.1188185E+00
          2   -1    0    0  502    0  0.00000000000E+00  0.00000000000E+00  0.12198150464E+03  0.12198150464E+03  0.00000000000E+00 0. -1.
         -2   -1    0    0    0  501 -0.00000000000E+00 -0.00000000000E+00 -0.62785848364E+03  0.62785848364E+03  0.00000000000E+00 0.  1.
         23    2    1    2    0    0  0.10198906613E+03  0.17147125945E+03 -0.20117463283E+03  0.29983950630E+03  0.98124075630E+02 0.  0.
         23    2    1    2    0    0 -0.27258835598E+02 -0.10382306839E+03 -0.13898322051E+02  0.14222155880E+03  0.92257979511E+02 0.  0.
        -11    1    3    3    0    0  0.87860258830E+02  0.15724924059E+03 -0.12051768426E+03  0.21672854211E+03  0.00000000000E+00 0.  1.
         11    1    3    3    0    0  0.14128807298E+02  0.14222018866E+02 -0.80656948567E+02  0.83110964189E+02  0.00000000000E+00 0. -1.
        -13    1    4    4    0    0  0.20107844502E+02 -0.39576849282E+02 -0.38431699105E+02  0.58716674852E+02  0.00000000000E+00 0.  1.
         13    1    4    4    0    0 -0.47366680100E+02 -0.64246219104E+02  0.24533377054E+02  0.83504883944E+02  0.00000000000E+00 0. -1.
         21    1    1    2  502  501 -0.74730230530E+02 -0.67648191065E+02 -0.29080402412E+03  0.30777892318E+03  0.00000000000E+00 0. -1.
<scales pt_clust_5="13000.00000" pt_clust_6="13000.00000" pt_clust_7="13000.00000" pt_clust_8="13000.00000" pt_clust_9="100.80122"></scales>
<clustering>
<clus scale="   92.258">  7  8 -1 -1</clus>
<clus scale="   98.124">  5  6 -1 -1</clus>
<clus scale="  100.801">  2  9  1 -1</clus>
<clus scale="  157.837">  1  7  2 -1</clus>
<clus scale="  157.837">  1  5  2 -1</clus>
</clustering>
</event>
<event>
 9    1  0.1612788E-005  0.1048050E+03  0.7546771E-02  0.1270509E+00
         -2   -1    0    0    0  501 -0.00000000000E+00  0.00000000000E+00  0.83488563939E+02  0.83488563939E+02  0.00000000000E+00 0.  1.
          2   -1    0    0  502    0  0.00000000000E+00 -0.00000000000E+00 -0.39425907695E+03  0.39425907695E+03  0.00000000000E+00 0. -1.
         23    2    1    2    0    0 -0.59347162628E+02  0.30464773740E+02  0.18444751012E+02  0.11360262817E+03  0.90084183606E+02 0.  0.
         23    2    1    2    0    0  0.52687517359E+02  0.35237387563E+00 -0.31028919653E+03  0.32737214918E+03  0.90094616508E+02 0.  0.
        -11    1    4    4    0    0 -0.21511546165E+02 -0.88609698224E+01 -0.34383294450E+02  0.41514748486E+02  0.00000000000E+00 0.  1.
         11    1    4    4    0    0  0.74199063524E+02  0.92133436980E+01 -0.27590590208E+03  0.28585740069E+03  0.00000000000E+00 0. -1.
        -13    1    3    3    0    0  0.18549660285E+02  0.86299925545E+01  0.25156486280E+02  0.32425537314E+02  0.00000000000E+00 0.  1.
         13    1    3    3    0    0 -0.77896822913E+02  0.21834781185E+02 -0.67117352676E+01  0.81177090855E+02  0.00000000000E+00 0. -1.
         21    1    1    2  502  501  0.66596452696E+01 -0.30817147615E+02 -0.18926067497E+02  0.36772863543E+02  0.00000000000E+00 0. -1.
<scales pt_clust_5="13000.00000" pt_clust_6="13000.00000" pt_clust_7="13000.00000" pt_clust_8="13000.00000" pt_clust_9="31.52852"></scales>
<clustering>
<clus scale="   31.529">  1  9  2 -1</clus>
<clus scale="   90.084">  7  8 -1 -1</clus>
<clus scale="   90.095">  5  6 -1 -1</clus>
<clus scale="  104.796">  1  7  2 -1</clus>
<clus scale="  104.805">  2  5  1 -1</clus>
</clustering>
</event>
<event>
 9    1  0.1612788E-005  0.2139290E+03  0.7546771E-02  0.1140029E+00
         -1   -1    0    0    0  501 -0.00000000000E+00  0.00000000000E+00  0.10211837636E+03  0.10211837636E+03  0.00000000000E+00 0.  1.
          1   -1    0    0  502    0  0.00000000000E+00 -0.00000000000E+00 -0.85870194878E+03  0.85870194878E+03  0.00000000000E+00 0. -1.
         23    2    1    2    0    0 -0.68509714934E+02  0.15938708285E+03 -0.50053605014E+02  0.21016585896E+03  0.10754767165E+03 0.  0.
         23    2    1    2    0    0  0.87838889955E+02 -0.16530622012E+03 -0.69857337048E+03  0.72892981135E+03  0.91060962712E+02 0.  0.
        -11    1    3    3    0    0 -0.68294007708E+02  0.10230291133E+03 -0.78973327020E+02  0.14617367594E+03  0.00000000000E+00 0.  1.
         11    1    3    3    0    0 -0.21570722536E+00  0.57084171521E+02  0.28919722005E+02  0.63992183028E+02  0.00000000000E+00 0. -1.
        -13    1    4    4    0    0  0.98451987975E+02 -0.12368399275E+03 -0.45705626511E+03  0.48362273879E+03  0.00000000000E+00 0.  1.
         13    1    4    4    0    0 -0.10613098020E+02 -0.41622227372E+02 -0.24151710537E+03  0.24530707255E+03  0.00000000000E+00 0. -1.
         21    1    1    2  502  501 -0.19329175022E+02  0.59191372689E+01 -0.79565969316E+01  0.21724654836E+02  0.00000000000E+00 0. -1.
<scales pt_clust_5="13000.00000" pt_clust_6="13000.00000" pt_clust_7="13000.00000" pt_clust_8="13000.00000" pt_clust_9="20.21517"></scales>
<clustering>
<clus scale="   20.215">  1  9  2 -1</clus>
<clus scale="   91.061">  7  8 -1 -1</clus>
<clus scale="  107.548">  5  6 -1 -1</clus>
<clus scale="  206.134">  2  7  1 -1</clus>
<clus scale="  206.134">  2  5  1 -1</clus>
</clustering>
</event>
<event>
 9    1  0.1612788E-005  0.9797375E+02  0.7546771E-02  0.1285427E+00
          3   -1    0    0  502    0  0.00000000000E+00  0.00000000000E+00  0.15793194585E+03  0.15793194585E+03  0.00000000000E+00 0. -1.
         -3   -1    0    0    0  501 -0.00000000000E+00 -0.00000000000E+00 -0.12859244803E+03  0.12859244803E+03  0.00000000000E+00 0.  1.
         23    2    1    2    0    0 -0.54720405891E+02  0.26337695623E+02 -0.23665796505E+02  0.11114954089E+03  0.90034179530E+02 0.  0.
         23    2    1    2    0    0  0.13269855543E+02 -0.25143618179E+02  0.80819859190E+02  0.12544265933E+03  0.91628164551E+02 0.  0.
        -11    1    3    3    0    0  0.22985461525E+02 -0.51823103873E+01 -0.12139532069E+02  0.26505773358E+02  0.00000000000E+00 0.  1.
         11    1    3    3    0    0 -0.77705867416E+02  0.31520006010E+02 -0.11526264437E+02  0.84643767530E+02  0.00000000000E+00 0. -1.
        -13    1    4    4    0    0 -0.34829321552E+02  0.32284609563E+01  0.12366525419E+02  0.37100344350E+02  0.00000000000E+00 0. -1.
         13    1    4    4    0    0  0.48099177095E+02 -0.28372079135E+02  0.68453333771E+02  0.88342314980E+02  0.00000000000E+00 0.  1.
         21    1    1    2  502  501  0.41450550348E+02 -0.11940774440E+01 -0.27814564863E+02  0.49932193659E+02  0.00000000000E+00 0.  1.
<scales pt_clust_5="13000.00000" pt_clust_6="13000.00000" pt_clust_7="13000.00000" pt_clust_8="13000.00000" pt_clust_9="41.46775"></scales>
<clustering>
<clus scale="   41.468">  2  9  1 -1</clus>
<clus scale="   90.034">  5  6 -1 -1</clus>
<clus scale="   91.628">  7  8 -1 -1</clus>
<clus scale="   96.485">  2  5  1 -1</clus>
<clus scale="   97.974">  1  5  2 -1</clus>
</clustering>
</event>
<event>
 9    1  0.1612788E-005  0.1134892E+03  0.7546771E-02  0.1254258E+00
         -2   -1    0    0    0  501 -0.00000000000E+00  0.00000000000E+00  0.75872259838E+02  0.75872259838E+02  0.00000000000E+00 0.  1.
          2   -1    0    0  502    0  0.00000000000E+00 -0.00000000000E+00 -0.30368098914E+03  0.30368098914E+03  0.00000000000E+00 0. -1.
         23    2    1    2    0    0 -0.45998469166E+02 -0.53715591492E+02  0.28638006035E+00  0.11498570345E+03  0.90666454935E+02 0.  0.
         23    2    1    2    0    0  0.24260111115E+02  0.55568510372E+02 -0.20811917545E+03  0.23498668254E+03  0.90712388602E+02 0.  0.
        -11    1    4    4    0    0  0.58745805706E+02  0.29719541108E+02 -0.13225633422E+03  0.14773645032E+03  0.00000000000E+00 0. -1.
         11    1    4    4    0    0 -0.34485694591E+02  0.25848969264E+02 -0.75862841228E+02  0.87250232221E+02  0.00000000000E+00 0.  1.
        -13    1    3    3    0    0 -0.11565342109E+02 -0.19830850980E+02 -0.43884654143E+02  0.49526585365E+02  0.00000000000E+00 0. -1.
         13    1    3    3    0    0 -0.34433127057E+02 -0.33884740512E+02  0.44171034203E+02  0.65459118089E+02  0.00000000000E+00 0.  1.
         21    1    1    2  502  501  0.21738358051E+02 -0.18529188799E+01 -0.19975933915E+02  0.29580862984E+02  0.00000000000E+00 0.  1.
<scales pt_clust_5="13000.00000" pt_clust_6="13000.00000" pt_clust_7="13000.00000" pt_clust_8="13000.00000" pt_clust_9="21.81718"></scales>
<clustering>
<clus scale="   21.817">  2  9  1 -1</clus>
<clus scale="   90.666">  7  8 -1 -1</clus>
<clus scale="   90.712">  5  6 -1 -1</clus>
<clus scale="  113.452">  1  7  2 -1</clus>
<clus scale="   21.817">  2  5  1 -1</clus>
</clustering>
</event>
<event>
 9    1  0.1612788E-005  0.1323542E+03  0.7546771E-02  0.1228152E+00
          1   -1    0    0  502    0  0.00000000000E+00  0.00000000000E+00  0.16162271898E+03  0.16162271898E+03  0.00000000000E+00 0. -1.
         -1   -1    0    0    0  501 -0.00000000000E+00 -0.00000000000E+00 -0.14121462772E+03  0.14121462772E+03  0.00000000000E+00 0.  1.
         23    2    1    2    0    0  0.52904188293E+02  0.58886078481E+02 -0.24808201514E+02  0.13378383659E+03  0.10495829977E+03 0.  0.
         23    2    1    2    0    0 -0.68533822360E+02 -0.45251831186E+02  0.66516693849E+02  0.13932330248E+03  0.90784905240E+02 0.  0.
        -13    1    3    3    0    0  0.22713681908E+01 -0.28370373272E+02 -0.15665056858E+02  0.32487400626E+02  0.00000000000E+00 0. -1.
         13    1    3    3    0    0  0.50632820102E+02  0.87256451754E+02 -0.91431446565E+01  0.10129643596E+03  0.00000000000E+00 0.  1.
        -13    1    4    4    0    0 -0.80913746079E+02 -0.14045146774E+02  0.66624868899E+02  0.10575052533E+03  0.00000000000E+00 0. -1.
         13    1    4    4    0    0  0.12379923719E+02 -0.31206684412E+02 -0.10817504950E+00  0.33572777143E+02  0.00000000000E+00 0.  1.
         21    1    1    2  502  501  0.15629634067E+02 -0.13634247296E+02 -0.21300401071E+02  0.29730207638E+02  0.00000000000E+00 0. -1.
<scales pt_clust_5="13000.00000" pt_clust_6="13000.00000" pt_clust_7="13000.00000" pt_clust_8="13000.00000" pt_clust_9="20.74074"></scales>
<clustering>
<clus scale="   20.741">  2  9  1 -1</clus>
<clus scale="   90.785">  7  8 -1 -1</clus>
<clus scale="  104.958">  5  6 -1 -1</clus>
<clus scale="  121.422">  1  7  2 -1</clus>
<clus scale="  121.422">  1  5  2 -1</clus>
</clustering>
</event>
<event>
 9    1  0.1612788E-005  0.2651830E+03  0.7546771E-02  0.1104263E+00
         -1   -1    0    0    0  501 -0.00000000000E+00  0.00000000000E+00  0.12457548245E+03  0.12457548245E+03  0.00000000000E+00 0.  1.
          1   -1    0    0  502    0  0.00000000000E+00 -0.00000000000E+00 -0.86683026604E+03  0.86683026604E+03  0.00000000000E+00 0. -1.
         23    2    1    2    0    0 -0.10151736218E+03  0.23979164902E+03 -0.32450958330E+03  0.42567499763E+03  0.89927327250E+02 0.  0.
         23    2    1    2    0    0  0.93974321183E+02 -0.22061587681E+03 -0.45520664930E+03  0.52297600995E+03  0.93745801369E+02 0.  0.
        -13    1    4    4    0    0 -0.11995026912E+02 -0.82462653331E+02 -0.14393736103E+03  0.16631877154E+03  0.00000000000E+00 0. -1.
         13    1    4    4    0    0  0.10596934809E+03 -0.13815322348E+03 -0.31126928827E+03  0.35665723841E+03  0.00000000000E+00 0.  1.
        -13    1    3    3    0    0  0.10819066134E+01  0.11015757834E+03 -0.12928169841E+03  0.16985175928E+03  0.00000000000E+00 0.  1.
         13    1    3    3    0    0 -0.10259926879E+03  0.12963407069E+03 -0.19522788490E+03  0.25582323835E+03  0.00000000000E+00 0. -1.
         21    1    1    2  502  501  0.75430409978E+01 -0.19175772214E+02  0.37461449016E+02  0.42754740906E+02  0.00000000000E+00 0.  1.
<scales pt_clust_5="13000.00000" pt_clust_6="13000.00000" pt_clust_7="13000.00000" pt_clust_8="13000.00000" pt_clust_9="20.60601"></scales>
<clustering>
<clus scale="   20.606">  1  9  2 -1</clus>
<clus scale="   89.927">  7  8 -1 -1</clus>
<clus scale="   93.746">  5  6 -1 -1</clus>
<clus scale="  263.857">  1  7  2 -1</clus>
<clus scale="  265.183">  2  5  1 -1</clus>
</clustering>
</event>
<event>
 9    1  0.1612788E-005  0.1247543E+03  0.7546771E-02  0.1236854E+00
          2   -1    0    0  502    0  0.00000000000E+00  0.00000000000E+00  0.81789132783E+03  0.81789132783E+03  0.00000000000E+00 0. -1.
         -2   -1    0    0    0  501 -0.00000000000E+00 -0.00000000000E+00 -0.24412402705E+02  0.24412402705E+02  0.00000000000E+00 0.  1.
         23    2    1    2    0    0  0.67432640788E+02 -0.66171690707E+02  0.38517292008E+03  0.40735826515E+03  0.93041518304E+02 0.  0.
         23    2    1    2    0    0 -0.61592329809E+02  0.42548265180E+02  0.38182998535E+03  0.39898499980E+03  0.88266201879E+02 0.  0.
        -11    1    4    4    0    0 -0.35487041105E+02 -0.24519659907E+02  0.16378647746E+03  0.16937105422E+03  0.00000000000E+00 0.  1.
         11    1    4    4    0    0 -0.26105288704E+02  0.67067925087E+02  0.21804350789E+03  0.22961394558E+03  0.00000000000E+00 0. -1.
        -13    1    3    3    0    0  0.51462822346E+02  0.93148004003E+01  0.20064008860E+03  0.20734423730E+03  0.00000000000E+00 0. -1.
         13    1    3    3    0    0  0.15969818443E+02 -0.75486491107E+02  0.18453283149E+03  0.20001402785E+03  0.00000000000E+00 0.  1.
         21    1    1    2  502  501 -0.58403109796E+01  0.23623425527E+02  0.26476019696E+02  0.35960465582E+02  0.00000000000E+00 0. -1.
<scales pt_clust_5="13000.00000" pt_clust_6="13000.00000" pt_clust_7="13000.00000" pt_clust_8="13000.00000" pt_clust_9="24.33466"></scales>
<clustering>
<clus scale="   24.335">  2  9  1 -1</clus>
<clus scale="   88.266">  5  6 -1 -1</clus>
<clus scale="   93.042">  7  8 -1 -1</clus>
<clus scale="  121.235">  1  5  2 -1</clus>
<clus scale="  121.235">  1  5  2 -1</clus>
</clustering>
</event>
<event>
 9    1  0.1612788E-005  0.1144489E+03  0.7546771E-02  0.1252690E+00
          1   -1    0    0  502    0  0.00000000000E+00  0.00000000000E+00  0.32204107017E+03  0.32204107017E+03  0.00000000000E+00 0. -1.
         -1   -1    0    0    0  501 -0.00000000000E+00 -0.00000000000E+00 -0.67118442027E+02  0.67118442027E+02  0.00000000000E+00 0.  1.
         23    2    1    2    0    0 -0.61200877770E+02 -0.71874106564E+02  0.92246707879E+02  0.16055660142E+03  0.91419541178E+02 0.  0.
         23    2    1    2    0    0  0.20397392473E+02  0.52243212382E+02  0.14367032443E+03  0.17949579223E+03  0.91826850370E+02 0.  0.
        -13    1    4    4    0    0 -0.31427437146E+02 -0.32156950882E+01  0.45857896381E+02  0.55686364228E+02  0.00000000000E+00 0.  1.
         13    1    4    4    0    0  0.51824829619E+02  0.55458907470E+02  0.97812428047E+02  0.12380942801E+03  0.00000000000E+00 0. -1.
        -13    1    3    3    0    0 -0.61817026615E+02 -0.13509792179E+02  0.17367439898E+02  0.65616211662E+02  0.00000000000E+00 0.  1.
         13    1    3    3    0    0  0.61614884502E+00 -0.58364314385E+02  0.74879267981E+02  0.94940389753E+02  0.00000000000E+00 0. -1.
         21    1    1    2  502  501  0.40803485298E+02  0.19630894182E+02  0.19005595834E+02  0.49107118545E+02  0.00000000000E+00 0. -1.
<scales pt_clust_5="13000.00000" pt_clust_6="13000.00000" pt_clust_7="13000.00000" pt_clust_8="13000.00000" pt_clust_9="45.28020"></scales>
<clustering>
<clus scale="   45.280">  2  9  1 -1</clus>
<clus scale="   91.420">  7  8 -1 -1</clus>
<clus scale="   91.827">  5  6 -1 -1</clus>
<clus scale="  114.122">  2  7  1 -1</clus>
<clus scale="  114.449">  1  5  2 -1</clus>
</clustering>
</event>
<event>
 9    1  0.1612788E-005  0.1342655E+03  0.7546771E-02  0.1224236E+00
         -2   -1    0    0    0  501 -0.00000000000E+00  0.00000000000E+00  0.41647875531E+02  0.41647875531E+02  0.00000000000E+00 0.  1.
          2   -1    0    0  502    0  0.00000000000E+00 -0.00000000000E+00 -0.89019400662E+03  0.89019400662E+03  0.00000000000E+00 0. -1.
         23    2    1    2    0    0 -0.62032796908E+01 -0.67254072136E+02 -0.30308769473E+03  0.32945580816E+03  0.11007900771E+03 0.  0.
         23    2    1    2    0    0  0.34611487331E+02  0.76204181089E+02 -0.55576659446E+03  0.57086800242E+03  0.10004367245E+03 0.  0.
        -11    1    3    3    0    0  0.24280440881E+02  0.23051289041E+02 -0.68464563268E+02  0.76212191671E+02  0.00000000000E+00 0. -1.
         11    1    3    3    0    0 -0.30483720572E+02 -0.90305361177E+02 -0.23462313146E+03  0.25324361649E+03  0.00000000000E+00 0.  1.
        -13    1    4    4    0    0 -0.32944807530E+02  0.44833916061E+02 -0.21819074786E+03  0.22517247350E+03  0.00000000000E+00 0.  1.
         13    1    4    4    0    0  0.67556294862E+02  0.31370265028E+02 -0.33757584660E+03  0.34569552892E+03  0.00000000000E+00 0. -1.
         21    1    1    2  502  501 -0.28408207641E+02 -0.89501089525E+01  0.10308158105E+02  0.31518071564E+02  0.00000000000E+00 0.  1.
<scales pt_clust_5="13000.00000" pt_clust_6="13000.00000" pt_clust_7="13000.00000" pt_clust_8="13000.00000" pt_clust_9="29.78474"></scales>
<clustering>
<clus scale="   29.785">  1  9  2 -1</clus>
<clus scale="  100.044">  7  8 -1 -1</clus>
<clus scale="  110.079">  5  6 -1 -1</clus>
<clus scale="  126.169">  2  7  1 -1</clus>
<clus scale="  126.169">  2  5  1 -1</clus>
</clustering>
</event>
<event>
 9    1  0.1612788E-005  0.1043472E+03  0.7546771E-02  0.1273371E+00
         -1   -1    0    0    0  501 -0.00000000000E+00  0.00000000000E+00  0.24927994883E+03  0.24927994883E+03  0.00000000000E+00 0.  1.
          1   -1    0    0  502    0  0.00000000000E+00 -0.00000000000E+00 -0.92723743843E+02  0.92723743843E+02  0.00000000000E+00 0. -1.
         23    2    1    2    0    0  0.12391592152E+02  0.16620811209E+02  0.10959231704E+03  0.14370830782E+03  0.90618976272E+02 0.  0.
         23    2    1    2    0    0 -0.86820095941E+01 -0.61864334996E+02 -0.28564146648E+02  0.11017489089E+03  0.86139554637E+02 0.  0.
        -11    1    4    4    0    0  0.37592172724E+02 -0.41058581274E+02 -0.14541485926E+02  0.57536365538E+02  0.00000000000E+00 0. -1.
         11    1    4    4    0    0 -0.46274182319E+02 -0.20805753722E+02 -0.14022660722E+02  0.52638525349E+02  0.00000000000E+00 0.  1.
        -13    1    3    3    0    0 -0.25242230976E+02 -0.14901928263E+02  0.82683111832E+02  0.87725336550E+02  0.00000000000E+00 0.  1.
         13    1    3    3    0    0  0.37633823128E+02  0.31522739471E+02  0.26909205205E+02  0.55982971266E+02  0.00000000000E+00 0. -1.
         21    1    1    2  502  501 -0.37095825584E+01  0.45243523788E+02  0.75528034601E+02  0.88120493974E+02  0.00000000000E+00 0. -1.
<scales pt_clust_5="13000.00000" pt_clust_6="13000.00000" pt_clust_7="13000.00000" pt_clust_8="13000.00000" pt_clust_9="45.39535"></scales>
<clustering>
<clus scale="   45.395">  1  9  2 -1</clus>
<clus scale="   86.140">  5  6 -1 -1</clus>
<clus scale="   90.619">  7  8 -1 -1</clus>
<clus scale="  100.482">  2  5  1 -1</clus>
<clus scale="  100.482">  2  5  1 -1</clus>
</clustering>
</event>
<event>
 9    1  0.1612788E-005  0.1344244E+03  0.7546771E-02  0.1223214E+00
         -2   -1    0    0    0  501 -0.00000000000E+00  0.00000000000E+00  0.17148225471E+03  0.17148225471E+03  0.00000000000E+00 0.  1.
          2   -1    0    0  502    0  0.00000000000E+00 -0.00000000000E+00 -0.17926397437E+03  0.17926397437E+03  0.00000000000E+00 0. -1.
         23    2    1    2    0    0  0.70169458930E+02 -0.19476005674E+02 -0.16453946522E+02  0.11723867534E+03  0.90394175010E+02 0.  0.
         23    2    1    2    0    0 -0.10826364276E+03  0.19626470019E+02 -0.56305223071E+02  0.15818651763E+03  0.98724270304E+02 0.  0.
        -11    1    4    4    0    0 -0.98963860744E+02 -0.20402638206E+02 -0.19271516838E+02  0.10286644127E+03  0.00000000000E+00 0.  1.
         11    1    4    4    0    0 -0.92997820110E+01  0.40029108225E+02 -0.37033706233E+02  0.55320076357E+02  0.00000000000E+00 0. -1.
        -13    1    3    3    0    0  0.86783880800E+02 -0.34378641562E+02 -0.17156776319E+02  0.94908840136E+02  0.00000000000E+00 0.  1.
         13    1    3    3    0    0 -0.16614421870E+02  0.14902635888E+02  0.70282979658E+00  0.22329835203E+02  0.00000000000E+00 0. -1.
         21    1    1    2  502  501  0.38094183825E+02 -0.15046434504E+00  0.64977449934E+02  0.75321036110E+02  0.00000000000E+00 0.  1.
<scales pt_clust_5="13000.00000" pt_clust_6="13000.00000" pt_clust_7="13000.00000" pt_clust_8="13000.00000" pt_clust_9="38.09448"></scales>
<clustering>
<clus scale="   38.094">  1  9  2 -1</clus>
<clus scale="   90.394">  7  8 -1 -1</clus>
<clus scale="   98.724">  5  6 -1 -1</clus>
<clus scale="  128.431">  1  7  2 -1</clus>
<clus scale="  134.424">  2  5  1 -1</clus>
</clustering>
</event>
<event>
 9    1  0.1612788E-005  0.9669512E+02  0.7546771E-02  0.1287639E+00
          3   -1    0    0  502    0  0.00000000000E+00  0.00000000000E+00  0.74053381536E+02  0.74053381536E+02  0.00000000000E+00 0. -1.
         -3   -1    0    0    0  501 -0.00000000000E+00 -0.00000000000E+00 -0.25082450528E+03  0.25082450528E+03  0.00000000000E+00 0.  1.
         23    2    1    2    0    0 -0.33921290439E+02 -0.49495165502E+01 -0.14709013848E+03  0.17521844361E+03  0.88830414178E+02 0.  0.
         23    2    1    2    0    0  0.12998447516E+02  0.41026039054E+02 -0.11507685851E+01  0.99129708439E+02  0.89293220955E+02 0.  0.
        -11    1    3    3    0    0 -0.26861528273E+02 -0.37639005685E+02 -0.12933842627E+03  0.13735597898E+03  0.00000000000E+00 0.  1.
         11    1    3    3    0    0 -0.70597621662E+01  0.32689489135E+02 -0.17751712212E+02  0.37862464634E+02  0.00000000000E+00 0. -1.
        -13    1    4    4    0    0  0.46346479183E+02  0.34960382716E+02  0.17249602030E+02  0.60562143807E+02  0.00000000000E+00 0. -1.
         13    1    4    4    0    0 -0.33348031667E+02  0.60656563384E+01 -0.18400370615E+02  0.38567564632E+02  0.00000000000E+00 0.  1.
         21    1    1    2  502  501  0.20922842923E+02 -0.36076522504E+02 -0.28530216676E+02  0.50529734766E+02  0.00000000000E+00 0.  1.
<scales pt_clust_5="13000.00000" pt_clust_6="13000.00000" pt_clust_7="13000.00000" pt_clust_8="13000.00000" pt_clust_9="41.70469"></scales>
<clustering>
<clus scale="   41.705">  2  9  1 -1</clus>
<clus scale="   88.830">  5  6 -1 -1</clus>
<clus scale="   89.293">  7  8 -1 -1</clus>
<clus scale="   96.268">  2  5  1 -1</clus>
<clus scale="   96.695">  1  5  2 -1</clus>
</clustering>
</event>
<event>
 9    1  0.1612788E-005  0.9266638E+02  0.7546771E-02  0.1297546E+00
         -2   -1    0    0    0  501 -0.00000000000E+00  0.00000000000E+00  0.14338531776E+03  0.14338531776E+03  0.00000000000E+00 0.  1.
          2   -1    0    0  502    0  0.00000000000E+00 -0.00000000000E+00 -0.91477764760E+02  0.91477764760E+02  0.00000000000E+00 0. -1.
         23    2    1    2    0    0 -0.10093138526E+02 -0.49950045192E+01  0.49846016878E+02  0.10381445732E+03  0.90365893097E+02 0.  0.
         23    2    1    2    0    0  0.95448730326E+00 -0.16009385540E+02 -0.23814326404E+02  0.96490563772E+02  0.92120004796E+02 0.  0.
        -13    1    3    3    0    0  0.48434656741E+01 -0.36557976408E+02 -0.65778973633E+01  0.37459491888E+02  0.00000000000E+00 0.  1.
         13    1    3    3    0    0 -0.14936604201E+02  0.31562971889E+02  0.56423914241E+02  0.66354965435E+02  0.00000000000E+00 0. -1.
        -13    1    4    4    0    0 -0.39794829217E+02  0.14756435477E+02 -0.10378703187E+02  0.43693229456E+02  0.00000000000E+00 0. -1.
         13    1    4    4    0    0  0.40749316521E+02 -0.30765821017E+02 -0.13435623217E+02  0.52797334317E+02  0.00000000000E+00 0.  1.
         21    1    1    2  502  501  0.91386512232E+01  0.21004390059E+02  0.25875862523E+02  0.34558061422E+02  0.00000000000E+00 0.  1.
<scales pt_clust_5="13000.00000" pt_clust_6="13000.00000" pt_clust_7="13000.00000" pt_clust_8="13000.00000" pt_clust_9="22.90632"></scales>
<clustering>
<clus scale="   22.906">  1  9  2 -1</clus>
<clus scale="   90.366">  5  6 -1 -1</clus>
<clus scale="   90.923">  1  5  2 -1</clus>
<clus scale="   92.120">  7  8 -1 -1</clus>
<clus scale="   92.666">  2  5  1 -1</clus>
</clustering>
</event>
<event>
 9    1  0.1612788E-005  0.1690927E+03  0.7546771E-02  0.1180551E+00
          1   -1    0    0  502    0  0.00000000000E+00  0.00000000000E+00  0.48318738362E+03  0.48318738362E+03  0.00000000000E+00 0. -1.
         -1   -1    0    0    0  501 -0.00000000000E+00 -0.00000000000E+00 -0.13893168335E+03  0.13893168335E+03  0.00000000000E+00 0.  1.
         23    2    1    2    0    0  0.10717609314E+03  0.12406721890E+03 -0.26109968328E+02  0.18795259142E+03  0.88119557574E+02 0.  0.
         23    2    1    2    0    0 -0.94669675394E+02 -0.10495670865E+03  0.37771465673E+03  0.41017419109E+03  0.74808067766E+02 0.  0.
        -11    1    3    3    0    0 -0.14682376914E+01  0.51724675437E+02  0.96031196594E+01  0.52629057356E+02  0.00000000000E+00 0.  1.
         11    1    3    3    0    0  0.10864433083E+03  0.72342543464E+02 -0.35713087988E+02  0.13532353406E+03  0.00000000000E+00 0. -1.
        -11    1    4    4    0    0  0.82692756111E+01 -0.19823821412E+02  0.24711698373E+02  0.32741912757E+02  0.00000000000E+00 0. -1.
         11    1    4    4    0    0 -0.10293895101E+03 -0.85132887240E+02  0.35300295835E+03  0.37743227834E+03  0.00000000000E+00 0.  1.
         21    1    1    2  502  501 -0.12506417746E+02 -0.19110510249E+02 -0.73489881271E+01  0.23992284454E+02  0.00000000000E+00 0. -1.
<scales pt_clust_5="13000.00000" pt_clust_6="13000.00000" pt_clust_7="13000.00000" pt_clust_8="13000.00000" pt_clust_9="22.83905"></scales>
<clustering>
<clus scale="   22.839">  2  9  1 -1</clus>
<clus scale="   74.808">  7  8 -1 -1</clus>
<clus scale="   88.120">  5  6 -1 -1</clus>
<clus scale="  162.553">  1  7  2 -1</clus>
<clus scale="  162.553">  1  5  2 -1</clus>
</clustering>
</event>
<event>
 9    1  0.1612788E-005  0.1286144E+03  0.7546771E-02  0.1229634E+00
         -1   -1    0    0    0  501 -0.00000000000E+00  0.00000000000E+00  0.89178676435E+02  0.89178676435E+02  0.00000000000E+00 0.  1.
          1   -1    0    0  502    0  0.00000000000E+00 -0.00000000000E+00 -0.29381659202E+03  0.29381659202E+03  0.00000000000E+00 0. -1.
         23    2    1    2    0    0  0.22723158687E+02 -0.79355918406E+02 -0.30074695248E+02  0.12685646581E+03  0.91511594334E+02 0.  0.
         23    2    1    2    0    0  0.10572176890E+02  0.94845991196E+02 -0.17489300814E+03  0.21941509795E+03  0.91912392755E+02 0.  0.
        -11    1    4    4    0    0  0.29427700612E+02 -0.10179807329E+01 -0.70670146582E+02  0.76559097865E+02  0.00000000000E+00 0. -1.
         11    1    4    4    0    0 -0.18855523721E+02  0.95863971929E+02 -0.10422286156E+03  0.14285600008E+03  0.00000000000E+00 0.  1.
        -13    1    3    3    0    0 -0.16726362722E+02 -0.67909260433E+02  0.85660476464E+01  0.70461450700E+02  0.00000000000E+00 0.  1.
         13    1    3    3    0    0  0.39449521409E+02 -0.11446657973E+02 -0.38640742894E+02  0.56395015113E+02  0.00000000000E+00 0. -1.
         21    1    1    2  502  501 -0.33295335578E+02 -0.15490072790E+02  0.32978780275E+00  0.36723704691E+02  0.00000000000E+00 0.  1.
<scales pt_clust_5="13000.00000" pt_clust_6="13000.00000" pt_clust_7="13000.00000" pt_clust_8="13000.00000" pt_clust_9="36.72222"></scales>
<clustering>
<clus scale="   36.722">  1  9  2 -1</clus>
<clus scale="   91.512">  7  8 -1 -1</clus>
<clus scale="   91.912">  5  6 -1 -1</clus>
<clus scale="  128.328">  1  7  2 -1</clus>
<clus scale="  128.614">  2  5  1 -1</clus>
</clustering>
</event>
<event>
 9    1  0.1612788E-005  0.9112907E+02  0.7546771E-02  0.1300162E+00
         -2   -1    0    0    0  501 -0.00000000000E+00  0.00000000000E+00  0.22374846530E+03  0.22374846530E+03  0.00000000000E+00 0.  1.
          2   -1    0    0  502    0  0.00000000000E+00 -0.00000000000E+00 -0.64889800794E+02  0.64889800794E+02  0.00000000000E+00 0. -1.
         23    2    1    2    0    0 -0.22514331328E+02 -0.99110952801E+01  0.40947980430E+02  0.10215486921E+03  0.90298146589E+02 0.  0.
         23    2    1    2    0    0  0.24023102718E+01 -0.20087154315E+01  0.29465608639E+02  0.95000575285E+02  0.90261183129E+02 0.  0.
        -11    1    3    3    0    0 -0.72092491738E+01  0.38541707032E+02  0.31890184681E+02  0.50541273565E+02  0.00000000000E+00 0.  1.
         11    1    3    3    0    0 -0.15305082154E+02 -0.48452802312E+02  0.90577957490E+01  0.51613595646E+02  0.00000000000E+00 0. -1.
        -13    1    4    4    0    0 -0.40218547359E+02  0.13231381377E+02  0.25818384733E+02  0.49590220760E+02  0.00000000000E+00 0.  1.
         13    1    4    4    0    0  0.42620857631E+02 -0.15240096809E+02  0.36472239054E+01  0.45410354525E+02  0.00000000000E+00 0. -1.
         21    1    1    2  502  501  0.20112021056E+02  0.11919810712E+02  0.88445075441E+02  0.91482821602E+02  0.00000000000E+00 0.  1.
<scales pt_clust_5="13000.00000" pt_clust_6="13000.00000" pt_clust_7="13000.00000" pt_clust_8="13000.00000" pt_clust_9="23.37895"></scales>
<clustering>
<clus scale="   23.379">  1  9  2 -1</clus>
<clus scale="   90.261">  7  8 -1 -1</clus>
<clus scale="   90.298">  5  6 -1 -1</clus>
<clus scale="   91.092">  2  7  1 -1</clus>
<clus scale="   91.092">  2  5  1 -1</clus>
</clustering>
</event>
<event>
 9    1  0.1612788E-005  0.1111310E+03  0.7546771E-02  0.1258511E+00
         -2   -1    0    0    0  501 -0.00000000000E+00  0.00000000000E+00  0.40124943281E+03  0.40124943281E+03  0.00000000000E+00 0.  1.
          2   -1    0    0  502    0  0.00000000000E+00 -0.00000000000E+00 -0.50498498603E+02  0.50498498603E+02  0.00000000000E+00 0. -1.
         23    2    1    2    0    0 -0.62863810932E+02 -0.29843247449E+02  0.14577254203E+03  0.18596280612E+03  0.92141484192E+02 0.  0.
         23    2    1    2    0    0  0.43151129894E+02  0.39799156698E+02  0.71587178762E+02  0.13057815158E+03  0.92086571342E+02 0.  0.
        -11    1    4    4    0    0  0.63708322413E+02  0.12058243344E+02  0.18814810391E+02  0.67514062737E+02  0.00000000000E+00 0. -1.
         11    1    4    4    0    0 -0.20557192519E+02  0.27740913354E+02  0.52772368370E+02  0.63064088842E+02  0.00000000000E+00 0.  1.
        -11    1    3    3    0    0  0.11748502250E+02  0.21590246184E+02  0.36452994206E+02  0.43965746007E+02  0.00000000000E+00 0. -1.
         11    1    3    3    0    0 -0.74612313183E+02 -0.51433493633E+02  0.10931954782E+03  0.14199706011E+03  0.00000000000E+00 0.  1.
         21    1    1    2  502  501  0.19712681038E+02 -0.99559092492E+01  0.13339121342E+03  0.13520697371E+03  0.00000000000E+00 0.  1.
<scales pt_clust_5="13000.00000" pt_clust_6="13000.00000" pt_clust_7="13000.00000" pt_clust_8="13000.00000" pt_clust_9="22.08416"></scales>
<clustering>
<clus scale="   22.084">  1  9  2 -1</clus>
<clus scale="   92.087">  5  6 -1 -1</clus>
<clus scale="   92.141">  7  8 -1 -1</clus>
<clus scale="  111.085">  2  5  1 -1</clus>
<clus scale="  111.085">  2  5  1 -1</clus>
</clustering>
</event>
<event>
 9    1  0.1612788E-005  0.1424768E+03  0.7546771E-02  0.1211408E+00
          1   -1    0    0  502    0  0.00000000000E+00  0.00000000000E+00  0.31972633499E+03  0.31972633499E+03  0.00000000000E+00 0. -1.
         -1   -1    0    0    0  501 -0.00000000000E+00 -0.00000000000E+00 -0.10313036885E+03  0.10313036885E+03  0.00000000000E+00 0.  1.
         23    2    1    2    0    0  0.10294819999E+03  0.45694012035E+02  0.28320693883E+02  0.15093298011E+03  0.96397241487E+02 0.  0.
         23    2    1    2    0    0 -0.66052606708E+02 -0.82066019212E+02  0.16378332396E+03  0.21461697683E+03  0.90209152374E+02 0.  0.
        -13    1    4    4    0    0 -0.76623710268E+02 -0.58874911429E+02  0.16254674834E+03  0.18910022096E+03  0.00000000000E+00 0. -1.
         13    1    4    4    0    0  0.10571103560E+02 -0.23191107782E+02  0.12365756208E+01  0.25516755866E+02  0.00000000000E+00 0.  1.
        -13    1    3    3    0    0  0.10370835965E+03  0.54738899596E+01  0.40094655103E+01  0.10393008778E+03  0.00000000000E+00 0.  1.
         13    1    3    3    0    0 -0.76015965979E+00  0.40220122076E+02  0.24311228372E+02  0.47002892331E+02  0.00000000000E+00 0. -1.
         21    1    1    2  502  501 -0.36895593280E+02  0.36372007176E+02  0.24491948285E+02  0.57306746901E+02  0.00000000000E+00 0.  1.
<scales pt_clust_5="13000.00000" pt_clust_6="13000.00000" pt_clust_7="13000.00000" pt_clust_8="13000.00000" pt_clust_9="51.80934"></scales>
<clustering>
<clus scale="   51.809">  2  9  1 -1</clus>
<clus scale="   90.209">  5  6 -1 -1</clus>
<clus scale="   96.397">  7  8 -1 -1</clus>
<clus scale="  138.365">  1  5  2 -1</clus>
<clus scale="  138.365">  1  5  2 -1</clus>
</clustering>
</event>
<event>
 9    1  0.1612788E-005  0.9656160E+02  0.7546771E-02  0.1287829E+00
          1   -1    0    0  502    0  0.00000000000E+00  0.00000000000E+00  0.16022100887E+03  0.16022100887E+03  0.00000000000E+00 0. -1.
         -1   -1    0    0    0  501 -0.00000000000E+00 -0.00000000000E+00 -0.14205271202E+03  0.14205271202E+03  0.00000000000E+00 0.  1.
         23    2    1    2    0    0  0.27419798968E+02  0.70712834217E+01 -0.45153526379E+02  0.10658353653E+03  0.92300384024E+02 0.  0.
         23    2    1    2    0    0 -0.12522353954E+02  0.31799854236E+02  0.10004419681E+03  0.14017953734E+03  0.92051188455E+02 0.  0.
        -13    1    3    3    0    0  0.61169044881E+02  0.12259788647E+02 -0.28277250016E+02  0.68494943885E+02  0.00000000000E+00 0.  1.
         13    1    3    3    0    0 -0.33749245912E+02 -0.51885052249E+01 -0.16876276363E+02  0.38088592649E+02  0.00000000000E+00 0. -1.
        -13    1    4    4    0    0  0.85352792147E+01 -0.30462773717E+02  0.24283846860E+02  0.39881534476E+02  0.00000000000E+00 0.  1.
         13    1    4    4    0    0 -0.21057633168E+02  0.62262627953E+02  0.75760349946E+02  0.10029800286E+03  0.00000000000E+00 0. -1.
         21    1    1    2  502  501 -0.14897445015E+02 -0.38871137658E+02 -0.36722373573E+02  0.55510647012E+02  0.00000000000E+00 0.  1.
<scales pt_clust_5="13000.00000" pt_clust_6="13000.00000" pt_clust_7="13000.00000" pt_clust_8="13000.00000" pt_clust_9="41.62811"></scales>
<clustering>
<clus scale="   41.628">  2  9  1 -1</clus>
<clus scale="   92.051">  7  8 -1 -1</clus>
<clus scale="   92.300">  5  6 -1 -1</clus>
<clus scale="   96.323">  1  7  2 -1</clus>
<clus scale="   96.323">  1  5  2 -1</clus>
</clustering>
</event>
<event>
 9    1  0.1612788E-005  0.1169313E+03  0.7546771E-02  0.1248896E+00
          2   -1    0    0  502    0  0.00000000000E+00  0.00000000000E+00  0.71230211336E+02  0.71230211336E+02  0.00000000000E+00 0. -1.
         -2   -1    0    0    0  501 -0.00000000000E+00 -0.00000000000E+00 -0.49444635552E+03  0.49444635552E+03  0.00000000000E+00 0.  1.
         23    2    1    2    0    0  0.18915063524E+02 -0.94411635592E+02 -0.14070482882E+03  0.19221892906E+03  0.88763344190E+02 0.  0.
         23    2    1    2    0    0 -0.33314546106E+02  0.56448531758E+02 -0.27519379595E+02  0.11525339760E+03  0.90717879629E+02 0.  0.
        -11    1    3    3    0    0  0.33327909624E+02 -0.50977822861E+02 -0.13236139862E+03  0.14570184565E+03  0.00000000000E+00 0.  1.
         11    1    3    3    0    0 -0.14412846100E+02 -0.43433812732E+02 -0.83434302088E+01  0.46517083408E+02  0.00000000000E+00 0. -1.
        -11    1    4    4    0    0  0.19571032379E+01 -0.22003869471E+02  0.60724073437E+01  0.22910143075E+02  0.00000000000E+00 0.  1.
         11    1    4    4    0    0 -0.35271649344E+02  0.78452401228E+02 -0.33591786939E+02  0.92343254522E+02  0.00000000000E+00 0. -1.
         21    1    1    2  502  501  0.14399482582E+02  0.37963103835E+02 -0.25499193577E+03  0.25820424020E+03  0.00000000000E+00 0.  1.
<scales pt_clust_5="13000.00000" pt_clust_6="13000.00000" pt_clust_7="13000.00000" pt_clust_8="13000.00000" pt_clust_9="40.60225"></scales>
<clustering>
<clus scale="   40.602">  2  9  1 -1</clus>
<clus scale="   88.763">  5  6 -1 -1</clus>
<clus scale="   90.718">  7  8 -1 -1</clus>
<clus scale="  115.422">  2  5  1 -1</clus>
<clus scale="  116.931">  1  5  2 -1</clus>
</clustering>
</event>
<event>
 9    1  0.1612788E-005  0.2322757E+03  0.7546771E-02  0.1125121E+00
         -4   -1    0    0    0  501 -0.00000000000E+00  0.00000000000E+00  0.32061346993E+03  0.32061346993E+03  0.00000000000E+00 0.  1.
          4   -1    0    0  502    0  0.00000000000E+00 -0.00000000000E+00 -0.26370798152E+03  0.26370798152E+03  0.00000000000E+00 0. -1.
         23    2    1    2    0    0 -0.65991196238E+01  0.22169470302E+03  0.18816564964E+03  0.30468023325E+03  0.90728402940E+02 0.  0.
         23    2    1    2    0    0  0.13908849179E+02 -0.18635462612E+03 -0.12549351416E+03  0.24309525536E+03  0.91788770120E+02 0.  0.
        -11    1    4    4    0    0  0.16450868149E+02 -0.34799610389E+02  0.10019628243E+02  0.39774827419E+02  0.00000000000E+00 0.  1.
         11    1    4    4    0    0 -0.25420189695E+01 -0.15155501573E+03 -0.13551314241E+03  0.20332042794E+03  0.00000000000E+00 0. -1.
        -13    1    3    3    0    0 -0.29478041021E+01  0.96819124378E+02  0.14116567322E+03  0.17120274440E+03  0.00000000000E+00 0.  1.
         13    1    3    3    0    0 -0.36513155217E+01  0.12487557864E+03  0.46999976426E+02  0.13347748885E+03  0.00000000000E+00 0. -1.
         21    1    1    2  502  501 -0.73097295556E+01 -0.35340076901E+02 -0.57666470622E+01  0.36545962840E+02  0.00000000000E+00 0.  1.
<scales pt_clust_5="13000.00000" pt_clust_6="13000.00000" pt_clust_7="13000.00000" pt_clust_8="13000.00000" pt_clust_9="36.08813"></scales>
<clustering>
<clus scale="   36.088">  2  9  1 -1</clus>
<clus scale="   90.728">  7  8 -1 -1</clus>
<clus scale="   91.789">  5  6 -1 -1</clus>
<clus scale="  231.859">  1  7  2 -1</clus>
<clus scale="   36.088">  2  5  1 -1</clus>
</clustering>
</event>
<event>
 9    1  0.1612788E-005  0.1616395E+03  0.7546771E-02  0.1187408E+00
         -1   -1    0    0    0  501 -0.00000000000E+00  0.00000000000E+00  0.69634859262E+02  0.69634859262E+02  0.00000000000E+00 0.  1.
          1   -1    0    0  502    0  0.00000000000E+00 -0.00000000000E+00 -0.70808717977E+03  0.70808717977E+03  0.00000000000E+00 0. -1.
         23    2    1    2    0    0 -0.79517371630E+02  0.94333345027E+02 -0.12621475594E+03  0.19974175480E+03  0.93513697489E+02 0.  0.
         23    2    1    2    0    0  0.10828802210E+03 -0.76478653378E+02 -0.51821497703E+03  0.54359613378E+03  0.96823107225E+02 0.  0.
        -13    1    4    4    0    0  0.77034523605E+02 -0.99110696815E+02 -0.40193298327E+03  0.42107881814E+03  0.00000000000E+00 0. -1.
         13    1    4    4    0    0  0.31253498500E+02  0.22632043436E+02 -0.11628199376E+03  0.12251731564E+03  0.00000000000E+00 0.  1.
        -13    1    3    3    0    0 -0.22743189405E+02  0.41426109769E+02 -0.11102497753E+03  0.12066449714E+03  0.00000000000E+00 0. -1.
         13    1    3    3    0    0 -0.56774182225E+02  0.52907235259E+02 -0.15189778406E+02  0.79077257654E+02  0.00000000000E+00 0.  1.
         21    1    1    2  502  501 -0.28770650475E+02 -0.17854691649E+02  0.59774124582E+01  0.34384150452E+02  0.00000000000E+00 0. -1.
<scales pt_clust_5="13000.00000" pt_clust_6="13000.00000" pt_clust_7="13000.00000" pt_clust_8="13000.00000" pt_clust_9="33.86060"></scales>
<clustering>
<clus scale="   33.861">  1  9  2 -1</clus>
<clus scale="   93.514">  7  8 -1 -1</clus>
<clus scale="   96.823">  5  6 -1 -1</clus>
<clus scale="  159.679">  1  7  2 -1</clus>
<clus scale="  161.640">  2  5  1 -1</clus>
</clustering>
</event>
<event>
 9    1  0.1612788E-005  0.1182453E+03  0.7546771E-02  0.1246657E+00
         -2   -1    0    0    0  501 -0.00000000000E+00  0.00000000000E+00  0.16388892694E+03  0.16388892694E+03  0.00000000000E+00 0.  1.
          2   -1    0    0  502    0  0.00000000000E+00 -0.00000000000E+00 -0.16532758882E+03  0.16532758882E+03  0.00000000000E+00 0. -1.
         23    2    1    2    0    0  0.43532313458E+02 -0.10364502465E+03  0.10064521255E+02  0.14152415264E+03  0.85384060236E+02 0.  0.
         23    2    1    2    0    0 -0.26658886906E+02  0.59528487106E+02 -0.56163664954E+02  0.12268820908E+03  0.87428269780E+02 0.  0.
        -11    1    3    3    0    0  0.89823744734E+01 -0.18191187635E+02  0.39799851218E+02  0.44672480519E+02  0.00000000000E+00 0.  1.
         11    1    3    3    0    0  0.34549938984E+02 -0.85453837012E+02 -0.29735329963E+02  0.96851672117E+02  0.00000000000E+00 0. -1.
        -13    1    4    4    0    0  0.30606999033E+02  0.12869264024E+02 -0.28676368147E+02  0.43871863836E+02  0.00000000000E+00 0.  1.
         13    1    4    4    0    0 -0.57265885939E+02  0.46659223082E+02 -0.27487296807E+02  0.78816345239E+02  0.00000000000E+00 0. -1.
         21    1    1    2  502  501 -0.16873426552E+02  0.44116537540E+02  0.44660481817E+02  0.65004154054E+02  0.00000000000E+00 0. -1.
<scales pt_clust_5="13000.00000" pt_clust_6="13000.00000" pt_clust_7="13000.00000" pt_clust_8="13000.00000" pt_clust_9="47.23327"></scales>
<clustering>
<clus scale="   47.233">  1  9  2 -1</clus>
<clus scale="   85.384">  5  6 -1 -1</clus>
<clus scale="   87.428">  7  8 -1 -1</clus>
<clus scale="  116.742">  1  5  2 -1</clus>
<clus scale="  118.245">  2  5  1 -1</clus>
</clustering>
</event>
<event>
 9    1  0.1612788E-005  0.1102828E+03  0.7546771E-02  0.1260067E+00
          1   -1    0    0  502    0  0.00000000000E+00  0.00000000000E+00  0.20579092146E+03  0.20579092146E+03  0.00000000000E+00 0. -1.
         -1   -1    0    0    0  501 -0.00000000000E+00 -0.00000000000E+00 -0.21949562564E+03  0.21949562564E+03  0.00000000000E+00 0.  1.
         23    2    1    2    0    0 -0.41415324052E+02  0.44135239788E+02  0.32325616483E+02  0.11464806119E+03  0.91848157277E+02 0.  0.
         23    2    1    2    0    0  0.25335885051E+02 -0.57239809508E+02  0.10815980483E+03  0.15505933273E+03  0.91796244065E+02 0.  0.
        -11    1    4    4    0    0 -0.24266803407E+02  0.11034391960E+02  0.28151271741E+02  0.38770216070E+02  0.00000000000E+00 0.  1.
         11    1    4    4    0    0  0.49602688457E+02 -0.68274201468E+02  0.80008533085E+02  0.11628911666E+03  0.00000000000E+00 0. -1.
        -13    1    3    3    0    0 -0.70449901315E+02  0.35451395714E+02  0.29529747906E+02  0.84213989722E+02  0.00000000000E+00 0.  1.
         13    1    3    3    0    0  0.29034577264E+02  0.86838440735E+01  0.27958685770E+01  0.30434071464E+02  0.00000000000E+00 0. -1.
         21    1    1    2  502  501  0.16079439001E+02  0.13104569721E+02 -0.15419012549E+03  0.15557915318E+03  0.00000000000E+00 0.  1.
<scales pt_clust_5="13000.00000" pt_clust_6="13000.00000" pt_clust_7="13000.00000" pt_clust_8="13000.00000" pt_clust_9="20.74315"></scales>
<clustering>
<clus scale="   20.743">  2  9  1 -1</clus>
<clus scale="   91.796">  5  6 -1 -1</clus>
<clus scale="   91.848">  7  8 -1 -1</clus>
<clus scale="  110.240">  1  5  2 -1</clus>
<clus scale="  110.240">  1  5  2 -1</clus>
</clustering>
</event>
<event>
 9    1  0.1612788E-005  0.1078994E+03  0.7546771E-02  0.1264883E+00
          3   -1    0    0  502    0  0.00000000000E+00  0.00000000000E+00  0.63429410757E+02  0.63429410757E+02  0.00000000000E+00 0. -1.
         -3   -1    0    0    0  501 -0.00000000000E+00 -0.00000000000E+00 -0.28395015680E+03  0.28395015680E+03  0.00000000000E+00 0.  1.
         23    2    1    2    0    0 -0.39443202183E+02 -0.38222668930E+02 -0.95407633445E+02  0.14139295722E+03  0.88727747714E+02 0.  0.
         23    2    1    2    0    0  0.58725945504E+02  0.27145398513E+02 -0.39315381159E+02  0.11735376749E+03  0.89669382808E+02 0.  0.
        -11    1    3    3    0    0 -0.51939132958E+02 -0.90858096061E+01 -0.14785910345E+02  0.54761744068E+02  0.00000000000E+00 0. -1.
         11    1    3    3    0    0  0.12495930775E+02 -0.29136859324E+02 -0.80621723100E+02  0.86631213156E+02  0.00000000000E+00 0.  1.
        -13    1    4    4    0    0  0.24401005787E+02 -0.32801986560E+02 -0.20627961085E+02  0.45791835345E+02  0.00000000000E+00 0. -1.
         13    1    4    4    0    0  0.34324939717E+02  0.59947385073E+02 -0.18687420074E+02  0.71561932147E+02  0.00000000000E+00 0.  1.
         21    1    1    2  502  501 -0.19282743321E+02  0.11077270417E+02 -0.85797731444E+02  0.88632842845E+02  0.00000000000E+00 0. -1.
<scales pt_clust_5="13000.00000" pt_clust_6="13000.00000" pt_clust_7="13000.00000" pt_clust_8="13000.00000" pt_clust_9="22.23803"></scales>
<clustering>
<clus scale="   22.238">  2  9  1 -1</clus>
<clus scale="   88.728">  5  6 -1 -1</clus>
<clus scale="   89.669">  7  8 -1 -1</clus>
<clus scale="  107.118">  2  5  1 -1</clus>
<clus scale="  107.899">  1  5  2 -1</clus>
</clustering>
</event>
<event>
 9    1  0.1612788E-005  0.1652238E+03  0.7546771E-02  0.1183030E+00
          1   -1    0    0  502    0  0.00000000000E+00  0.00000000000E+00  0.69754904521E+03  0.69754904521E+03  0.00000000000E+00 0. -1.
         -1   -1    0    0    0  501 -0.00000000000E+00 -0.00000000000E+00 -0.97433746006E+02  0.97433746006E+02  0.00000000000E+00 0.  1.
         23    2    1    2    0    0  0.25774634343E+01 -0.75389352358E+02  0.35459004540E+02  0.12232781550E+03  0.89535220312E+02 0.  0.
         23    2    1    2    0    0  0.80193442552E+02  0.14506495123E+03  0.52420506172E+03  0.55714733872E+03  0.90262849582E+02 0.  0.
        -11    1    3    3    0    0  0.17100285260E+02  0.16223299250E+02  0.17516031515E+01  0.23636482567E+02  0.00000000000E+00 0.  1.
         11    1    3    3    0    0 -0.14522821826E+02 -0.91612651609E+02  0.33707401389E+02  0.98691332937E+02  0.00000000000E+00 0. -1.
        -13    1    4    4    0    0  0.34091400576E+02  0.13793837771E+03  0.39486714015E+03  0.41965375968E+03  0.00000000000E+00 0.  1.
         13    1    4    4    0    0  0.46102041976E+02  0.71265735154E+01  0.12933792157E+03  0.13749357905E+03  0.00000000000E+00 0. -1.
         21    1    1    2  502  501 -0.82770905986E+02 -0.69675598870E+02  0.40451232949E+02  0.11550763699E+03  0.00000000000E+00 0.  1.
<scales pt_clust_5="13000.00000" pt_clust_6="13000.00000" pt_clust_7="13000.00000" pt_clust_8="13000.00000" pt_clust_9="108.19294"></scales>
<clustering>
<clus scale="   89.535">  5  6 -1 -1</clus>
<clus scale="   90.263">  7  8 -1 -1</clus>
<clus scale="  108.193">  2  9  1 -1</clus>
<clus scale="  164.827">  2  5  1 -1</clus>
<clus scale="  165.224">  1  5  2 -1</clus>
</clustering>
</event>
<event>
 9    1  0.1612788E-005  0.9668529E+02  0.7546771E-02  0.1287640E+00
          3   -1    0    0  502    0  0.00000000000E+00  0.00000000000E+00  0.55019896578E+03  0.55019896578E+03  0.00000000000E+00 0. -1.
         -3   -1    0    0    0  501 -0.00000000000E+00 -0.00000000000E+00 -0.14614568034E+03  0.14614568034E+03  0.00000000000E+00 0.  1.
         23    2    1    2    0    0 -0.42596954596E+02  0.25121633301E+02 -0.31440237055E+02  0.10851998637E+03  0.91337297613E+02 0.  0.
         23    2    1    2    0    0  0.29361905891E+02 -0.87939237762E+01  0.50560585506E+03  0.51462971601E+03  0.90923095637E+02 0.  0.
        -13    1    3    3    0    0 -0.54426955056E+02  0.49766716783E+02 -0.33709723663E+02  0.81088624390E+02  0.00000000000E+00 0.  1.
         13    1    3    3    0    0  0.11830000459E+02 -0.24645083482E+02  0.22694866083E+01  0.27431361981E+02  0.00000000000E+00 0. -1.
        -13    1    4    4    0    0  0.59922357176E+02  0.86377655008E+01  0.33648854338E+03  0.34189156133E+03  0.00000000000E+00 0. -1.
         13    1    4    4    0    0 -0.30560451284E+02 -0.17431689277E+02  0.16911731168E+03  0.17273815468E+03  0.00000000000E+00 0.  1.
         21    1    1    2  502  501  0.13235048705E+02 -0.16327709525E+02 -0.70112332564E+02  0.73194943747E+02  0.00000000000E+00 0.  1.
<scales pt_clust_5="13000.00000" pt_clust_6="13000.00000" pt_clust_7="13000.00000" pt_clust_8="13000.00000" pt_clust_9="21.01810"></scales>
<clustering>
<clus scale="   21.018">  2  9  1 -1</clus>
<clus scale="   90.923">  7  8 -1 -1</clus>
<clus scale="   91.337">  5  6 -1 -1</clus>
<clus scale="   96.294">  1  7  2 -1</clus>
<clus scale="   96.294">  1  5  2 -1</clus>
</clustering>
</event>
<event>
 9    1  0.1612788E-005  0.1091645E+03  0.7546771E-02  0.1262157E+00
         -1   -1    0    0    0  501 -0.00000000000E+00  0.00000000000E+00  0.61505193427E+03  0.61505193427E+03  0.00000000000E+00 0.  1.
          1   -1    0    0  502    0  0.00000000000E+00 -0.00000000000E+00 -0.23977412178E+02  0.23977412178E+02  0.00000000000E+00 0. -1.
         23    2    1    2    0    0  0.41749539124E+02  0.50195273858E+02  0.26006240295E+03  0.28288145289E+03  0.90149173170E+02 0.  0.
         23    2    1    2    0    0 -0.50707239398E+02 -0.30946563368E+02  0.24885780723E+03  0.27129458358E+03  0.90230975546E+02 0.  0.
        -11    1    3    3    0    0  0.46207358875E+02 -0.12937857991E+02  0.11557692754E+03  0.12514205673E+03  0.00000000000E+00 0.  1.
         11    1    3    3    0    0 -0.44578197516E+01  0.63133131849E+02  0.14448547541E+03  0.15773939615E+03  0.00000000000E+00 0. -1.
        -11    1    4    4    0    0 -0.11012255779E+02 -0.53508075268E+02  0.18427337178E+03  0.19220057087E+03  0.00000000000E+00 0.  1.
         11    1    4    4    0    0 -0.39694983619E+02  0.22561511899E+02  0.64584435451E+02  0.79094012708E+02  0.00000000000E+00 0. -1.
         21    1    1    2  502  501  0.89577002748E+01 -0.19248710489E+02  0.82154311910E+02  0.84853309983E+02  0.00000000000E+00 0.  1.
<scales pt_clust_5="13000.00000" pt_clust_6="13000.00000" pt_clust_7="13000.00000" pt_clust_8="13000.00000" pt_clust_9="21.23095"></scales>
<clustering>
<clus scale="   21.231">  1  9  2 -1</clus>
<clus scale="   90.149">  5  6 -1 -1</clus>
<clus scale="   90.231">  7  8 -1 -1</clus>
<clus scale="  109.097">  1  5  2 -1</clus>
<clus scale="  109.164">  2  5  1 -1</clus>
</clustering>
</event>
<event>
 9    1  0.1612788E-005  0.9989103E+02  0.7546771E-02  0.1280589E+00
          2   -1    0    0  502    0  0.00000000000E+00  0.00000000000E+00  0.26675728792E+03  0.26675728792E+03  0.00000000000E+00 0. -1.
         -2   -1    0    0    0  501 -0.00000000000E+00 -0.00000000000E+00 -0.72782504991E+02  0.72782504991E+02  0.00000000000E+00 0.  1.
         23    2    1    2    0    0 -0.36735071257E+02 -0.40085516555E+02  0.12187532961E+02  0.10684445392E+03  0.91164067900E+02 0.  0.
         23    2    1    2    0    0 -0.43812305186E+01  0.11417210694E+02  0.13998383332E+03  0.16742706434E+03  0.91031864759E+02 0.  0.
        -13    1    4    4    0    0 -0.41617210756E+02  0.56426942483E+01  0.31248728252E+02  0.52348020467E+02  0.00000000000E+00 0.  1.
         13    1    4    4    0    0  0.37235980237E+02  0.57745164457E+01  0.10873510507E+03  0.11507904387E+03  0.00000000000E+00 0. -1.
        -13    1    3    3    0    0 -0.40989019738E+02  0.14251665913E+02 -0.15027387842E+02  0.45924199566E+02  0.00000000000E+00 0.  1.
         13    1    3    3    0    0  0.42539484814E+01 -0.54337182468E+02  0.27214920804E+02  0.60920254354E+02  0.00000000000E+00 0. -1.
         21    1    1    2  502  501  0.41116301775E+02  0.28668305861E+02  0.41803416647E+02  0.65268274651E+02  0.00000000000E+00 0.  1.
<scales pt_clust_5="13000.00000" pt_clust_6="13000.00000" pt_clust_7="13000.00000" pt_clust_8="13000.00000" pt_clust_9="50.12407"></scales>
<clustering>
<clus scale="   50.124">  1  9  2 -1</clus>
<clus scale="   91.032">  5  6 -1 -1</clus>
<clus scale="   91.164">  7  8 -1 -1</clus>
<clus scale="   99.770">  1  5  2 -1</clus>
<clus scale="   50.124">  1  5  2 -1</clus>
</clustering>
</event>
<event>
 9    1  0.1612788E-005  0.2272215E+03  0.7546771E-02  0.1128740E+00
         -2   -1    0    0    0  501 -0.00000000000E+00  0.00000000000E+00  0.26262207672E+03  0.26262207672E+03  0.00000000000E+00 0.  1.
          2   -1    0    0  502    0  0.00000000000E+00 -0.00000000000E+00 -0.56534813040E+03  0.56534813040E+03  0.00000000000E+00 0. -1.
         23    2    1    2    0    0  0.20898723972E+03  0.68467900492E+02 -0.17019932902E+03  0.29224666395E+03  0.89870914264E+02 0.  0.
         23    2    1    2    0    0 -0.20599384994E+03  0.15468078586E+02 -0.28374287763E+03  0.36274801345E+03  0.91669913218E+02 0.  0.
        -13    1    3    3    0    0  0.97589821190E+02  0.78682477540E+02 -0.97826468522E+02  0.15901170842E+03  0.00000000000E+00 0.  1.
         13    1    3    3    0    0  0.11139741853E+03 -0.10214577048E+02 -0.72372860494E+02  0.13323495553E+03  0.00000000000E+00 0. -1.
        -13    1    4    4    0    0 -0.68783375313E+02 -0.72094399159E-01 -0.17155827430E+03  0.18483343690E+03  0.00000000000E+00 0. -1.
         13    1    4    4    0    0 -0.13721047463E+03  0.15540172985E+02 -0.11218460333E+03  0.17791457654E+03  0.00000000000E+00 0.  1.
         21    1    1    2  502  501 -0.29933897780E+01 -0.83935979078E+02  0.15121615296E+03  0.17297552972E+03  0.00000000000E+00 0.  1.
<scales pt_clust_5="13000.00000" pt_clust_6="13000.00000" pt_clust_7="13000.00000" pt_clust_8="13000.00000" pt_clust_9="83.98934"></scales>
<clustering>
<clus scale="   83.989">  1  9  2 -1</clus>
<clus scale="   89.871">  5  6 -1 -1</clus>
<clus scale="   91.670">  7  8 -1 -1</clus>
<clus scale="  226.502">  1  5  2 -1</clus>
<clus scale="  227.222">  2  5  1 -1</clus>
</clustering>
</event>
<event>
 9    1  0.1612788E-005  0.4149926E+03  0.7546771E-02  0.1071109E+00
          1   -1    0    0  502    0  0.00000000000E+00  0.00000000000E+00  0.17933003190E+03  0.17933003190E+03  0.00000000000E+00 0. -1.
         -1   -1    0    0    0  501 -0.00000000000E+00 -0.00000000000E+00 -0.17206277825E+04  0.17206277825E+04  0.00000000000E+00 0.  1.
         23    2    1    2    0    0  0.80567293847E+02 -0.42491565146E+03 -0.33097206257E+03  0.55539227185E+03  0.10896636976E+03 0.  0.
         23    2    1    2    0    0  0.11209983330E+03  0.79849169351E+02 -0.20163774286E+03  0.26121755151E+03  0.92922372969E+02 0.  0.
        -11    1    3    3    0    0  0.94930165119E+02 -0.27316762023E+03 -0.17876603179E+03  0.33998467482E+03  0.00000000000E+00 0. -1.
         11    1    3    3    0    0 -0.14362871272E+02 -0.15174803123E+03 -0.15220603077E+03  0.21540759703E+03  0.00000000000E+00 0.  1.
        -11    1    4    4    0    0  0.14929231027E+02  0.27640513756E+02 -0.11984359637E+03  0.12389256447E+03  0.00000000000E+00 0.  1.
         11    1    4    4    0    0  0.97170602277E+02  0.52208655595E+02 -0.81794146489E+02  0.13732498704E+03  0.00000000000E+00 0. -1.
         21    1    1    2  502  501 -0.19266712715E+03  0.34506648211E+03 -0.10086879452E+04  0.10833479911E+04  0.00000000000E+00 0.  1.
<scales pt_clust_5="13000.00000" pt_clust_6="13000.00000" pt_clust_7="13000.00000" pt_clust_8="13000.00000" pt_clust_9="400.43125"></scales>
<clustering>
<clus scale="   92.922">  7  8 -1 -1</clus>
<clus scale="  108.966">  5  6 -1 -1</clus>
<clus scale="  166.063">  1  7  2 -1</clus>
<clus scale="  400.431">  2  9  1 -1</clus>
<clus scale="  166.063">  1  5  2 -1</clus>
</clustering>
</event>
<event>
 9    1  0.1612788E-005  0.1013708E+03  0.7546771E-02  0.1278180E+00
         -1   -1    0    0    0  501 -0.00000000000E+00  0.00000000000E+00  0.23033208682E+03  0.23033208682E+03  0.00000000000E+00 0.  1.
          1   -1    0    0  502    0  0.00000000000E+00 -0.00000000000E+00 -0.22614366071E+03  0.22614366071E+03  0.00000000000E+00 0. -1.
         23    2    1    2    0    0 -0.71854857091E+02 -0.30931624566E+02  0.15529344797E+03  0.19910980378E+03  0.96998830386E+02 0.  0.
         23    2    1    2    0    0  0.15882128521E+02  0.21109049763E+02 -0.17059505923E+03  0.19728856966E+03  0.95510583172E+02 0.  0.
        -13    1    4    4    0    0  0.39145893848E+02  0.25878454613E+02 -0.32297369112E+02  0.56966792694E+02  0.00000000000E+00 0.  1.
         13    1    4    4    0    0 -0.23263765327E+02 -0.47694048495E+01 -0.13829769012E+03  0.14032177697E+03  0.00000000000E+00 0. -1.
        -13    1    3    3    0    0 -0.54310872963E+02 -0.91885206190E+01  0.16454619438E+02  0.57487862493E+02  0.00000000000E+00 0. -1.
         13    1    3    3    0    0 -0.17543984128E+02 -0.21743103947E+02  0.13883882853E+03  0.14162194129E+03  0.00000000000E+00 0.  1.
         21    1    1    2  502  501  0.55972728570E+02  0.98225748032E+01  0.19490037381E+02  0.60077374081E+02  0.00000000000E+00 0.  1.
<scales pt_clust_5="13000.00000" pt_clust_6="13000.00000" pt_clust_7="13000.00000" pt_clust_8="13000.00000" pt_clust_9="56.82807"></scales>
<clustering>
<clus scale="   56.828">  1  9  2 -1</clus>
<clus scale="   95.511">  5  6 -1 -1</clus>
<clus scale="   96.999">  7  8 -1 -1</clus>
<clus scale="   99.948">  2  5  1 -1</clus>
<clus scale="   99.948">  2  5  1 -1</clus>
</clustering>
</event>
<event>
 9    1  0.1612788E-005  0.9769792E+02  0.7546771E-02  0.1286293E+00
          2   -1    0    0  502    0  0.00000000000E+00  0.00000000000E+00  0.54249974895E+03  0.54249974895E+03  0.00000000000E+00 0. -1.
         -2   -1    0    0    0  501 -0.00000000000E+00 -0.00000000000E+00 -0.58463146502E+02  0.58463146502E+02  0.00000000000E+00 0.  1.
         23    2    1    2    0    0  0.15579680980E+02 -0.13842392453E+02  0.21780230391E+03  0.23798110489E+03  0.93609958903E+02 0.  0.
         23    2    1    2    0    0  0.10029221618E+02  0.39351734694E+02  0.29829867529E+03  0.31466340183E+03  0.91552238983E+02 0.  0.
        -13    1    3    3    0    0 -0.47712322332E+01  0.22637986112E+02  0.86523179218E+01  0.24700317359E+02  0.00000000000E+00 0.  1.
         13    1    3    3    0    0  0.20350913214E+02 -0.36480378565E+02  0.20914998599E+03  0.21328078753E+03  0.00000000000E+00 0. -1.
        -13    1    4    4    0    0 -0.40425109670E+02  0.95008199214E+01  0.12220584313E+03  0.12906867616E+03  0.00000000000E+00 0.  1.
         13    1    4    4    0    0  0.50454331287E+02  0.29850914772E+02  0.17609283216E+03  0.18559472567E+03  0.00000000000E+00 0. -1.
         21    1    1    2  502  501 -0.25608902598E+02 -0.25509342241E+02 -0.32064376750E+02  0.48318388737E+02  0.00000000000E+00 0.  1.
<scales pt_clust_5="13000.00000" pt_clust_6="13000.00000" pt_clust_7="13000.00000" pt_clust_8="13000.00000" pt_clust_9="36.14613"></scales>
<clustering>
<clus scale="   36.146">  2  9  1 -1</clus>
<clus scale="   91.552">  7  8 -1 -1</clus>
<clus scale="   93.610">  5  6 -1 -1</clus>
<clus scale="   95.728">  1  7  2 -1</clus>
<clus scale="   95.728">  1  5  2 -1</clus>
</clustering>
</event>
<event>
 9    1  0.1612788E-005  0.1075610E+03  0.7546771E-02  0.1272946E+00
          1   -1    0    0  502    0  0.00000000000E+00  0.00000000000E+00  0.14525089493E+03  0.14525089493E+03  0.00000000000E+00 0. -1.
         -1   -1    0    0    0  501 -0.00000000000E+00 -0.00000000000E+00 -0.16198669320E+03  0.16198669320E+03  0.00000000000E+00 0.  1.
         23    2    1    2    0    0  0.35087580619E+02 -0.64629560915E+01 -0.18936679346E+02  0.11154754532E+03  0.10397763666E+03 0.  0.
         23    2    1    2    0    0  0.19010033435E+02  0.36316131018E+02  0.57248766617E+02  0.11293719633E+03  0.88301451246E+02 0.  0.
        -11    1    3    3    0    0 -0.17116807794E+02 -0.26042747237E+02  0.25486494829E+02  0.40258802905E+02  0.00000000000E+00 0.  1.
         11    1    3    3    0    0  0.52204388412E+02  0.19579791145E+02 -0.44423174175E+02  0.71288742411E+02  0.00000000000E+00 0. -1.
        -13    1    4    4    0    0 -0.24115183337E+02  0.41915354255E+02  0.11275270918E+02  0.49654513632E+02  0.00000000000E+00 0.  1.
         13    1    4    4    0    0  0.43125216772E+02 -0.55992232377E+01  0.45973495699E+02  0.63282682697E+02  0.00000000000E+00 0. -1.
         21    1    1    2  502  501 -0.54097614054E+02 -0.29853174926E+02 -0.55047885544E+02  0.82752846491E+02  0.00000000000E+00 0.  1.
<scales pt_clust_5="13000.00000" pt_clust_6="13000.00000" pt_clust_7="13000.00000" pt_clust_8="13000.00000" pt_clust_9="61.78806"></scales>
<clustering>
<clus scale="   61.788">  2  9  1 -1</clus>
<clus scale="   88.301">  7  8 -1 -1</clus>
<clus scale="   92.494">  1  7  2 -1</clus>
<clus scale="  103.978">  5  6 -1 -1</clus>
<clus scale="   92.494">  1  5  2 -1</clus>
</clustering>
</event>
<event>
 9    1  0.1612788E-005  0.1142946E+03  0.7546771E-02  0.1258046E+00
         -1   -1    0    0    0  501 -0.00000000000E+00  0.00000000000E+00  0.26320797257E+03  0.26320797257E+03  0.00000000000E+00 0.  1.
          1   -1    0    0  502    0  0.00000000000E+00 -0.00000000000E+00 -0.12945203961E+03  0.12945203961E+03  0.00000000000E+00 0. -1.
         23    2    1    2    0    0  0.42500524972E+02  0.26941936952E+02  0.39607494413E+02  0.11059548841E+03  0.90168984991E+02 0.  0.
         23    2    1    2    0    0 -0.51440179754E+02 -0.60882611999E+02 -0.59250219968E+02  0.12470177314E+03  0.75413255613E+02 0.  0.
        -11    1    3    3    0    0  0.14472116178E+02  0.58235046743E+02  0.14788839560E+02  0.61801881778E+02  0.00000000000E+00 0.  1.
         11    1    3    3    0    0  0.28028408794E+02 -0.31293109790E+02  0.24818654853E+02  0.48793606636E+02  0.00000000000E+00 0. -1.
        -11    1    4    4    0    0 -0.55624959566E+02 -0.91821033610E+01 -0.20630472971E+02  0.60033853482E+02  0.00000000000E+00 0.  1.
         11    1    4    4    0    0  0.41847798113E+01 -0.51700508638E+02 -0.38619746996E+02  0.64667919663E+02  0.00000000000E+00 0. -1.
         21    1    1    2  502  501  0.89396547822E+01  0.33940675047E+02  0.15339865851E+03  0.15736275062E+03  0.00000000000E+00 0. -1.
<scales pt_clust_5="13000.00000" pt_clust_6="13000.00000" pt_clust_7="13000.00000" pt_clust_8="13000.00000" pt_clust_9="35.09825"></scales>
<clustering>
<clus scale="   35.098">  1  9  2 -1</clus>
<clus scale="   75.413">  7  8 -1 -1</clus>
<clus scale="   90.169">  5  6 -1 -1</clus>
<clus scale="  103.053">  2  7  1 -1</clus>
<clus scale="  103.053">  2  5  1 -1</clus>
</clustering>
</event>
<event>
 9    1  0.1612788E-005  0.3920184E+03  0.7546771E-02  0.1046580E+00
         -1   -1    0    0    0  501 -0.00000000000E+00  0.00000000000E+00  0.89168958783E+02  0.89168958783E+02  0.00000000000E+00 0.  1.
          1   -1    0    0  502    0  0.00000000000E+00 -0.00000000000E+00 -0.19728778605E+04  0.19728778605E+04  0.00000000000E+00 0. -1.
         23    2    1    2    0    0 -0.24168619928E+03  0.29999150772E+03 -0.75692460716E+03  0.85412644189E+03  0.90498586637E+02 0.  0.
         23    2    1    2    0    0  0.25504372922E+03 -0.28050273681E+03 -0.11157052250E+04  0.11818247536E+04  0.90457227249E+02 0.  0.
        -13    1    4    4    0    0  0.22464445935E+03 -0.25652751872E+03 -0.89512839837E+03  0.95787595781E+03  0.00000000000E+00 0. -1.
         13    1    4    4    0    0  0.30399269864E+02 -0.23975218092E+02 -0.22057682665E+03  0.22394879581E+03  0.00000000000E+00 0.  1.
        -13    1    3    3    0    0 -0.81419854700E+02  0.69482323391E+02 -0.13919150062E+03  0.17558832492E+03  0.00000000000E+00 0. -1.
         13    1    3    3    0    0 -0.16026634458E+03  0.23050918433E+03 -0.61773310654E+03  0.67853811697E+03  0.00000000000E+00 0.  1.
         21    1    1    2  502  501 -0.13357529933E+02 -0.19488770905E+02 -0.11079069504E+02  0.26095623740E+02  0.00000000000E+00 0.  1.
<scales pt_clust_5="13000.00000" pt_clust_6="13000.00000" pt_clust_7="13000.00000" pt_clust_8="13000.00000" pt_clust_9="23.62701"></scales>
<clustering>
<clus scale="   23.627">  1  9  2 -1</clus>
<clus scale="   90.457">  5  6 -1 -1</clus>
<clus scale="   90.499">  7  8 -1 -1</clus>
<clus scale="  392.009">  2  5  1 -1</clus>
<clus scale="  392.009">  2  5  1 -1</clus>
</clustering>
</event>
<event>
 9    1  0.1612788E-005  0.3472303E+03  0.7546771E-02  0.1063814E+00
          1   -1    0    0  502    0  0.00000000000E+00  0.00000000000E+00  0.76801104314E+03  0.76801104314E+03  0.00000000000E+00 0. -1.
         -1   -1    0    0    0  501 -0.00000000000E+00 -0.00000000000E+00 -0.17118569886E+03  0.17118569886E+03  0.00000000000E+00 0.  1.
         23    2    1    2    0    0 -0.18430795055E+03 -0.29053585074E+03  0.24537814528E+03  0.43225158498E+03  0.90832248327E+02 0.  0.
         23    2    1    2    0    0  0.15683869384E+03  0.28335367965E+03  0.32217883837E+03  0.46616795041E+03  0.92874487564E+02 0.  0.
        -11    1    3    3    0    0 -0.14112979438E+03 -0.13870942982E+03  0.14211261751E+03  0.24362660125E+03  0.00000000000E+00 0.  1.
         11    1    3    3    0    0 -0.43178156166E+02 -0.15182642093E+03  0.10326552777E+03  0.18862498373E+03  0.00000000000E+00 0. -1.
        -13    1    4    4    0    0 -0.61210223631E+01  0.19176675815E+02  0.47880192482E+02  0.51939624972E+02  0.00000000000E+00 0.  1.
         13    1    4    4    0    0  0.16295971621E+03  0.26417700383E+03  0.27429864589E+03  0.41422832544E+03  0.00000000000E+00 0. -1.
         21    1    1    2  502  501  0.27469256701E+02  0.71821710979E+01  0.29268360621E+02  0.40777206609E+02  0.00000000000E+00 0. -1.
<scales pt_clust_5="13000.00000" pt_clust_6="13000.00000" pt_clust_7="13000.00000" pt_clust_8="13000.00000" pt_clust_9="28.39267"></scales>
<clustering>
<clus scale="   28.393">  1  9  2 -1</clus>
<clus scale="   90.832">  5  6 -1 -1</clus>
<clus scale="   92.874">  7  8 -1 -1</clus>
<clus scale="  346.690">  2  5  1 -1</clus>
<clus scale="   28.393">  1  5  2 -1</clus>
</clustering>
</event>
<event>
 9    1  0.1612788E-005  0.9475340E+02  0.7546771E-02  0.1292903E+00
         -1   -1    0    0    0  501 -0.00000000000E+00  0.00000000000E+00  0.12684897875E+03  0.12684897875E+03  0.00000000000E+00 0.  1.
          1   -1    0    0  502    0  0.00000000000E+00 -0.00000000000E+00 -0.12233163512E+03  0.12233163512E+03  0.00000000000E+00 0. -1.
         23    2    1    2    0    0 -0.13899497535E+02  0.31820401841E+02  0.44115577699E+02  0.10876344927E+03  0.93153473887E+02 0.  0.
         23    2    1    2    0    0 -0.11600785473E+01 -0.12322309244E+02 -0.58863630864E+02  0.10914222318E+03  0.91070921568E+02 0.  0.
        -11    1    4    4    0    0  0.41995116139E+02 -0.20999054792E+02 -0.22594699470E+02  0.52106338633E+02  0.00000000000E+00 0.  1.
         11    1    4    4    0    0 -0.43155194686E+02  0.86767455483E+01 -0.36268931395E+02  0.57035884548E+02  0.00000000000E+00 0. -1.
        -13    1    3    3    0    0 -0.43822516288E+02  0.15280281034E+02  0.55849486257E+02  0.72615873178E+02  0.00000000000E+00 0. -1.
         13    1    3    3    0    0  0.29923018753E+02  0.16540120807E+02 -0.11733908557E+02  0.36147576096E+02  0.00000000000E+00 0.  1.
         21    1    1    2  502  501  0.15059576082E+02 -0.19498092598E+02  0.19265396797E+02  0.31274941414E+02  0.00000000000E+00 0.  1.
<scales pt_clust_5="13000.00000" pt_clust_6="13000.00000" pt_clust_7="13000.00000" pt_clust_8="13000.00000" pt_clust_9="24.63669"></scales>
<clustering>
<clus scale="   24.637">  1  9  2 -1</clus>
<clus scale="   91.071">  5  6 -1 -1</clus>
<clus scale="   92.707">  2  5  1 -1</clus>
<clus scale="   93.153">  7  8 -1 -1</clus>
<clus scale="   92.707">  2  5  1 -1</clus>
</clustering>
</event>
<event>
 9    1  0.1612788E-005  0.1523907E+03  0.7546771E-02  0.1198494E+00
          1   -1    0    0  502    0  0.00000000000E+00  0.00000000000E+00  0.51390924566E+02  0.51390924566E+02  0.00000000000E+00 0. -1.
         -1   -1    0    0    0  501 -0.00000000000E+00 -0.00000000000E+00 -0.79816289012E+03  0.79816289012E+03  0.00000000000E+00 0.  1.
         23    2    1    2    0    0  0.68306576748E+02 -0.94036819725E+02 -0.56955261083E+03  0.58852848302E+03  0.92015688500E+02 0.  0.
         23    2    1    2    0    0 -0.41231943355E+02  0.11154976902E+03 -0.11776389071E+03  0.19338886689E+03  0.96889090001E+02 0.  0.
        -11    1    3    3    0    0  0.86907908010E+02 -0.62472602824E+02 -0.47965713574E+03  0.49145373988E+03  0.00000000000E+00 0.  1.
         11    1    3    3    0    0 -0.18601331263E+02 -0.31564216901E+02 -0.89895475095E+02  0.97074743141E+02  0.00000000000E+00 0. -1.
        -11    1    4    4    0    0  0.19835733825E+02 -0.61603344366E+01 -0.14905354394E+02  0.25565125588E+02  0.00000000000E+00 0.  1.
         11    1    4    4    0    0 -0.61067677180E+02  0.11771010346E+03 -0.10285853632E+03  0.16782374130E+03  0.00000000000E+00 0. -1.
         21    1    1    2  502  501 -0.27074633392E+02 -0.17512949294E+02 -0.59455464010E+02  0.67636464772E+02  0.00000000000E+00 0. -1.
<scales pt_clust_5="13000.00000" pt_clust_6="13000.00000" pt_clust_7="13000.00000" pt_clust_8="13000.00000" pt_clust_9="32.24499"></scales>
<clustering>
<clus scale="   32.245">  2  9  1 -1</clus>
<clus scale="   92.016">  5  6 -1 -1</clus>
<clus scale="   96.889">  7  8 -1 -1</clus>
<clus scale="  149.340">  2  5  1 -1</clus>
<clus scale="  152.391">  1  5  2 -1</clus>
</clustering>
</event>
<event>
 9    1  0.1612788E-005  0.9429752E+02  0.7546771E-02  0.1295578E+00
          1   -1    0    0  502    0  0.00000000000E+00  0.00000000000E+00  0.19988910554E+03  0.19988910554E+03  0.00000000000E+00 0. -1.
         -1   -1    0    0    0  501 -0.00000000000E+00 -0.00000000000E+00 -0.74429425814E+02  0.74429425814E+02  0.00000000000E+00 0.  1.
         23    2    1    2    0    0 -0.19690554705E+02  0.36644250376E+02  0.29392584937E+02  0.10519665414E+03  0.92042886537E+02 0.  0.
         23    2    1    2    0    0  0.82578051682E+01  0.12750693708E+02  0.58655188896E+02  0.10611220363E+03  0.87112553851E+02 0.  0.
        -13    1    3    3    0    0 -0.25593170956E+02  0.62461840073E+02  0.26414798007E+01  0.67553454985E+02  0.00000000000E+00 0. -1.
         13    1    3    3    0    0  0.59026162511E+01 -0.25817589697E+02  0.26751105136E+02  0.37643199152E+02  0.00000000000E+00 0.  1.
        -13    1    4    4    0    0  0.26019820435E+02 -0.22871784126E+02 -0.69442996546E+00  0.34650134163E+02  0.00000000000E+00 0.  1.
         13    1    4    4    0    0 -0.17762015267E+02  0.35622477834E+02  0.59349618861E+02  0.71462069466E+02  0.00000000000E+00 0. -1.
         21    1    1    2  502  501  0.11432749537E+02 -0.49394944084E+02  0.37411905891E+02  0.63009673586E+02  0.00000000000E+00 0.  1.
<scales pt_clust_5="13000.00000" pt_clust_6="13000.00000" pt_clust_7="13000.00000" pt_clust_8="13000.00000" pt_clust_9="50.70077"></scales>
<clustering>
<clus scale="   50.701">  1  9  2 -1</clus>
<clus scale="   87.113">  7  8 -1 -1</clus>
<clus scale="   89.491">  1  7  2 -1</clus>
<clus scale="   92.043">  5  6 -1 -1</clus>
<clus scale="   50.701">  1  5  2 -1</clus>
</clustering>
</event>
<event>
 9    1  0.1612788E-005  0.2339463E+03  0.7546771E-02  0.1124024E+00
          1   -1    0    0  502    0  0.00000000000E+00  0.00000000000E+00  0.12210138975E+04  0.12210138975E+04  0.00000000000E+00 0. -1.
         -1   -1    0    0    0  501 -0.00000000000E+00 -0.00000000000E+00 -0.89105962498E+02  0.89105962498E+02  0.00000000000E+00 0.  1.
         23    2    1    2    0    0  0.37466819996E+02 -0.19592018853E+03  0.14847751410E+03  0.26520494345E+03  0.92193312996E+02 0.  0.
         23    2    1    2    0    0 -0.49874470625E+02  0.21298614454E+03  0.99367376053E+03  0.10214602228E+04  0.90237929270E+02 0.  0.
        -11    1    4    4    0    0 -0.22008424039E+02  0.19754907900E+00  0.95771644708E+02  0.98268090876E+02  0.00000000000E+00 0. -1.
         11    1    4    4    0    0 -0.27866046586E+02  0.21278859546E+03  0.89790211582E+03  0.92319213196E+03  0.00000000000E+00 0.  1.
        -13    1    3    3    0    0  0.49578914077E+02 -0.13048504542E+03  0.14071885794E+03  0.19820749930E+03  0.00000000000E+00 0. -1.
         13    1    3    3    0    0 -0.12112094081E+02 -0.65435143109E+02  0.77586561634E+01  0.66997444147E+02  0.00000000000E+00 0.  1.
         21    1    1    2  502  501  0.12407650628E+02 -0.17065956015E+02 -0.10243339658E+02  0.23454693692E+02  0.00000000000E+00 0. -1.
<scales pt_clust_5="13000.00000" pt_clust_6="13000.00000" pt_clust_7="13000.00000" pt_clust_8="13000.00000" pt_clust_9="21.09968"></scales>
<clustering>
<clus scale="   21.100">  2  9  1 -1</clus>
<clus scale="   90.238">  5  6 -1 -1</clus>
<clus scale="   92.193">  7  8 -1 -1</clus>
<clus scale="  233.183">  1  5  2 -1</clus>
<clus scale="  233.183">  1  5  2 -1</clus>
</clustering>
</event>
<event>
 9    1  0.1612788E-005  0.2323944E+03  0.7546771E-02  0.1125070E+00
         -2   -1    0    0    0  501 -0.00000000000E+00  0.00000000000E+00  0.10617746046E+03  0.10617746046E+03  0.00000000000E+00 0.  1.
          2   -1    0    0  502    0  0.00000000000E+00 -0.00000000000E+00 -0.12404963083E+04  0.12404963083E+04  0.00000000000E+00 0. -1.
         23    2    1    2    0    0  0.17783972853E+03 -0.12139394229E+03 -0.10199370671E+03  0.25486419518E+03  0.90496317636E+02 0.  0.
         23    2    1    2    0    0 -0.15853501471E+03  0.14278732708E+03 -0.10369161183E+04  0.10626303693E+04  0.92014638554E+02 0.  0.
        -11    1    3    3    0    0  0.17272067836E+03 -0.80364581012E+02 -0.71455899600E+02  0.20346214439E+03  0.00000000000E+00 0.  1.
         11    1    3    3    0    0  0.51190501747E+01 -0.41029361278E+02 -0.30537807115E+02  0.51402050785E+02  0.00000000000E+00 0. -1.
        -13    1    4    4    0    0 -0.10355516784E+03  0.14045291834E+03 -0.71098009218E+03  0.73208154364E+03  0.00000000000E+00 0. -1.
         13    1    4    4    0    0 -0.54979846867E+02  0.23344087413E+01 -0.32593602614E+03  0.33054882568E+03  0.00000000000E+00 0.  1.
         21    1    1    2  502  501 -0.19304713824E+02 -0.21393384789E+02  0.45909772183E+01  0.29179204245E+02  0.00000000000E+00 0. -1.
<scales pt_clust_5="13000.00000" pt_clust_6="13000.00000" pt_clust_7="13000.00000" pt_clust_8="13000.00000" pt_clust_9="28.81577"></scales>
<clustering>
<clus scale="   28.816">  1  9  2 -1</clus>
<clus scale="   90.496">  5  6 -1 -1</clus>
<clus scale="   92.015">  7  8 -1 -1</clus>
<clus scale="  231.797">  1  5  2 -1</clus>
<clus scale="  232.394">  2  5  1 -1</clus>
</clustering>
</event>
<event>
 9    1  0.1612788E-005  0.2672086E+03  0.7546771E-02  0.1114896E+00
         -1   -1    0    0    0  501 -0.00000000000E+00  0.00000000000E+00  0.21009105676E+03  0.21009105676E+03  0.00000000000E+00 0.  1.
          1   -1    0    0  502    0  0.00000000000E+00 -0.00000000000E+00 -0.88280396997E+03  0.88280396997E+03  0.00000000000E+00 0. -1.
         23    2    1    2    0    0  0.14742337887E+02  0.17391401750E+03 -0.15197172663E+03  0.24854376518E+03  0.90637605364E+02 0.  0.
         23    2    1    2    0    0 -0.16752079882E+03  0.57815363016E+02  0.54070417251E+02  0.20603461300E+03  0.90115578530E+02 0.  0.
        -11    1    3    3    0    0 -0.34680513422E+02  0.11313283551E+03 -0.91082945339E+02  0.14932474481E+03  0.00000000000E+00 0.  1.
         11    1    3    3    0    0  0.49422851310E+02  0.60781181989E+02 -0.60888781289E+02  0.99219020367E+02  0.00000000000E+00 0. -1.
        -13    1    4    4    0    0 -0.93514925448E+01  0.26840797993E+02  0.32898482063E+02  0.43476303566E+02  0.00000000000E+00 0. -1.
         13    1    4    4    0    0 -0.15816930628E+03  0.30974565023E+02  0.21171935188E+02  0.16255830943E+03  0.00000000000E+00 0.  1.
         21    1    1    2  502  501  0.15277846093E+03 -0.23172938052E+03 -0.57481160383E+03  0.63831664855E+03  0.00000000000E+00 0. -1.
<scales pt_clust_5="13000.00000" pt_clust_6="13000.00000" pt_clust_7="13000.00000" pt_clust_8="13000.00000" pt_clust_9="251.55439"></scales>
<clustering>
<clus scale="   90.116">  7  8 -1 -1</clus>
<clus scale="   90.638">  5  6 -1 -1</clus>
<clus scale="  196.669">  1  5  2 -1</clus>
<clus scale="  251.554">  2  9  1 -1</clus>
<clus scale="  251.554">  2  5  1 -1</clus>
</clustering>
</event>
<event>
 9    1  0.1612788E-005  0.1106650E+03  0.7546771E-02  0.1259523E+00
          2   -1    0    0  502    0  0.00000000000E+00  0.00000000000E+00  0.22102436906E+03  0.22102436906E+03  0.00000000000E+00 0. -1.
         -2   -1    0    0    0  501 -0.00000000000E+00 -0.00000000000E+00 -0.31806621445E+03  0.31806621445E+03  0.00000000000E+00 0.  1.
         23    2    1    2    0    0 -0.61172787850E+02 -0.31388001558E+02 -0.22705994486E+03  0.25408258926E+03  0.90963877404E+02 0.  0.
         23    2    1    2    0    0  0.63058877651E+02  0.13724481777E+01  0.18898214608E+03  0.21881698601E+03  0.90489315184E+02 0.  0.
        -11    1    4    4    0    0  0.83019417030E+02 -0.14581184661E+02  0.13615504292E+03  0.16013441311E+03  0.00000000000E+00 0. -1.
         11    1    4    4    0    0 -0.19960539379E+02  0.15953632838E+02  0.52827103160E+02  0.58682572893E+02  0.00000000000E+00 0.  1.
        -11    1    3    3    0    0 -0.79839329155E+02 -0.40331698828E+02 -0.20586209018E+03  0.22445526188E+03  0.00000000000E+00 0.  1.
         11    1    3    3    0    0  0.18666541304E+02  0.89436972702E+01 -0.21197854676E+02  0.29627327385E+02  0.00000000000E+00 0. -1.
         21    1    1    2  502  501 -0.18860898004E+01  0.30015553380E+02 -0.58964046615E+02  0.66191008246E+02  0.00000000000E+00 0.  1.
<scales pt_clust_5="13000.00000" pt_clust_6="13000.00000" pt_clust_7="13000.00000" pt_clust_8="13000.00000" pt_clust_9="30.07475"></scales>
<clustering>
<clus scale="   30.075">  2  9  1 -1</clus>
<clus scale="   90.489">  5  6 -1 -1</clus>
<clus scale="   90.964">  7  8 -1 -1</clus>
<clus scale="  110.275">  1  5  2 -1</clus>
<clus scale="  110.275">  1  5  2 -1</clus>
</clustering>
</event>
<event>
 9    1  0.1612788E-005  0.9408810E+02  0.7546771E-02  0.1294837E+00
         -2   -1    0    0    0  501 -0.00000000000E+00  0.00000000000E+00  0.14161317119E+03  0.14161317119E+03  0.00000000000E+00 0.  1.
          2   -1    0    0  502    0  0.00000000000E+00 -0.00000000000E+00 -0.14815194044E+03  0.14815194044E+03  0.00000000000E+00 0. -1.
         23    2    1    2    0    0  0.19008080251E+02  0.12502514044E+02  0.84694171892E+02  0.12763500210E+03  0.92736028796E+02 0.  0.
         23    2    1    2    0    0 -0.14035731449E+02  0.89824591367E+01 -0.10248533321E+03  0.13737239048E+03  0.89945782629E+02 0.  0.
        -11    1    3    3    0    0  0.56779145080E+02  0.72887022248E+01  0.53839692648E+02  0.78585679360E+02  0.00000000000E+00 0. -1.
         11    1    3    3    0    0 -0.37771064828E+02  0.52138118188E+01  0.30854479243E+02  0.49049322741E+02  0.00000000000E+00 0.  1.
        -11    1    4    4    0    0  0.26736271346E+02 -0.23313519264E+02 -0.22648012183E+02  0.42086587434E+02  0.00000000000E+00 0. -1.
         11    1    4    4    0    0 -0.40772002795E+02  0.32295978401E+02 -0.79837321029E+02  0.95285803045E+02  0.00000000000E+00 0.  1.
         21    1    1    2  502  501 -0.49723488023E+01 -0.21484973180E+02  0.11252392073E+02  0.24757719049E+02  0.00000000000E+00 0. -1.
<scales pt_clust_5="13000.00000" pt_clust_6="13000.00000" pt_clust_7="13000.00000" pt_clust_8="13000.00000" pt_clust_9="22.05285"></scales>
<clustering>
<clus scale="   22.053">  1  9  2 -1</clus>
<clus scale="   89.946">  7  8 -1 -1</clus>
<clus scale="   91.339">  2  7  1 -1</clus>
<clus scale="   92.736">  5  6 -1 -1</clus>
<clus scale="   91.339">  2  5  1 -1</clus>
</clustering>
</event>
<event>
 9    1  0.1612788E-005  0.9733412E+02  0.7546771E-02  0.1286379E+00
          1   -1    0    0  502    0  0.00000000000E+00  0.00000000000E+00  0.54488549884E+02  0.54488549884E+02  0.00000000000E+00 0. -1.
         -1   -1    0    0    0  501 -0.00000000000E+00 -0.00000000000E+00 -0.31930837106E+03  0.31930837106E+03  0.00000000000E+00 0.  1.
         23    2    1    2    0    0  0.15444742838E+02 -0.19737805907E+02 -0.96813395896E+02  0.13406807865E+03  0.89293308958E+02 0.  0.
         23    2    1    2    0    0 -0.37194467294E+02  0.25380026693E+02 -0.37693144154E+02  0.10749255224E+03  0.90035001631E+02 0.  0.
        -11    1    4    4    0    0 -0.12977083871E+02  0.58335329443E+02 -0.23092223725E+02  0.64067668629E+02  0.00000000000E+00 0.  1.
         11    1    4    4    0    0 -0.24217383423E+02 -0.32955302750E+02 -0.14600920429E+02  0.43424883611E+02  0.00000000000E+00 0. -1.
        -13    1    3    3    0    0  0.33040587988E+02 -0.48702543746E+02 -0.61695034996E+02  0.85263682569E+02  0.00000000000E+00 0. -1.
         13    1    3    3    0    0 -0.17595845150E+02  0.28964737839E+02 -0.35118360899E+02  0.48804396082E+02  0.00000000000E+00 0.  1.
         21    1    1    2  502  501  0.21749724456E+02 -0.56422207862E+01 -0.13031328112E+03  0.13223629005E+03  0.00000000000E+00 0.  1.
<scales pt_clust_5="13000.00000" pt_clust_6="13000.00000" pt_clust_7="13000.00000" pt_clust_8="13000.00000" pt_clust_9="22.46965"></scales>
<clustering>
<clus scale="   22.470">  2  9  1 -1</clus>
<clus scale="   89.293">  7  8 -1 -1</clus>
<clus scale="   90.035">  5  6 -1 -1</clus>
<clus scale="   96.648">  2  7  1 -1</clus>
<clus scale="   97.334">  1  5  2 -1</clus>
</clustering>
</event>
<event>
 9    1  0.1612788E-005  0.1021149E+03  0.7546771E-02  0.1279572E+00
         -2   -1    0    0    0  501 -0.00000000000E+00  0.00000000000E+00  0.47633540046E+02  0.47633540046E+02  0.00000000000E+00 0.  1.
          2   -1    0    0  502    0  0.00000000000E+00 -0.00000000000E+00 -0.39061899798E+03  0.39061899798E+03  0.00000000000E+00 0. -1.
         23    2    1    2    0    0 -0.45911861743E+02  0.15064280368E+02 -0.13197851324E+03  0.16829510565E+03  0.92574742979E+02 0.  0.
         23    2    1    2    0    0  0.67418177300E+01  0.56106112757E+01 -0.20104426454E+03  0.22455921117E+03  0.99654964507E+02 0.  0.
        -11    1    4    4    0    0 -0.39565027961E+02  0.26750509792E+02 -0.11595903638E+03  0.12540924739E+03  0.00000000000E+00 0. -1.
         11    1    4    4    0    0  0.46306845690E+02 -0.21139898516E+02 -0.85085228158E+02  0.99149963781E+02  0.00000000000E+00 0.  1.
        -13    1    3    3    0    0 -0.42562886254E+02  0.51678765502E+02 -0.94306060615E+02  0.11565434345E+03  0.00000000000E+00 0.  1.
         13    1    3    3    0    0 -0.33489754883E+01 -0.36614485134E+02 -0.37672452628E+02  0.52640762204E+02  0.00000000000E+00 0. -1.
         21    1    1    2  502  501  0.39170044013E+02 -0.20674891644E+02 -0.99626801483E+01  0.45398221201E+02  0.00000000000E+00 0.  1.
<scales pt_clust_5="13000.00000" pt_clust_6="13000.00000" pt_clust_7="13000.00000" pt_clust_8="13000.00000" pt_clust_9="44.29157"></scales>
<clustering>
<clus scale="   44.292">  1  9  2 -1</clus>
<clus scale="   92.575">  7  8 -1 -1</clus>
<clus scale="   95.218">  1  7  2 -1</clus>
<clus scale="   99.655">  5  6 -1 -1</clus>
<clus scale="  102.115">  2  5  1 -1</clus>
</clustering>
</event>
<event>
 9    1  0.1612788E-005  0.1037522E+03  0.7546771E-02  0.1273911E+00
          1   -1    0    0  502    0  0.00000000000E+00  0.00000000000E+00  0.19691343360E+03  0.19691343360E+03  0.00000000000E+00 0. -1.
         -1   -1    0    0    0  501 -0.00000000000E+00 -0.00000000000E+00 -0.14868271363E+03  0.14868271363E+03  0.00000000000E+00 0.  1.
         23    2    1    2    0    0  0.42075229592E+02  0.27941455797E+02  0.48955043508E+02  0.11609962208E+03  0.92365989767E+02 0.  0.
         23    2    1    2    0    0 -0.19884167236E+02 -0.43851795506E+02  0.89403044587E+02  0.13532368063E+03  0.89449617569E+02 0.  0.
        -11    1    3    3    0    0 -0.65815739618E+01  0.49191642130E+02  0.11001871587E+02  0.50834790741E+02  0.00000000000E+00 0.  1.
         11    1    3    3    0    0  0.48656803554E+02 -0.21250186333E+02  0.37953171920E+02  0.65264831342E+02  0.00000000000E+00 0. -1.
        -11    1    4    4    0    0  0.26983574274E+02 -0.80504728173E+01  0.66211245200E+02  0.71950346658E+02  0.00000000000E+00 0. -1.
         11    1    4    4    0    0 -0.46867741510E+02 -0.35801322689E+02  0.23191799387E+02  0.63373333977E+02  0.00000000000E+00 0.  1.
         21    1    1    2  502  501 -0.22191062356E+02  0.15910339709E+02 -0.90127368121E+02  0.94172844507E+02  0.00000000000E+00 0.  1.
<scales pt_clust_5="13000.00000" pt_clust_6="13000.00000" pt_clust_7="13000.00000" pt_clust_8="13000.00000" pt_clust_9="27.30535"></scales>
<clustering>
<clus scale="   27.305">  2  9  1 -1</clus>
<clus scale="   89.450">  7  8 -1 -1</clus>
<clus scale="   92.366">  5  6 -1 -1</clus>
<clus scale="  101.165">  1  7  2 -1</clus>
<clus scale="  101.165">  1  5  2 -1</clus>
</clustering>
</event>
<event>
 9    1  0.1612788E-005  0.1115758E+03  0.7546771E-02  0.1258245E+00
         -1   -1    0    0    0  501 -0.00000000000E+00  0.00000000000E+00  0.18221575189E+03  0.18221575189E+03  0.00000000000E+00 0.  1.
          1   -1    0    0  502    0  0.00000000000E+00 -0.00000000000E+00 -0.10122370851E+03  0.10122370851E+03  0.00000000000E+00 0. -1.
         23    2    1    2    0    0 -0.59518084089E+02 -0.39535241206E+02  0.72276704967E+02  0.13825964385E+03  0.93735635724E+02 0.  0.
         23    2    1    2    0    0  0.56426821522E+02  0.96797493193E+01 -0.11206833538E+02  0.10915483584E+03  0.92257798234E+02 0.  0.
        -11    1    4    4    0    0 -0.23393254591E+02  0.58072230183E+01 -0.16270071414E+02  0.29080636571E+02  0.00000000000E+00 0.  1.
         11    1    4    4    0    0  0.79820076113E+02  0.38725263010E+01  0.50632378757E+01  0.80074199268E+02  0.00000000000E+00 0. -1.
        -13    1    3    3    0    0  0.24251578140E+02 -0.13248623386E+02  0.30085633495E+02  0.40851075955E+02  0.00000000000E+00 0. -1.
         13    1    3    3    0    0 -0.83769662229E+02 -0.26286617820E+02  0.42191071472E+02  0.97408567890E+02  0.00000000000E+00 0.  1.
         21    1    1    2  502  501  0.30912625665E+01  0.29855491887E+02  0.19922171959E+02  0.36024980716E+02  0.00000000000E+00 0.  1.
<scales pt_clust_5="13000.00000" pt_clust_6="13000.00000" pt_clust_7="13000.00000" pt_clust_8="13000.00000" pt_clust_9="30.01510"></scales>
<clustering>
<clus scale="   30.015">  1  9  2 -1</clus>
<clus scale="   92.258">  5  6 -1 -1</clus>
<clus scale="   93.736">  7  8 -1 -1</clus>
<clus scale="  110.337">  2  5  1 -1</clus>
<clus scale="  110.337">  2  5  1 -1</clus>
</clustering>
</event>
<event>
 9    1  0.1612788E-005  0.1192479E+03  0.7546771E-02  0.1245634E+00
          1   -1    0    0  502    0  0.00000000000E+00  0.00000000000E+00  0.10434623928E+03  0.10434623928E+03  0.00000000000E+00 0. -1.
         -1   -1    0    0    0  501 -0.00000000000E+00 -0.00000000000E+00 -0.29240196496E+03  0.29240196496E+03  0.00000000000E+00 0.  1.
         23    2    1    2    0    0  0.76637751551E+02 -0.37487018796E+02 -0.11666452349E+03  0.17112200457E+03  0.91616089569E+02 0.  0.
         23    2    1    2    0    0 -0.56524116032E+02  0.48096336271E+02  0.32463982361E+02  0.11931055965E+03  0.87594898472E+02 0.  0.
        -11    1    3    3    0    0  0.36263500201E+02 -0.36191446448E+02 -0.12010977071E+03  0.13058031729E+03  0.00000000000E+00 0.  1.
         11    1    3    3    0    0  0.40374251350E+02 -0.12955723475E+01  0.34452472201E+01  0.40541687289E+02  0.00000000000E+00 0. -1.
        -13    1    4    4    0    0  0.13309595532E+02  0.42196734658E+02  0.17906676585E+02  0.47732157036E+02  0.00000000000E+00 0.  1.
         13    1    4    4    0    0 -0.69833711563E+02  0.58996016137E+01  0.14557305776E+02  0.71578402618E+02  0.00000000000E+00 0. -1.
         21    1    1    2  502  501 -0.20113635519E+02 -0.10609317475E+02 -0.10385518455E+03  0.10631564001E+03  0.00000000000E+00 0.  1.
<scales pt_clust_5="13000.00000" pt_clust_6="13000.00000" pt_clust_7="13000.00000" pt_clust_8="13000.00000" pt_clust_9="22.74018"></scales>
<clustering>
<clus scale="   22.740">  2  9  1 -1</clus>
<clus scale="   87.595">  7  8 -1 -1</clus>
<clus scale="   91.616">  5  6 -1 -1</clus>
<clus scale="  116.187">  1  7  2 -1</clus>
<clus scale="  116.187">  1  5  2 -1</clus>
</clustering>
</event>
<event>
 9    1  0.1612788E-005  0.1079242E+03  0.7546771E-02  0.1266462E+00
          1   -1    0    0  502    0  0.00000000000E+00  0.00000000000E+00  0.44773703271E+02  0.44773703271E+02  0.00000000000E+00 0. -1.
         -1   -1    0    0    0  501 -0.00000000000E+00 -0.00000000000E+00 -0.40691541437E+03  0.40691541437E+03  0.00000000000E+00 0.  1.
         23    2    1    2    0    0  0.41849360402E+02 -0.20872755254E+02 -0.26242425852E+03  0.28292410700E+03  0.94828887918E+02 0.  0.
         23    2    1    2    0    0 -0.49371014581E+02  0.44037404001E+02 -0.82702135667E+02  0.13905478946E+03  0.90109939497E+02 0.  0.
        -13    1    4    4    0    0 -0.50849194499E+02  0.64402146801E+02 -0.85430189649E+02  0.11845503112E+03  0.00000000000E+00 0. -1.
         13    1    4    4    0    0  0.14781799180E+01 -0.20364742800E+02  0.27280539826E+01  0.20599758342E+02  0.00000000000E+00 0.  1.
        -13    1    3    3    0    0  0.58670661869E+02 -0.45356720708E+01 -0.24909497463E+03  0.25595141194E+03  0.00000000000E+00 0.  1.
         13    1    3    3    0    0 -0.16821301467E+02 -0.16337083183E+02 -0.13329283887E+02  0.26972695062E+02  0.00000000000E+00 0. -1.
         21    1    1    2  502  501  0.75216541793E+01 -0.23164648747E+02 -0.17015316917E+02  0.29710221187E+02  0.00000000000E+00 0. -1.
<scales pt_clust_5="13000.00000" pt_clust_6="13000.00000" pt_clust_7="13000.00000" pt_clust_8="13000.00000" pt_clust_9="24.35521"></scales>
<clustering>
<clus scale="   24.355">  1  9  2 -1</clus>
<clus scale="   90.110">  5  6 -1 -1</clus>
<clus scale="   94.829">  7  8 -1 -1</clus>
<clus scale="  103.802">  1  5  2 -1</clus>
<clus scale="   24.355">  1  5  2 -1</clus>
</clustering>
</event>
<event>
 9    1  0.1612788E-005  0.9599664E+02  0.7546771E-02  0.1291721E+00
         -1   -1    0    0    0  501 -0.00000000000E+00  0.00000000000E+00  0.10354457866E+03  0.10354457866E+03  0.00000000000E+00 0.  1.
          1   -1    0    0  502    0  0.00000000000E+00 -0.00000000000E+00 -0.19054653316E+03  0.19054653316E+03  0.00000000000E+00 0. -1.
         23    2    1    2    0    0  0.25797241250E+02  0.40622168932E+02  0.18942664708E+02  0.10457281889E+03  0.90889997472E+02 0.  0.
         23    2    1    2    0    0  0.51051549942E+01  0.53692742033E+01 -0.90572690888E+02  0.13201640499E+03  0.95760258665E+02 0.  0.
        -11    1    3    3    0    0 -0.26820914425E+02  0.23436298193E+02  0.31797400344E+02  0.47746164163E+02  0.00000000000E+00 0. -1.
         11    1    3    3    0    0  0.52618155675E+02  0.17185870739E+02 -0.12854735637E+02  0.56826654732E+02  0.00000000000E+00 0.  1.
        -13    1    4    4    0    0 -0.24346135012E+02  0.29048934058E+02 -0.85960606127E+02  0.93945732557E+02  0.00000000000E+00 0. -1.
         13    1    4    4    0    0  0.29451290006E+02 -0.23679659855E+02 -0.46120847611E+01  0.38070672436E+02  0.00000000000E+00 0.  1.
         21    1    1    2  502  501 -0.30902396244E+02 -0.45991443135E+02 -0.15371928317E+02  0.57501887930E+02  0.00000000000E+00 0. -1.
<scales pt_clust_5="13000.00000" pt_clust_6="13000.00000" pt_clust_7="13000.00000" pt_clust_8="13000.00000" pt_clust_9="55.40912"></scales>
<clustering>
<clus scale="   55.409">  1  9  2 -1</clus>
<clus scale="   90.890">  5  6 -1 -1</clus>
<clus scale="   91.139">  1  5  2 -1</clus>
<clus scale="   95.760">  7  8 -1 -1</clus>
<clus scale="   95.997">  2  5  1 -1</clus>
</clustering>
</event>
<event>
 9    1  0.1612788E-005  0.1038824E+03  0.7546771E-02  0.1274047E+00
         -3   -1    0    0    0  501 -0.00000000000E+00  0.00000000000E+00  0.20950739531E+03  0.20950739531E+03  0.00000000000E+00 0.  1.
          3   -1    0    0  502    0  0.00000000000E+00 -0.00000000000E+00 -0.10001949802E+03  0.10001949802E+03  0.00000000000E+00 0. -1.
         23    2    1    2    0    0 -0.11467417814E+01 -0.20694375971E+02  0.34866123310E+02  0.10277039505E+03  0.94427407731E+02 0.  0.
         23    2    1    2    0    0 -0.70260541856E+00  0.58719829741E+02 -0.15267538430E+02  0.10913762867E+03  0.90716107735E+02 0.  0.
        -11    1    3    3    0    0  0.36796125378E+02 -0.11844045775E+02  0.48022769986E+02  0.61647568487E+02  0.00000000000E+00 0.  1.
         11    1    3    3    0    0 -0.37942867160E+02 -0.88503301961E+01 -0.13156646676E+02  0.41122826565E+02  0.00000000000E+00 0. -1.
        -13    1    4    4    0    0 -0.87189903006E+01 -0.23304252356E+02  0.18976589556E+01  0.24954159558E+02  0.00000000000E+00 0.  1.
         13    1    4    4    0    0  0.80163848820E+01  0.82024082096E+02 -0.17165197386E+02  0.84183469111E+02  0.00000000000E+00 0. -1.
         21    1    1    2  502  501  0.18493472000E+01 -0.38025453770E+02  0.89889312409E+02  0.97618869615E+02  0.00000000000E+00 0.  1.
<scales pt_clust_5="13000.00000" pt_clust_6="13000.00000" pt_clust_7="13000.00000" pt_clust_8="13000.00000" pt_clust_9="38.07040"></scales>
<clustering>
<clus scale="   38.070">  1  9  2 -1</clus>
<clus scale="   90.716">  7  8 -1 -1</clus>
<clus scale="   94.427">  5  6 -1 -1</clus>
<clus scale="  100.521">  2  7  1 -1</clus>
<clus scale="  100.521">  2  5  1 -1</clus>
</clustering>
</event>
<event>
 9    1  0.1612788E-005  0.1107406E+03  0.7546771E-02  0.1260017E+00
          1   -1    0    0  502    0  0.00000000000E+00  0.00000000000E+00  0.26939759140E+03  0.26939759140E+03  0.00000000000E+00 0. -1.
         -1   -1    0    0    0  501 -0.00000000000E+00 -0.00000000000E+00 -0.97464822857E+02  0.97464822857E+02  0.00000000000E+00 0.  1.
         23    2    1    2    0    0 -0.19024626444E+02 -0.55637348803E+02  0.91589218234E+02  0.14324243675E+03  0.93125505611E+02 0.  0.
         23    2    1    2    0    0 -0.23877824616E+01  0.62567380491E+02  0.12909796730E+03  0.16992165564E+03  0.91031342342E+02 0.  0.
        -13    1    3    3    0    0 -0.55345292618E+02 -0.46982937226E+02  0.56345189341E+02  0.91898194581E+02  0.00000000000E+00 0.  1.
         13    1    3    3    0    0  0.36320666173E+02 -0.86544115764E+01  0.35244028892E+02  0.51344242165E+02  0.00000000000E+00 0. -1.
        -13    1    4    4    0    0  0.28955289658E+02  0.35061728000E+02  0.11845661814E+03  0.12688460880E+03  0.00000000000E+00 0. -1.
         13    1    4    4    0    0 -0.31343072120E+02  0.27505652492E+02  0.10641349161E+02  0.43037046842E+02  0.00000000000E+00 0.  1.
         21    1    1    2  502  501  0.21412408906E+02 -0.69300316886E+01 -0.48754416995E+02  0.53698321863E+02  0.00000000000E+00 0.  1.
<scales pt_clust_5="13000.00000" pt_clust_6="13000.00000" pt_clust_7="13000.00000" pt_clust_8="13000.00000" pt_clust_9="22.50592"></scales>
<clustering>
<clus scale="   22.506">  2  9  1 -1</clus>
<clus scale="   91.031">  7  8 -1 -1</clus>
<clus scale="   93.126">  5  6 -1 -1</clus>
<clus scale="  108.985">  1  7  2 -1</clus>
<clus scale="  108.985">  1  5  2 -1</clus>
</clustering>
</event>
<event>
 9    1  0.1612788E-005  0.9526744E+02  0.7546771E-02  0.1291210E+00
          2   -1    0    0  502    0  0.00000000000E+00  0.00000000000E+00  0.25606268466E+02  0.25606268466E+02  0.00000000000E+00 0. -1.
         -2   -1    0    0    0  501 -0.00000000000E+00 -0.00000000000E+00 -0.45144326178E+03  0.45144326178E+03  0.00000000000E+00 0.  1.
         23    2    1    2    0    0  0.26003486246E+02 -0.33070229832E+01 -0.22515708745E+03  0.24442656392E+03  0.91441311344E+02 0.  0.
         23    2    1    2    0    0 -0.19325858879E+02  0.23261644255E+02 -0.14891328647E+03  0.17674309070E+03  0.90268268553E+02 0.  0.
        -11    1    3    3    0    0 -0.30533894691E+02 -0.17704846511E+02 -0.64847613954E+02  0.73830842813E+02  0.00000000000E+00 0.  1.
         11    1    3    3    0    0  0.56537380937E+02  0.14397823528E+02 -0.16030947350E+03  0.17059572110E+03  0.00000000000E+00 0. -1.
        -13    1    4    4    0    0  0.39656557503E+01 -0.27511034341E+02 -0.14863068214E+02  0.31519743540E+02  0.00000000000E+00 0. -1.
         13    1    4    4    0    0 -0.23291514629E+02  0.50772678596E+02 -0.13405021826E+03  0.14522334716E+03  0.00000000000E+00 0.  1.
         21    1    1    2  502  501 -0.66776273667E+01 -0.19954621272E+02 -0.51766619394E+02  0.55879875634E+02  0.00000000000E+00 0. -1.
<scales pt_clust_5="13000.00000" pt_clust_6="13000.00000" pt_clust_7="13000.00000" pt_clust_8="13000.00000" pt_clust_9="21.04228"></scales>
<clustering>
<clus scale="   21.042">  2  9  1 -1</clus>
<clus scale="   90.268">  7  8 -1 -1</clus>
<clus scale="   91.441">  5  6 -1 -1</clus>
<clus scale="   94.142">  1  7  2 -1</clus>
<clus scale="   94.142">  1  5  2 -1</clus>
</clustering>
</event>
<event>
 9    1  0.1612788E-005  0.9954639E+02  0.7546771E-02  0.1282299E+00
          1   -1    0    0  502    0  0.00000000000E+00  0.00000000000E+00  0.20854051339E+03  0.20854051339E+03  0.00000000000E+00 0. -1.
         -1   -1    0    0    0  501 -0.00000000000E+00 -0.00000000000E+00 -0.17100381151E+03  0.17100381151E+03  0.00000000000E+00 0.  1.
         23    2    1    2    0    0  0.34051597940E+02 -0.23191859609E+02 -0.96641850065E+02  0.14184623730E+03  0.95306527472E+02 0.  0.
         23    2    1    2    0    0  0.53113052063E+01  0.20692315937E+02  0.16147230717E+03  0.18973315315E+03  0.97308691893E+02 0.  0.
        -11    1    3    3    0    0 -0.14582190898E+02 -0.27380536906E+02  0.27208545977E+01  0.31140602794E+02  0.00000000000E+00 0. -1.
         11    1    3    3    0    0  0.48633788837E+02  0.41886772971E+01 -0.99362704663E+02  0.11070563451E+03  0.00000000000E+00 0.  1.
        -11    1    4    4    0    0 -0.11575483936E+02 -0.32941964660E+02  0.27521761335E+02  0.44459107177E+02  0.00000000000E+00 0.  1.
         11    1    4    4    0    0  0.16886789142E+02  0.53634280597E+02  0.13395054584E+03  0.14527404597E+03  0.00000000000E+00 0. -1.
         21    1    1    2  502  501 -0.39362903146E+02  0.24995436717E+01 -0.27293755222E+02  0.47964934450E+02  0.00000000000E+00 0. -1.
<scales pt_clust_5="13000.00000" pt_clust_6="13000.00000" pt_clust_7="13000.00000" pt_clust_8="13000.00000" pt_clust_9="39.44218"></scales>
<clustering>
<clus scale="   39.442">  2  9  1 -1</clus>
<clus scale="   95.307">  5  6 -1 -1</clus>
<clus scale="   97.309">  7  8 -1 -1</clus>
<clus scale="   97.590">  2  5  1 -1</clus>
<clus scale="   99.546">  1  5  2 -1</clus>
</clustering>
</event>
<event>
 9    1  0.1612788E-005  0.1148882E+03  0.7546771E-02  0.1256615E+00
         -2   -1    0    0    0  501 -0.00000000000E+00  0.00000000000E+00  0.19498818089E+03  0.19498818089E+03  0.00000000000E+00 0.  1.
          2   -1    0    0  502    0  0.00000000000E+00 -0.00000000000E+00 -0.20382350628E+03  0.20382350628E+03  0.00000000000E+00 0. -1.
         23    2    1    2    0    0  0.70928342814E+02 -0.93568965680E+01  0.11468918040E+03  0.16014926565E+03  0.85882465385E+02 0.  0.
         23    2    1    2    0    0 -0.56821200652E+02 -0.12387234674E+02 -0.15832479958E+03  0.19527026610E+03  0.98395336454E+02 0.  0.
        -13    1    3    3    0    0  0.35260742698E+02  0.31036513273E+01  0.11705875152E+03  0.12229351551E+03  0.00000000000E+00 0.  1.
         13    1    3    3    0    0  0.35667600116E+02 -0.12460547895E+02 -0.23695711208E+01  0.37855750147E+02  0.00000000000E+00 0. -1.
        -13    1    4    4    0    0 -0.17261206477E+02  0.36253659982E+02 -0.23361015477E+02  0.46454430954E+02  0.00000000000E+00 0. -1.
         13    1    4    4    0    0 -0.39559994175E+02 -0.48640894656E+02 -0.13496378410E+03  0.14881583515E+03  0.00000000000E+00 0.  1.
         21    1    1    2  502  501 -0.14107142162E+02  0.21744131242E+02  0.34800293789E+02  0.43392155411E+02  0.00000000000E+00 0. -1.
<scales pt_clust_5="13000.00000" pt_clust_6="13000.00000" pt_clust_7="13000.00000" pt_clust_8="13000.00000" pt_clust_9="25.91947"></scales>
<clustering>
<clus scale="   25.919">  1  9  2 -1</clus>
<clus scale="   85.882">  5  6 -1 -1</clus>
<clus scale="   98.395">  7  8 -1 -1</clus>
<clus scale="  104.372">  1  5  2 -1</clus>
<clus scale="  114.888">  2  5  1 -1</clus>
</clustering>
</event>
<event>
 9    1  0.1612788E-005  0.9444225E+02  0.7546771E-02  0.1292526E+00
          2   -1    0    0  502    0  0.00000000000E+00  0.00000000000E+00  0.39910371438E+03  0.39910371438E+03  0.00000000000E+00 0. -1.
         -2   -1    0    0    0  501 -0.00000000000E+00 -0.00000000000E+00 -0.31160390552E+02  0.31160390552E+02  0.00000000000E+00 0.  1.
         23    2    1    2    0    0  0.63051213605E+00  0.86840106128E+01  0.99693470820E+02  0.13570315120E+03  0.91655591948E+02 0.  0.
         23    2    1    2    0    0  0.60377011364E+01 -0.28418107589E+02  0.24551313672E+03  0.26372496957E+03  0.91815666420E+02 0.  0.
        -13    1    4    4    0    0  0.14178426925E+02 -0.60452009381E+02  0.17876642474E+03  0.18924298624E+03  0.00000000000E+00 0. -1.
         13    1    4    4    0    0 -0.81407257887E+01  0.32033901792E+02  0.66746711979E+02  0.74481983327E+02  0.00000000000E+00 0.  1.
        -13    1    3    3    0    0 -0.32489846565E+01  0.49158147003E+02  0.39906402903E+02  0.63400317907E+02  0.00000000000E+00 0.  1.
         13    1    3    3    0    0  0.38794967925E+01 -0.40474136390E+02  0.59787067917E+02  0.72302833292E+02  0.00000000000E+00 0. -1.
         21    1    1    2  502  501 -0.66682132724E+01  0.19734096976E+02  0.22736716294E+02  0.30835984167E+02  0.00000000000E+00 0.  1.
<scales pt_clust_5="13000.00000" pt_clust_6="13000.00000" pt_clust_7="13000.00000" pt_clust_8="13000.00000" pt_clust_9="20.83026"></scales>
<clustering>
<clus scale="   20.830">  2  9  1 -1</clus>
<clus scale="   91.656">  7  8 -1 -1</clus>
<clus scale="   91.816">  5  6 -1 -1</clus>
<clus scale="   94.287">  2  7  1 -1</clus>
<clus scale="   94.442">  1  5  2 -1</clus>
</clustering>
</event>
<event>
 9    1  0.1612788E-005  0.1483065E+03  0.7546771E-02  0.1203756E+00
          1   -1    0    0  502    0  0.00000000000E+00  0.00000000000E+00  0.74041257417E+03  0.74041257417E+03  0.00000000000E+00 0. -1.
         -1   -1    0    0    0  501 -0.00000000000E+00 -0.00000000000E+00 -0.11239823709E+03  0.11239823709E+03  0.00000000000E+00 0.  1.
         23    2    1    2    0    0 -0.53363578621E+02  0.10089608171E+03 -0.50197495525E+02  0.15405341141E+03  0.90470847136E+02 0.  0.
         23    2    1    2    0    0  0.33111127363E+02 -0.90289708148E+02  0.63923765696E+03  0.65357285261E+03  0.96354104465E+02 0.  0.
        -11    1    4    4    0    0  0.21296319106E+02  0.12636190120E+02  0.56368466602E+02  0.61567934311E+02  0.00000000000E+00 0.  1.
         11    1    4    4    0    0  0.11814808256E+02 -0.10292589827E+03  0.58286919036E+03  0.59200491830E+03  0.00000000000E+00 0. -1.
        -13    1    3    3    0    0 -0.25058190336E+02  0.10717158059E+03 -0.19404799991E+02  0.11175959401E+03  0.00000000000E+00 0.  1.
         13    1    3    3    0    0 -0.28305388284E+02 -0.62754988820E+01 -0.30792695534E+02  0.42293817401E+02  0.00000000000E+00 0. -1.
         21    1    1    2  502  501  0.20252451258E+02 -0.10606373563E+02  0.38974175645E+02  0.45184547241E+02  0.00000000000E+00 0.  1.
<scales pt_clust_5="13000.00000" pt_clust_6="13000.00000" pt_clust_7="13000.00000" pt_clust_8="13000.00000" pt_clust_9="22.86169"></scales>
<clustering>
<clus scale="   22.862">  1  9  2 -1</clus>
<clus scale="   90.471">  7  8 -1 -1</clus>
<clus scale="   96.354">  5  6 -1 -1</clus>
<clus scale="  144.553">  2  7  1 -1</clus>
<clus scale="   22.862">  1  5  2 -1</clus>
</clustering>
</event>
<event>
 9    1  0.1612788E-005  0.1007174E+03  0.7546771E-02  0.1281108E+00
          3   -1    0    0  502    0  0.00000000000E+00  0.00000000000E+00  0.13763747895E+03  0.13763747895E+03  0.00000000000E+00 0. -1.
         -3   -1    0    0    0  501 -0.00000000000E+00 -0.00000000000E+00 -0.11102068516E+03  0.11102068516E+03  0.00000000000E+00 0.  1.
         23    2    1    2    0    0  0.73434584216E+01  0.37775247240E+00 -0.47311385595E+01  0.97756471856E+02  0.97364649844E+02 0.  0.
         23    2    1    2    0    0 -0.36017659206E+02  0.60146755367E+01  0.54311643199E+02  0.11361355819E+03  0.92870005497E+02 0.  0.
        -11    1    4    4    0    0  0.18762528094E+02 -0.16171842584E+02 -0.95977540926E+01  0.26564597431E+02  0.00000000000E+00 0.  1.
         11    1    4    4    0    0 -0.54780187300E+02  0.22186518121E+02  0.63909397292E+02  0.87048960758E+02  0.00000000000E+00 0. -1.
        -13    1    3    3    0    0  0.20924393843E+02  0.44579627789E+02  0.77700150049E+01  0.49855256540E+02  0.00000000000E+00 0. -1.
         13    1    3    3    0    0 -0.13580935421E+02 -0.44201875316E+02 -0.12501153564E+02  0.47901215317E+02  0.00000000000E+00 0.  1.
         21    1    1    2  502  501  0.28674200784E+02 -0.63924280091E+01 -0.22963710849E+02  0.37288134070E+02  0.00000000000E+00 0.  1.
<scales pt_clust_5="13000.00000" pt_clust_6="13000.00000" pt_clust_7="13000.00000" pt_clust_8="13000.00000" pt_clust_9="29.37810"></scales>
<clustering>
<clus scale="   29.378">  2  9  1 -1</clus>
<clus scale="   92.870">  5  6 -1 -1</clus>
<clus scale="   96.379">  1  5  2 -1</clus>
<clus scale="   97.365">  7  8 -1 -1</clus>
<clus scale="   96.379">  1  5  2 -1</clus>
</clustering>
</event>
<event>
 9    1  0.1612788E-005  0.1004682E+03  0.7546771E-02  0.1281639E+00
         -1   -1    0    0    0  501 -0.00000000000E+00  0.00000000000E+00  0.81641150758E+02  0.81641150758E+02  0.00000000000E+00 0.  1.
          1   -1    0    0  502    0  0.00000000000E+00 -0.00000000000E+00 -0.19309901687E+03  0.19309901687E+03  0.00000000000E+00 0. -1.
         23    2    1    2    0    0  0.19986940940E+02 -0.48060321851E+02 -0.13962453795E+02  0.10379670384E+03  0.88710389851E+02 0.  0.
         23    2    1    2    0    0 -0.18773219577E+01  0.31217452474E+02 -0.10608741269E+03  0.14476211511E+03  0.93399556551E+02 0.  0.
        -11    1    4    4    0    0 -0.46479163570E+02  0.25915565067E+02 -0.63697115901E+02  0.83001516450E+02  0.00000000000E+00 0.  1.
         11    1    4    4    0    0  0.44601841612E+02  0.53018874072E+01 -0.42390296785E+02  0.61760598660E+02  0.00000000000E+00 0. -1.
        -11    1    3    3    0    0  0.47658707087E+01  0.25601917701E+02 -0.11686845304E+02  0.28543897189E+02  0.00000000000E+00 0.  1.
         11    1    3    3    0    0  0.15221070231E+02 -0.73662239552E+02 -0.22756084911E+01  0.75252806650E+02  0.00000000000E+00 0. -1.
         21    1    1    2  502  501 -0.18109618982E+02  0.16842869377E+02  0.85920003664E+01  0.26181348682E+02  0.00000000000E+00 0.  1.
<scales pt_clust_5="13000.00000" pt_clust_6="13000.00000" pt_clust_7="13000.00000" pt_clust_8="13000.00000" pt_clust_9="24.73137"></scales>
<clustering>
<clus scale="   24.731">  1  9  2 -1</clus>
<clus scale="   88.710">  7  8 -1 -1</clus>
<clus scale="   93.400">  5  6 -1 -1</clus>
<clus scale="   96.125">  1  7  2 -1</clus>
<clus scale="  100.468">  2  5  1 -1</clus>
</clustering>
</event>
<event>
 9    1  0.1612788E-005  0.1088440E+03  0.7546771E-02  0.1262940E+00
         -1   -1    0    0    0  501 -0.00000000000E+00  0.00000000000E+00  0.17398275504E+03  0.17398275504E+03  0.00000000000E+00 0.  1.
          1   -1    0    0  502    0  0.00000000000E+00 -0.00000000000E+00 -0.96765760809E+02  0.96765760809E+02  0.00000000000E+00 0. -1.
         23    2    1    2    0    0  0.11355511220E+02 -0.52481880083E+02  0.23995911485E+02  0.10857082113E+03  0.91260747641E+02 0.  0.
         23    2    1    2    0    0 -0.38958904672E+02  0.52803386929E+02  0.13273093376E+02  0.11361955893E+03  0.91799974072E+02 0.  0.
        -13    1    3    3    0    0  0.47971629478E+02 -0.46994332908E+02  0.24661678837E+02  0.71539799855E+02  0.00000000000E+00 0.  1.
         13    1    3    3    0    0 -0.36616118257E+02 -0.54875471755E+01 -0.66576735244E+00  0.37031021272E+02  0.00000000000E+00 0. -1.
        -13    1    4    4    0    0 -0.14004425399E+02  0.60845258150E+02  0.41596863777E+02  0.75023785870E+02  0.00000000000E+00 0.  1.
         13    1    4    4    0    0 -0.24954479274E+02 -0.80418712214E+01 -0.28323770401E+02  0.38595773062E+02  0.00000000000E+00 0. -1.
         21    1    1    2  502  501  0.27603393452E+02 -0.32150684546E+00  0.39947989369E+02  0.48558135789E+02  0.00000000000E+00 0.  1.
<scales pt_clust_5="13000.00000" pt_clust_6="13000.00000" pt_clust_7="13000.00000" pt_clust_8="13000.00000" pt_clust_9="27.60527"></scales>
<clustering>
<clus scale="   27.605">  1  9  2 -1</clus>
<clus scale="   91.261">  5  6 -1 -1</clus>
<clus scale="   91.800">  7  8 -1 -1</clus>
<clus scale="  108.390">  1  5  2 -1</clus>
<clus scale="  108.844">  2  5  1 -1</clus>
</clustering>
</event>
<event>
 9    1  0.1612788E-005  0.1367436E+03  0.7546771E-02  0.1218354E+00
          2   -1    0    0  502    0  0.00000000000E+00  0.00000000000E+00  0.89725912891E+02  0.89725912891E+02  0.00000000000E+00 0. -1.
         -2   -1    0    0    0  501 -0.00000000000E+00 -0.00000000000E+00 -0.37935453627E+03  0.37935453627E+03  0.00000000000E+00 0.  1.
         23    2    1    2    0    0  0.35335110630E+02  0.99063971105E+02 -0.82636254452E+02  0.16172374348E+03  0.90904225650E+02 0.  0.
         23    2    1    2    0    0 -0.59598642534E+02 -0.82350046966E+02 -0.43999790821E+02  0.14172260666E+03  0.88406941014E+02 0.  0.
        -13    1    3    3    0    0  0.65338390200E+02  0.78463525398E+02 -0.66913672770E+02  0.12207812931E+03  0.00000000000E+00 0. -1.
         13    1    3    3    0    0 -0.30003279570E+02  0.20600445707E+02 -0.15722581682E+02  0.39645614172E+02  0.00000000000E+00 0.  1.
        -13    1    4    4    0    0 -0.17233877459E+02 -0.89073223246E+02 -0.38192590434E+02  0.98436373337E+02  0.00000000000E+00 0.  1.
         13    1    4    4    0    0 -0.42364765074E+02  0.67231762795E+01 -0.58072003862E+01  0.43286233324E+02  0.00000000000E+00 0. -1.
         21    1    1    2  502  501  0.24263531904E+02 -0.16713924139E+02 -0.16299257810E+03  0.16563409902E+03  0.00000000000E+00 0.  1.
<scales pt_clust_5="13000.00000" pt_clust_6="13000.00000" pt_clust_7="13000.00000" pt_clust_8="13000.00000" pt_clust_9="29.46310"></scales>
<clustering>
<clus scale="   29.463">  2  9  1 -1</clus>
<clus scale="   88.407">  7  8 -1 -1</clus>
<clus scale="   90.904">  5  6 -1 -1</clus>
<clus scale="  135.096">  1  7  2 -1</clus>
<clus scale="  135.096">  1  5  2 -1</clus>
</clustering>
</event>
<event>
 9    1  0.1612788E-005  0.2155087E+03  0.7546771E-02  0.1138439E+00
          2   -1    0    0  502    0  0.00000000000E+00  0.00000000000E+00  0.27351721587E+03  0.27351721587E+03  0.00000000000E+00 0. -1.
         -2   -1    0    0    0  501 -0.00000000000E+00 -0.00000000000E+00 -0.35324635379E+03  0.35324635379E+03  0.00000000000E+00 0.  1.
         23    2    1    2    0    0 -0.10437382107E+03  0.18905691173E+03 -0.20533961607E+03  0.31112377593E+03  0.89427264435E+02 0.  0.
         23    2    1    2    0    0  0.78011727843E+02 -0.16689781708E+03  0.16169802730E+03  0.26575696463E+03  0.10266353389E+03 0.  0.
        -11    1    3    3    0    0 -0.39590673651E+02  0.68251953321E+01 -0.31072398718E+02  0.50788765426E+02  0.00000000000E+00 0. -1.
         11    1    3    3    0    0 -0.64783147417E+02  0.18223171640E+03 -0.17426721735E+03  0.26033501051E+03  0.00000000000E+00 0.  1.
        -13    1    4    4    0    0  0.45239779405E+02 -0.37834367424E+02  0.10623874244E+03  0.12151027691E+03  0.00000000000E+00 0. -1.
         13    1    4    4    0    0  0.32771948438E+02 -0.12906344966E+03  0.55459284854E+02  0.14424668772E+03  0.00000000000E+00 0.  1.
         21    1    1    2  502  501  0.26362093225E+02 -0.22159094649E+02 -0.36087549153E+02  0.49882829097E+02  0.00000000000E+00 0.  1.
<scales pt_clust_5="13000.00000" pt_clust_6="13000.00000" pt_clust_7="13000.00000" pt_clust_8="13000.00000" pt_clust_9="34.43814"></scales>
<clustering>
<clus scale="   34.438">  2  9  1 -1</clus>
<clus scale="   89.427">  5  6 -1 -1</clus>
<clus scale="  102.664">  7  8 -1 -1</clus>
<clus scale="  209.527">  2  5  1 -1</clus>
<clus scale="  215.509">  1  5  2 -1</clus>
</clustering>
</event>
<event>
 9    1  0.1612788E-005  0.9804962E+02  0.7546771E-02  0.1284474E+00
          1   -1    0    0  502    0  0.00000000000E+00  0.00000000000E+00  0.70030510330E+02  0.70030510330E+02  0.00000000000E+00 0. -1.
         -1   -1    0    0    0  501 -0.00000000000E+00 -0.00000000000E+00 -0.34145296079E+03  0.34145296079E+03  0.00000000000E+00 0.  1.
         23    2    1    2    0    0 -0.17077291628E+02 -0.74771825300E+01 -0.12009275751E+03  0.15114003188E+03  0.89852638698E+02 0.  0.
         23    2    1    2    0    0  0.43767095400E+02  0.15468482514E+02  0.52437362123E+01  0.10131059603E+03  0.89897205228E+02 0.  0.
        -11    1    4    4    0    0 -0.16447602346E+02 -0.16021355483E+02  0.21484596413E+02  0.31445116274E+02  0.00000000000E+00 0.  1.
         11    1    4    4    0    0  0.60214697746E+02  0.31489837997E+02 -0.16240860201E+02  0.69865479758E+02  0.00000000000E+00 0. -1.
        -13    1    3    3    0    0  0.69044914692E+00 -0.33682761868E+02 -0.11403131096E+03  0.11890393200E+03  0.00000000000E+00 0.  1.
         13    1    3    3    0    0 -0.17767740775E+02  0.26205579338E+02 -0.60614465537E+01  0.32236099873E+02  0.00000000000E+00 0. -1.
         21    1    1    2  502  501 -0.26689803771E+02 -0.79912999837E+01 -0.15657342916E+03  0.15903284321E+03  0.00000000000E+00 0.  1.
<scales pt_clust_5="13000.00000" pt_clust_6="13000.00000" pt_clust_7="13000.00000" pt_clust_8="13000.00000" pt_clust_9="27.86048"></scales>
<clustering>
<clus scale="   27.860">  2  9  1 -1</clus>
<clus scale="   89.853">  7  8 -1 -1</clus>
<clus scale="   89.897">  5  6 -1 -1</clus>
<clus scale="   98.009">  2  7  1 -1</clus>
<clus scale="   98.050">  1  5  2 -1</clus>
</clustering>
</event>
<event>
 9    1  0.1612788E-005  0.1015325E+03  0.7546771E-02  0.1277138E+00
          1   -1    0    0  502    0  0.00000000000E+00  0.00000000000E+00  0.26738922573E+03  0.26738922573E+03  0.00000000000E+00 0. -1.
         -1   -1    0    0    0  501 -0.00000000000E+00 -0.00000000000E+00 -0.39199814861E+03  0.39199814861E+03  0.00000000000E+00 0.  1.
         23    2    1    2    0    0  0.72618818363E+02  0.14561324624E+02 -0.63385679328E+02  0.13293532037E+03  0.90379920909E+02 0.  0.
         23    2    1    2    0    0 -0.43141470986E+02  0.39678163091E+01  0.22068357474E+03  0.24240329535E+03  0.90449916260E+02 0.  0.
        -11    1    4    4    0    0 -0.14517720869E+02 -0.31792107185E+02  0.29276576647E+02  0.45591887860E+02  0.00000000000E+00 0.  1.
         11    1    4    4    0    0 -0.28623750116E+02  0.35759923494E+02  0.19140699809E+03  0.19681140749E+03  0.00000000000E+00 0. -1.
        -11    1    3    3    0    0  0.43911625928E+02 -0.35595568370E+02 -0.17594558614E+02  0.59201721867E+02  0.00000000000E+00 0.  1.
         11    1    3    3    0    0  0.28707192435E+02  0.50156892994E+02 -0.45791120713E+02  0.73733598505E+02  0.00000000000E+00 0. -1.
         21    1    1    2  502  501 -0.29477347377E+02 -0.18529140933E+02 -0.28190681829E+03  0.28404875862E+03  0.00000000000E+00 0.  1.
<scales pt_clust_5="13000.00000" pt_clust_6="13000.00000" pt_clust_7="13000.00000" pt_clust_8="13000.00000" pt_clust_9="34.81728"></scales>
<clustering>
<clus scale="   34.817">  2  9  1 -1</clus>
<clus scale="   90.380">  7  8 -1 -1</clus>
<clus scale="   90.450">  5  6 -1 -1</clus>
<clus scale="  101.470">  2  7  1 -1</clus>
<clus scale="  101.533">  1  5  2 -1</clus>
</clustering>
</event>
<event>
 9    1  0.1612788E-005  0.1009595E+03  0.7546771E-02  0.1279849E+00
         -2   -1    0    0    0  501 -0.00000000000E+00  0.00000000000E+00  0.44899079979E+02  0.44899079979E+02  0.00000000000E+00 0.  1.
          2   -1    0    0  502    0  0.00000000000E+00 -0.00000000000E+00 -0.35246095489E+03  0.35246095489E+03  0.00000000000E+00 0. -1.
         23    2    1    2    0    0 -0.30038785649E+02  0.47070383780E+02 -0.10435501875E+03  0.14946916328E+03  0.91285876023E+02 0.  0.
         23    2    1    2    0    0  0.97724057567E+01 -0.23341793259E+02 -0.19063265061E+03  0.21424740554E+03  0.94450008352E+02 0.  0.
        -11    1    4    4    0    0  0.21694867147E+02  0.28190270600E+02 -0.35128001835E+02  0.49993350857E+02  0.00000000000E+00 0.  1.
         11    1    4    4    0    0 -0.11922461390E+02 -0.51532063859E+02 -0.15550464877E+03  0.16425405468E+03  0.00000000000E+00 0. -1.
        -13    1    3    3    0    0  0.30022294105E+02  0.16062000129E+01 -0.42166369378E+02  0.51787264152E+02  0.00000000000E+00 0. -1.
         13    1    3    3    0    0 -0.60061079754E+02  0.45464183767E+02 -0.62188649374E+02  0.97681899131E+02  0.00000000000E+00 0.  1.
         21    1    1    2  502  501  0.20266379893E+02 -0.23728590521E+02 -0.12574205552E+02  0.33643466042E+02  0.00000000000E+00 0.  1.
<scales pt_clust_5="13000.00000" pt_clust_6="13000.00000" pt_clust_7="13000.00000" pt_clust_8="13000.00000" pt_clust_9="31.20532"></scales>
<clustering>
<clus scale="   31.205">  1  9  2 -1</clus>
<clus scale="   91.286">  7  8 -1 -1</clus>
<clus scale="   94.450">  5  6 -1 -1</clus>
<clus scale="   98.006">  1  7  2 -1</clus>
<clus scale="  100.959">  2  5  1 -1</clus>
</clustering>
</event>
<event>
 9    1  0.1612788E-005  0.1092621E+03  0.7546771E-02  0.1263173E+00
         -1   -1    0    0    0  501 -0.00000000000E+00  0.00000000000E+00  0.20852532186E+03  0.20852532186E+03  0.00000000000E+00 0.  1.
          1   -1    0    0  502    0  0.00000000000E+00 -0.00000000000E+00 -0.23536392048E+03  0.23536392048E+03  0.00000000000E+00 0. -1.
         23    2    1    2    0    0 -0.15235474084E+02  0.43021528760E+02 -0.41085460067E+02  0.11024524573E+03  0.91558874884E+02 0.  0.
         23    2    1    2    0    0 -0.29927422658E+02 -0.67701143016E+02 -0.13395406283E+03  0.17676096833E+03  0.88440112980E+02 0.  0.
        -11    1    4    4    0    0 -0.26822478367E+02  0.55337948888E+01 -0.41636051836E+01  0.27702054793E+02  0.00000000000E+00 0.  1.
         11    1    4    4    0    0 -0.31049442905E+01 -0.73234937905E+02 -0.12979045765E+03  0.14905891354E+03  0.00000000000E+00 0. -1.
        -13    1    3    3    0    0  0.30094408098E+02  0.14536475766E+02 -0.45579964160E+02  0.56520046526E+02  0.00000000000E+00 0.  1.
         13    1    3    3    0    0 -0.45329882181E+02  0.28485052994E+02  0.44945040928E+01  0.53725199206E+02  0.00000000000E+00 0. -1.
         21    1    1    2  502  501  0.45162896741E+02  0.24679614255E+02  0.14820092428E+03  0.15688302827E+03  0.00000000000E+00 0.  1.
<scales pt_clust_5="13000.00000" pt_clust_6="13000.00000" pt_clust_7="13000.00000" pt_clust_8="13000.00000" pt_clust_9="51.46621"></scales>
<clustering>
<clus scale="   51.466">  1  9  2 -1</clus>
<clus scale="   88.440">  5  6 -1 -1</clus>
<clus scale="   91.559">  7  8 -1 -1</clus>
<clus scale="  106.662">  2  5  1 -1</clus>
<clus scale="  106.662">  2  5  1 -1</clus>
</clustering>
</event>
<event>
 9    1  0.1612788E-005  0.1394172E+03  0.7546771E-02  0.1216750E+00
          2   -1    0    0  502    0  0.00000000000E+00  0.00000000000E+00  0.62071813335E+03  0.62071813335E+03  0.00000000000E+00 0. -1.
         -2   -1    0    0    0  501 -0.00000000000E+00 -0.00000000000E+00 -0.98990848165E+02  0.98990848165E+02  0.00000000000E+00 0.  1.
         23    2    1    2    0    0 -0.71870145756E+02 -0.71487277221E+01  0.16813160410E+01  0.11586819661E+03  0.90588023504E+02 0.  0.
         23    2    1    2    0    0  0.77681779360E+02  0.83650309242E+02  0.50754393979E+03  0.52610682966E+03  0.78458347671E+02 0.  0.
        -11    1    3    3    0    0 -0.25068907095E+02 -0.24465158753E+02  0.39839554653E+02  0.53048885103E+02  0.00000000000E+00 0. -1.
         11    1    3    3    0    0 -0.46801238662E+02  0.17316431031E+02 -0.38158238612E+02  0.62819311504E+02  0.00000000000E+00 0.  1.
        -13    1    4    4    0    0  0.57433538048E+01  0.63284817594E+02  0.21886102732E+03  0.22789932762E+03  0.00000000000E+00 0.  1.
         13    1    4    4    0    0  0.71938425555E+02  0.20365491649E+02  0.28868291247E+03  0.29820750204E+03  0.00000000000E+00 0. -1.
         21    1    1    2  502  501 -0.58116336039E+01 -0.76501581520E+02  0.12502029356E+02  0.77733955247E+02  0.00000000000E+00 0. -1.
<scales pt_clust_5="13000.00000" pt_clust_6="13000.00000" pt_clust_7="13000.00000" pt_clust_8="13000.00000" pt_clust_9="76.72201"></scales>
<clustering>
<clus scale="   76.722">  2  9  1 -1</clus>
<clus scale="   78.458">  7  8 -1 -1</clus>
<clus scale="   90.588">  5  6 -1 -1</clus>
<clus scale="  131.859">  1  7  2 -1</clus>
<clus scale="  131.859">  1  5  2 -1</clus>
</clustering>
</event>
<event>
 9    1  0.1612788E-005  0.1220456E+03  0.7546771E-02  0.1242664E+00
         -1   -1    0    0    0  501 -0.00000000000E+00  0.00000000000E+00  0.15800684422E+03  0.15800684422E+03  0.00000000000E+00 0.  1.
          1   -1    0    0  502    0  0.00000000000E+00 -0.00000000000E+00 -0.15997068190E+03  0.15997068190E+03  0.00000000000E+00 0. -1.
         23    2    1    2    0    0  0.42263727674E+02  0.43554010960E+02  0.97652659963E+01  0.11265977231E+03  0.94412336748E+02 0.  0.
         23    2    1    2    0    0 -0.43674689006E+02 -0.76313743306E+02 -0.68101719147E+02  0.14010224453E+03  0.85202869052E+02 0.  0.
        -13    1    4    4    0    0  0.24254409375E+02 -0.36028960865E+02 -0.22721381309E+02  0.49016564178E+02  0.00000000000E+00 0.  1.
         13    1    4    4    0    0 -0.67929098381E+02 -0.40284782441E+02 -0.45380337838E+02  0.91085680353E+02  0.00000000000E+00 0. -1.
        -13    1    3    3    0    0  0.67035605231E+02  0.18722540089E+02  0.25621730397E+02  0.74167236329E+02  0.00000000000E+00 0.  1.
         13    1    3    3    0    0 -0.24771877557E+02  0.24831470870E+02 -0.15856464401E+02  0.38492535985E+02  0.00000000000E+00 0. -1.
         21    1    1    2  502  501  0.14109613324E+01  0.32759732347E+02  0.56372615466E+02  0.65215509273E+02  0.00000000000E+00 0.  1.
<scales pt_clust_5="13000.00000" pt_clust_6="13000.00000" pt_clust_7="13000.00000" pt_clust_8="13000.00000" pt_clust_9="32.79010"></scales>
<clustering>
<clus scale="   32.790">  1  9  2 -1</clus>
<clus scale="   85.203">  5  6 -1 -1</clus>
<clus scale="   94.412">  7  8 -1 -1</clus>
<clus scale="  115.069">  2  5  1 -1</clus>
<clus scale="  115.069">  2  5  1 -1</clus>
</clustering>
</event>
<event>
 9    1  0.1612788E-005  0.9953058E+02  0.7546771E-02  0.1282238E+00
          2   -1    0    0  502    0  0.00000000000E+00  0.00000000000E+00  0.70504921387E+02  0.70504921387E+02  0.00000000000E+00 0. -1.
         -2   -1    0    0    0  501 -0.00000000000E+00 -0.00000000000E+00 -0.26196985339E+03  0.26196985339E+03  0.00000000000E+00 0.  1.
         23    2    1    2    0    0 -0.20370912825E+02 -0.37333950728E+02 -0.11172182914E+03  0.15106870164E+03  0.92364427905E+02 0.  0.
         23    2    1    2    0    0  0.34857194160E+02  0.14175840069E+02 -0.89530524019E+00  0.97960727995E+02  0.90440722197E+02 0.  0.
        -13    1    3    3    0    0 -0.16465825520E+02  0.24609092589E+02 -0.70757259134E+02  0.76702806782E+02  0.00000000000E+00 0. -1.
         13    1    3    3    0    0 -0.39050873050E+01 -0.61943043317E+02 -0.40964570011E+02  0.74365894861E+02  0.00000000000E+00 0.  1.
        -13    1    4    4    0    0 -0.34296391950E+01  0.40415504983E+02 -0.22915793193E+02  0.46586575810E+02  0.00000000000E+00 0.  1.
         13    1    4    4    0    0  0.38286833355E+02 -0.26239664913E+02  0.22020487953E+02  0.51374152185E+02  0.00000000000E+00 0. -1.
         21    1    1    2  502  501 -0.14486281335E+02  0.23158110659E+02 -0.78847797619E+02  0.83445345140E+02  0.00000000000E+00 0. -1.
<scales pt_clust_5="13000.00000" pt_clust_6="13000.00000" pt_clust_7="13000.00000" pt_clust_8="13000.00000" pt_clust_9="27.31575"></scales>
<clustering>
<clus scale="   27.316">  2  9  1 -1</clus>
<clus scale="   90.441">  7  8 -1 -1</clus>
<clus scale="   92.364">  5  6 -1 -1</clus>
<clus scale="   97.748">  1  7  2 -1</clus>
<clus scale="   97.748">  1  5  2 -1</clus>
</clustering>
</event>
<event>
 9    1  0.1612788E-005  0.1172987E+03  0.7546771E-02  0.1248154E+00
          1   -1    0    0  502    0  0.00000000000E+00  0.00000000000E+00  0.43006972976E+03  0.43006972976E+03  0.00000000000E+00 0. -1.
         -1   -1    0    0    0  501 -0.00000000000E+00 -0.00000000000E+00 -0.77239800005E+02  0.77239800005E+02  0.00000000000E+00 0.  1.
         23    2    1    2    0    0 -0.25203086213E+02  0.33982433016E+02  0.16680549061E+02  0.99280908518E+02  0.88252233800E+02 0.  0.
         23    2    1    2    0    0  0.90887738362E+02  0.15274064177E+01  0.29781971739E+03  0.32409659331E+03  0.89883834882E+02 0.  0.
        -13    1    3    3    0    0 -0.13923469650E+02  0.52220606092E+02 -0.19305819245E+02  0.57389627673E+02  0.00000000000E+00 0.  1.
         13    1    3    3    0    0 -0.11279616564E+02 -0.18238173076E+02  0.35986368306E+02  0.41891280845E+02  0.00000000000E+00 0. -1.
        -13    1    4    4    0    0  0.19667244844E+02 -0.19048377743E+02  0.13992949596E+02  0.30748070717E+02  0.00000000000E+00 0.  1.
         13    1    4    4    0    0  0.71220493518E+02  0.20575784161E+02  0.28382676780E+03  0.29334852259E+03  0.00000000000E+00 0. -1.
         21    1    1    2  502  501 -0.65684652148E+02 -0.35509839434E+02  0.38329663300E+02  0.83932027934E+02  0.00000000000E+00 0.  1.
<scales pt_clust_5="13000.00000" pt_clust_6="13000.00000" pt_clust_7="13000.00000" pt_clust_8="13000.00000" pt_clust_9="74.66875"></scales>
<clustering>
<clus scale="   74.669">  2  9  1 -1</clus>
<clus scale="   88.252">  5  6 -1 -1</clus>
<clus scale="   89.884">  7  8 -1 -1</clus>
<clus scale="  116.053">  2  5  1 -1</clus>
<clus scale="  117.299">  1  5  2 -1</clus>
</clustering>
</event>
<event>
 9    1  0.1612788E-005  0.9849607E+02  0.7546771E-02  0.1283895E+00
          2   -1    0    0  502    0  0.00000000000E+00  0.00000000000E+00  0.41017828720E+03  0.41017828720E+03  0.00000000000E+00 0. -1.
         -2   -1    0    0    0  501 -0.00000000000E+00 -0.00000000000E+00 -0.10080470476E+03  0.10080470476E+03  0.00000000000E+00 0.  1.
         23    2    1    2    0    0 -0.10654917226E+02 -0.71062336708E+01  0.14965333556E+02  0.94125414497E+02  0.92041331084E+02 0.  0.
         23    2    1    2    0    0  0.17692586586E+02 -0.37878204410E+02  0.33874888791E+03  0.35330271355E+03  0.91237121575E+02 0.  0.
        -11    1    3    3    0    0 -0.11805217610E+02  0.41877488768E+02  0.11511071036E+02  0.45006577127E+02  0.00000000000E+00 0.  1.
         11    1    3    3    0    0  0.11503003839E+01 -0.48983722439E+02  0.34542625197E+01  0.49118837369E+02  0.00000000000E+00 0. -1.
        -11    1    4    4    0    0 -0.19081345483E+02 -0.51053620378E+02  0.25679610597E+03  0.26251630414E+03  0.00000000000E+00 0.  1.
         11    1    4    4    0    0  0.36773932069E+02  0.13175415969E+02  0.81952781939E+02  0.90786409409E+02  0.00000000000E+00 0. -1.
         21    1    1    2  502  501 -0.70376693600E+01  0.44984438080E+02 -0.44340639013E+02  0.63554863917E+02  0.00000000000E+00 0.  1.
<scales pt_clust_5="13000.00000" pt_clust_6="13000.00000" pt_clust_7="13000.00000" pt_clust_8="13000.00000" pt_clust_9="45.53162"></scales>
<clustering>
<clus scale="   45.532">  2  9  1 -1</clus>
<clus scale="   91.237">  7  8 -1 -1</clus>
<clus scale="   92.041">  5  6 -1 -1</clus>
<clus scale="   97.745">  1  7  2 -1</clus>
<clus scale="   97.745">  1  5  2 -1</clus>
</clustering>
</event>
<event>
 9    1  0.2556012E-005  0.1877211E+03  0.7546771E-02  0.1160840E+00
          1   -1    0    0  502    0  0.00000000000E+00  0.00000000000E+00  0.15946940610E+03  0.15946940610E+03  0.00000000000E+00 0. -1.
         -1   -1    0    0    0  501 -0.00000000000E+00 -0.00000000000E+00 -0.60686778849E+03  0.60686778849E+03  0.00000000000E+00 0.  1.
         23    2    1    2    0    0 -0.14727081843E+03 -0.23744794503E+02 -0.45615892562E+03  0.48855317889E+03  0.91382350343E+02 0.  0.
         23    2    1    2    0    0  0.16408817958E+03  0.88461753125E+01  0.78152956740E+02  0.20484500322E+03  0.94076592201E+02 0.  0.
        -11    1    4    4    0    0  0.25015580955E+02 -0.11802309432E+02 -0.19342143191E+02  0.33751922933E+02  0.00000000000E+00 0.  1.
         11    1    4    4    0    0  0.13907259862E+03  0.20648484745E+02  0.97495099931E+02  0.17109308028E+03  0.00000000000E+00 0. -1.
        -11    1    3    3    0    0 -0.52265188661E+01  0.22929177047E+02 -0.90530776644E+02  0.93535475513E+02  0.00000000000E+00 0. -1.
         11    1    3    3    0    0 -0.14204429956E+03 -0.46673971551E+02 -0.36562814898E+03  0.39501770338E+03  0.00000000000E+00 0.  1.
         21    1    1    2  502  501 -0.16817361154E+02  0.14898619191E+02 -0.69392413508E+02  0.72939012486E+02  0.00000000000E+00 0. -1.
<scales pt_clust_5="13000.00000" pt_clust_6="13000.00000" pt_clust_7="13000.00000" pt_clust_8="13000.00000" pt_clust_9="22.46759"></scales>
<clustering>
<clus scale="   22.468">  2  9  1 -1</clus>
<clus scale="   91.382">  7  8 -1 -1</clus>
<clus scale="   94.077">  5  6 -1 -1</clus>
<clus scale="  186.385">  2  7  1 -1</clus>
<clus scale="  187.721">  1  5  2 -1</clus>
</clustering>
</event>
<event>
 9    1  0.1612788E-005  0.1160026E+03  0.7546771E-02  0.1251250E+00
          2   -1    0    0  502    0  0.00000000000E+00  0.00000000000E+00  0.82454423928E+02  0.82454423928E+02  0.00000000000E+00 0. -1.
         -2   -1    0    0    0  501 -0.00000000000E+00 -0.00000000000E+00 -0.22445735471E+03  0.22445735471E+03  0.00000000000E+00 0.  1.
         23    2    1    2    0    0  0.74377014105E+02  0.32236993447E+02 -0.10516807700E+03  0.16061284757E+03  0.90360380746E+02 0.  0.
         23    2    1    2    0    0 -0.55453669560E+02 -0.42192161946E+02 -0.90002390998E+01  0.11119958460E+03  0.86191967804E+02 0.  0.
        -11    1    3    3    0    0  0.61955100425E+01 -0.26006592962E+02 -0.69617572624E+01  0.27625953131E+02  0.00000000000E+00 0. -1.
         11    1    3    3    0    0  0.68181504062E+02  0.58243586410E+02 -0.98206319742E+02  0.13298689443E+03  0.00000000000E+00 0.  1.
        -11    1    4    4    0    0 -0.11123807180E+02 -0.57803944331E+02  0.11410568480E+02  0.59960288020E+02  0.00000000000E+00 0. -1.
         11    1    4    4    0    0 -0.44329862381E+02  0.15611782386E+02 -0.20410807580E+02  0.51239296580E+02  0.00000000000E+00 0.  1.
         21    1    1    2  502  501 -0.18923344544E+02  0.99551684982E+01 -0.27834614679E+02  0.35099346474E+02  0.00000000000E+00 0.  1.
<scales pt_clust_5="13000.00000" pt_clust_6="13000.00000" pt_clust_7="13000.00000" pt_clust_8="13000.00000" pt_clust_9="21.38220"></scales>
<clustering>
<clus scale="   21.382">  2  9  1 -1</clus>
<clus scale="   86.192">  7  8 -1 -1</clus>
<clus scale="   90.360">  5  6 -1 -1</clus>
<clus scale="  112.786">  1  7  2 -1</clus>
<clus scale="  112.786">  1  5  2 -1</clus>
</clustering>
</event>
<event>
 9    1  0.1612788E-005  0.1149722E+03  0.7546771E-02  0.1252355E+00
          1   -1    0    0  502    0  0.00000000000E+00  0.00000000000E+00  0.23232470379E+03  0.23232470379E+03  0.00000000000E+00 0. -1.
         -1   -1    0    0    0  501 -0.00000000000E+00 -0.00000000000E+00 -0.97961406748E+02  0.97961406748E+02  0.00000000000E+00 0.  1.
         23    2    1    2    0    0  0.40969793852E+02 -0.48454052231E+02 -0.17835183353E+02  0.11293460340E+03  0.91705025455E+02 0.  0.
         23    2    1    2    0    0 -0.25695808913E+02  0.67127849906E+02  0.15513821095E+03  0.19304826968E+03  0.89628941192E+02 0.  0.
        -11    1    4    4    0    0  0.13039107069E+02 -0.16691938005E+02  0.18424440354E+02  0.28073102961E+02  0.00000000000E+00 0.  1.
         11    1    4    4    0    0 -0.38734915982E+02  0.83819787911E+02  0.13671377060E+03  0.16497516672E+03  0.00000000000E+00 0. -1.
        -13    1    3    3    0    0  0.85969277450E+01 -0.63987405572E+02 -0.34664407428E+02  0.73279713297E+02  0.00000000000E+00 0.  1.
         13    1    3    3    0    0  0.32372866107E+02  0.15533353341E+02  0.16829224076E+02  0.39654890102E+02  0.00000000000E+00 0. -1.
         21    1    1    2  502  501 -0.15273984939E+02 -0.18673797675E+02 -0.29397305562E+01  0.24303237464E+02  0.00000000000E+00 0.  1.
<scales pt_clust_5="13000.00000" pt_clust_6="13000.00000" pt_clust_7="13000.00000" pt_clust_8="13000.00000" pt_clust_9="24.12479"></scales>
<clustering>
<clus scale="   24.125">  2  9  1 -1</clus>
<clus scale="   89.629">  5  6 -1 -1</clus>
<clus scale="   91.705">  7  8 -1 -1</clus>
<clus scale="  113.323">  1  5  2 -1</clus>
<clus scale="  113.323">  1  5  2 -1</clus>
</clustering>
</event>
<event>
 9    1  0.1612788E-005  0.1499357E+03  0.7546771E-02  0.1221043E+00
         -1   -1    0    0    0  501 -0.00000000000E+00  0.00000000000E+00  0.42067280709E+03  0.42067280709E+03  0.00000000000E+00 0.  1.
          1   -1    0    0  502    0  0.00000000000E+00 -0.00000000000E+00 -0.11943436852E+03  0.11943436852E+03  0.00000000000E+00 0. -1.
         23    2    1    2    0    0  0.23102911127E+02  0.14054981465E+02  0.15656907065E+03  0.18410523542E+03  0.93003101106E+02 0.  0.
         23    2    1    2    0    0 -0.10651360776E+03 -0.65471547975E+02 -0.27450061176E+02  0.15794612611E+03  0.92529998703E+02 0.  0.
        -11    1    4    4    0    0 -0.85403403685E+02 -0.41994219098E+02 -0.60075849146E+02  0.11254493969E+03  0.00000000000E+00 0. -1.
         11    1    4    4    0    0 -0.21110204079E+02 -0.23477328877E+02  0.32625787971E+02  0.45401186418E+02  0.00000000000E+00 0.  1.
        -13    1    3    3    0    0  0.52709747278E+02  0.30446537899E+02  0.81160640208E+02  0.10145126242E+03  0.00000000000E+00 0.  1.
         13    1    3    3    0    0 -0.29606836151E+02 -0.16391556434E+02  0.75408430447E+02  0.82653972994E+02  0.00000000000E+00 0. -1.
         21    1    1    2  502  501  0.83410696637E+02  0.51416566510E+02  0.17211942909E+03  0.19805581409E+03  0.00000000000E+00 0.  1.
<scales pt_clust_5="13000.00000" pt_clust_6="13000.00000" pt_clust_7="13000.00000" pt_clust_8="13000.00000" pt_clust_9="117.97840"></scales>
<clustering>
<clus scale="   92.530">  5  6 -1 -1</clus>
<clus scale="   93.003">  7  8 -1 -1</clus>
<clus scale="   96.855">  1  7  2 -1</clus>
<clus scale="  117.978">  1  9  2 -1</clus>
<clus scale="  149.936">  2  5  1 -1</clus>
</clustering>
</event>
<event>
 9    1  0.1612788E-005  0.1185856E+03  0.7546771E-02  0.1257439E+00
         -1   -1    0    0    0  501 -0.00000000000E+00  0.00000000000E+00  0.20391862093E+03  0.20391862093E+03  0.00000000000E+00 0.  1.
          1   -1    0    0  502    0  0.00000000000E+00 -0.00000000000E+00 -0.30848184765E+03  0.30848184765E+03  0.00000000000E+00 0. -1.
         23    2    1    2    0    0 -0.40178682700E+02 -0.16440286658E+02  0.20239311230E+02  0.12330309863E+03  0.11361960590E+03 0.  0.
         23    2    1    2    0    0  0.30655077242E+02 -0.15678890483E+02 -0.24608816882E+03  0.26326992916E+03  0.86983374245E+02 0.  0.
        -11    1    3    3    0    0  0.25050955361E+02 -0.43564176235E+02  0.17698720367E+01  0.50284393827E+02  0.00000000000E+00 0. -1.
         11    1    3    3    0    0 -0.65229638061E+02  0.27123889577E+02  0.18469439193E+02  0.73018704806E+02  0.00000000000E+00 0.  1.
        -13    1    4    4    0    0 -0.11779832643E+02 -0.18975604569E+02 -0.12020554134E+02  0.25363985246E+02  0.00000000000E+00 0.  1.
         13    1    4    4    0    0  0.42434909885E+02  0.32967140867E+01 -0.23406761469E+03  0.23790594391E+03  0.00000000000E+00 0. -1.
         21    1    1    2  502  501  0.95236054586E+01  0.32119177141E+02  0.12128563087E+03  0.12582744080E+03  0.00000000000E+00 0.  1.
<scales pt_clust_5="13000.00000" pt_clust_6="13000.00000" pt_clust_7="13000.00000" pt_clust_8="13000.00000" pt_clust_9="33.50135"></scales>
<clustering>
<clus scale="   33.501">  1  9  2 -1</clus>
<clus scale="   86.983">  7  8 -1 -1</clus>
<clus scale="   93.377">  2  7  1 -1</clus>
<clus scale="  113.620">  5  6 -1 -1</clus>
<clus scale="   93.377">  2  5  1 -1</clus>
</clustering>
</event>
<event>
 9    1  0.1612788E-005  0.1138568E+03  0.7546771E-02  0.1254062E+00
          1   -1    0    0  502    0  0.00000000000E+00  0.00000000000E+00  0.19293942542E+03  0.19293942542E+03  0.00000000000E+00 0. -1.
         -1   -1    0    0    0  501 -0.00000000000E+00 -0.00000000000E+00 -0.18498925694E+03  0.18498925694E+03  0.00000000000E+00 0.  1.
         23    2    1    2    0    0 -0.61834391149E+01  0.40778247220E+02 -0.14203085505E+02  0.10255449505E+03  0.92814850380E+02 0.  0.
         23    2    1    2    0    0 -0.30269849318E+02 -0.72855637803E+02  0.11739925598E+03  0.16846487003E+03  0.91507482713E+02 0.  0.
        -13    1    4    4    0    0  0.20133558246E+02 -0.88492735747E+01 -0.39099787372E+01  0.22337362068E+02  0.00000000000E+00 0.  1.
         13    1    4    4    0    0 -0.50403407564E+02 -0.64006364228E+02  0.12130923472E+03  0.14612750796E+03  0.00000000000E+00 0. -1.
        -13    1    3    3    0    0 -0.10806961825E+01  0.63592927535E+02  0.14800922221E+02  0.65301574524E+02  0.00000000000E+00 0.  1.
         13    1    3    3    0    0 -0.51027429324E+01 -0.22814680315E+02 -0.29004007727E+02  0.37252920524E+02  0.00000000000E+00 0. -1.
         21    1    1    2  502  501  0.36453288433E+02  0.32077390583E+02 -0.95246002002E+02  0.10690931728E+03  0.00000000000E+00 0.  1.
<scales pt_clust_5="13000.00000" pt_clust_6="13000.00000" pt_clust_7="13000.00000" pt_clust_8="13000.00000" pt_clust_9="48.55720"></scales>
<clustering>
<clus scale="   48.557">  2  9  1 -1</clus>
<clus scale="   91.507">  5  6 -1 -1</clus>
<clus scale="   92.815">  7  8 -1 -1</clus>
<clus scale="  112.794">  1  5  2 -1</clus>
<clus scale="  112.794">  1  5  2 -1</clus>
</clustering>
</event>
<event>
 9    1  0.1612788E-005  0.2494469E+03  0.7546771E-02  0.1113914E+00
          2   -1    0    0  502    0  0.00000000000E+00  0.00000000000E+00  0.71274403634E+03  0.71274403634E+03  0.00000000000E+00 0. -1.
         -2   -1    0    0    0  501 -0.00000000000E+00 -0.00000000000E+00 -0.25868206646E+03  0.25868206646E+03  0.00000000000E+00 0.  1.
         23    2    1    2    0    0 -0.15510780939E+03  0.19027479818E+03 -0.86021343014E+02  0.27682202320E+03  0.94698625739E+02 0.  0.
         23    2    1    2    0    0  0.15418418843E+03 -0.16907717769E+03  0.59061437182E+03  0.63979915185E+03  0.90320332905E+02 0.  0.
        -11    1    4    4    0    0  0.19450594294E+02 -0.84691160617E+02  0.21872102425E+03  0.23535038720E+03  0.00000000000E+00 0.  1.
         11    1    4    4    0    0  0.13473359413E+03 -0.84386017077E+02  0.37189334757E+03  0.40444876465E+03  0.00000000000E+00 0. -1.
        -13    1    3    3    0    0 -0.47971130521E+02  0.38825620563E+01 -0.15882192759E+02  0.50680841533E+02  0.00000000000E+00 0. -1.
         13    1    3    3    0    0 -0.10713667887E+03  0.18639223612E+03 -0.70139150255E+02  0.22614118166E+03  0.00000000000E+00 0.  1.
         21    1    1    2  502  501  0.92362096450E+00 -0.21197620486E+02 -0.50531058921E+02  0.54804927749E+02  0.00000000000E+00 0.  1.
<scales pt_clust_5="13000.00000" pt_clust_6="13000.00000" pt_clust_7="13000.00000" pt_clust_8="13000.00000" pt_clust_9="21.21773"></scales>
<clustering>
<clus scale="   21.218">  2  9  1 -1</clus>
<clus scale="   90.320">  5  6 -1 -1</clus>
<clus scale="   94.699">  7  8 -1 -1</clus>
<clus scale="  247.818">  1  5  2 -1</clus>
<clus scale="  247.818">  1  5  2 -1</clus>
</clustering>
</event>
<event>
 9    1  0.1612788E-005  0.1121352E+03  0.7546771E-02  0.1259312E+00
          1   -1    0    0  502    0  0.00000000000E+00  0.00000000000E+00  0.81834906370E+03  0.81834906370E+03  0.00000000000E+00 0. -1.
         -1   -1    0    0    0  501 -0.00000000000E+00 -0.00000000000E+00 -0.36392993516E+02  0.36392993516E+02  0.00000000000E+00 0.  1.
         23    2    1    2    0    0  0.43012276018E+02  0.51789739278E+02  0.19997811621E+03  0.22976743132E+03  0.90937300083E+02 0.  0.
         23    2    1    2    0    0 -0.57483901721E+02  0.31793849759E+00  0.55128404177E+03  0.56279139440E+03  0.97547726057E+02 0.  0.
        -11    1    3    3    0    0  0.71760566526E+02  0.34977201246E+02  0.14253911416E+03  0.16337191491E+03  0.00000000000E+00 0.  1.
         11    1    3    3    0    0 -0.28748290508E+02  0.16812538032E+02  0.57439002055E+02  0.66395516410E+02  0.00000000000E+00 0. -1.
        -13    1    4    4    0    0 -0.13672514643E+02  0.46859282003E+02  0.26506071617E+03  0.26951792746E+03  0.00000000000E+00 0.  1.
         13    1    4    4    0    0 -0.43811387078E+02 -0.46541343505E+02  0.28622332560E+03  0.29327346694E+03  0.00000000000E+00 0. -1.
         21    1    1    2  502  501  0.14471625703E+02 -0.52107677775E+02  0.30693912202E+02  0.62183231501E+02  0.00000000000E+00 0.  1.
<scales pt_clust_5="13000.00000" pt_clust_6="13000.00000" pt_clust_7="13000.00000" pt_clust_8="13000.00000" pt_clust_9="54.07992"></scales>
<clustering>
<clus scale="   54.080">  2  9  1 -1</clus>
<clus scale="   90.937">  5  6 -1 -1</clus>
<clus scale="   97.548">  7  8 -1 -1</clus>
<clus scale="  106.435">  2  5  1 -1</clus>
<clus scale="  112.135">  1  5  2 -1</clus>
</clustering>
</event>
<event>
 9    1  0.1612788E-005  0.9385899E+02  0.7546771E-02  0.1294889E+00
          2   -1    0    0  502    0  0.00000000000E+00  0.00000000000E+00  0.29824642338E+03  0.29824642338E+03  0.00000000000E+00 0. -1.
         -2   -1    0    0    0  501 -0.00000000000E+00 -0.00000000000E+00 -0.71327059409E+02  0.71327059409E+02  0.00000000000E+00 0.  1.
         23    2    1    2    0    0  0.42377042920E+01 -0.20745282309E+02  0.15659477068E+02  0.97285598596E+02  0.93653315992E+02 0.  0.
         23    2    1    2    0    0  0.50339329586E+01  0.18224999487E+01  0.22771782770E+03  0.24555029334E+03  0.91710825536E+02 0.  0.
        -11    1    3    3    0    0 -0.37416890469E+02  0.15741566295E+02  0.50955992052E+01  0.40911926538E+02  0.00000000000E+00 0.  1.
         11    1    3    3    0    0  0.41654594761E+02 -0.36486848604E+02  0.10563877863E+02  0.56373672058E+02  0.00000000000E+00 0. -1.
        -13    1    4    4    0    0 -0.71577231346E+01 -0.32520996596E+02  0.19076737778E+03  0.19365185423E+03  0.00000000000E+00 0. -1.
         13    1    4    4    0    0  0.12191656093E+02  0.34343496544E+02  0.36950449914E+02  0.51898439110E+02  0.00000000000E+00 0.  1.
         21    1    1    2  502  501 -0.92716372506E+01  0.18922782360E+02 -0.16457940794E+02  0.26737590855E+02  0.00000000000E+00 0.  1.
<scales pt_clust_5="13000.00000" pt_clust_6="13000.00000" pt_clust_7="13000.00000" pt_clust_8="13000.00000" pt_clust_9="21.07214"></scales>
<clustering>
<clus scale="   21.072">  2  9  1 -1</clus>
<clus scale="   91.711">  7  8 -1 -1</clus>
<clus scale="   91.921">  1  7  2 -1</clus>
<clus scale="   93.653">  5  6 -1 -1</clus>
<clus scale="   91.921">  1  5  2 -1</clus>
</clustering>
</event>
<event>
 9    1  0.1612788E-005  0.1488199E+03  0.7546771E-02  0.1202670E+00
         -1   -1    0    0    0  501 -0.00000000000E+00  0.00000000000E+00  0.14371904690E+03  0.14371904690E+03  0.00000000000E+00 0.  1.
          1   -1    0    0  502    0  0.00000000000E+00 -0.00000000000E+00 -0.19973261782E+03  0.19973261782E+03  0.00000000000E+00 0. -1.
         23    2    1    2    0    0  0.99224832124E+02  0.71093688589E+02  0.16163901828E+01  0.15356275054E+03  0.93161289010E+02 0.  0.
         23    2    1    2    0    0 -0.10767623943E+03 -0.37702674066E+02 -0.56182727640E+02  0.15541456688E+03  0.89339378458E+02 0.  0.
        -11    1    4    4    0    0 -0.96775632283E+02  0.75830419715E+01 -0.28238987364E+02  0.10109632009E+03  0.00000000000E+00 0.  1.
         11    1    4    4    0    0 -0.10900607151E+02 -0.45285716037E+02 -0.27943740276E+02  0.54318246786E+02  0.00000000000E+00 0. -1.
        -13    1    3    3    0    0  0.95724162097E+02  0.42760515886E+02  0.34165887622E+02  0.11026733335E+03  0.00000000000E+00 0.  1.
         13    1    3    3    0    0  0.35006700268E+01  0.28333172704E+02 -0.32549497439E+02  0.43295417190E+02  0.00000000000E+00 0. -1.
         21    1    1    2  502  501  0.84514073097E+01 -0.33391014524E+02 -0.14472334671E+01  0.34474347291E+02  0.00000000000E+00 0.  1.
<scales pt_clust_5="13000.00000" pt_clust_6="13000.00000" pt_clust_7="13000.00000" pt_clust_8="13000.00000" pt_clust_9="34.44396"></scales>
<clustering>
<clus scale="   34.444">  1  9  2 -1</clus>
<clus scale="   89.339">  5  6 -1 -1</clus>
<clus scale="   93.161">  7  8 -1 -1</clus>
<clus scale="  146.458">  2  5  1 -1</clus>
<clus scale="  146.458">  2  5  1 -1</clus>
</clustering>
</event>
<event>
 9    1  0.1612788E-005  0.9331719E+02  0.7546771E-02  0.1295166E+00
         -1   -1    0    0    0  501 -0.00000000000E+00  0.00000000000E+00  0.76026664690E+02  0.76026664690E+02  0.00000000000E+00 0.  1.
          1   -1    0    0  502    0  0.00000000000E+00 -0.00000000000E+00 -0.35122628043E+03  0.35122628043E+03  0.00000000000E+00 0. -1.
         23    2    1    2    0    0  0.11556378885E+02 -0.24246872962E+01 -0.85554216277E+02  0.12535793385E+03  0.90860655154E+02 0.  0.
         23    2    1    2    0    0 -0.69051125652E+01  0.25597615010E+02 -0.23351332951E+03  0.25206515933E+03  0.91134247234E+02 0.  0.
        -11    1    3    3    0    0 -0.27138258403E+02  0.26352579223E+02 -0.16829429843E+02  0.41402574916E+02  0.00000000000E+00 0.  1.
         11    1    3    3    0    0  0.38694637288E+02 -0.28777266520E+02 -0.68724786435E+02  0.83955358934E+02  0.00000000000E+00 0. -1.
        -11    1    4    4    0    0 -0.72908480548E+01 -0.34181011257E+02 -0.78728410506E+02  0.86137451882E+02  0.00000000000E+00 0. -1.
         11    1    4    4    0    0  0.38573548964E+00  0.59778626267E+02 -0.15478491900E+03  0.16592770745E+03  0.00000000000E+00 0.  1.
         21    1    1    2  502  501 -0.46512663199E+01 -0.23172927714E+02  0.43867930046E+02  0.49829851933E+02  0.00000000000E+00 0.  1.
<scales pt_clust_5="13000.00000" pt_clust_6="13000.00000" pt_clust_7="13000.00000" pt_clust_8="13000.00000" pt_clust_9="23.63512"></scales>
<clustering>
<clus scale="   23.635">  1  9  2 -1</clus>
<clus scale="   90.861">  5  6 -1 -1</clus>
<clus scale="   91.134">  7  8 -1 -1</clus>
<clus scale="   93.050">  1  5  2 -1</clus>
<clus scale="   93.317">  2  5  1 -1</clus>
</clustering>
</event>
<event>
 9    1  0.1612788E-005  0.1905547E+03  0.7546771E-02  0.1157964E+00
         -3   -1    0    0    0  501 -0.00000000000E+00  0.00000000000E+00  0.83438705359E+03  0.83438705359E+03  0.00000000000E+00 0.  1.
          3   -1    0    0  502    0  0.00000000000E+00 -0.00000000000E+00 -0.12465812351E+03  0.12465812351E+03  0.00000000000E+00 0. -1.
         23    2    1    2    0    0 -0.28591419329E+02 -0.13010499916E+03  0.15384371600E+03  0.22307392238E+03  0.91374535984E+02 0.  0.
         23    2    1    2    0    0 -0.47384621370E+02  0.19393338741E+03  0.56335891721E+02  0.22666197013E+03  0.91358934480E+02 0.  0.
        -11    1    4    4    0    0 -0.29448168886E+01  0.16000062437E+03  0.23291515085E+02  0.16171384115E+03  0.00000000000E+00 0. -1.
         11    1    4    4    0    0 -0.44439804482E+02  0.33932763048E+02  0.33044376637E+02  0.64948128978E+02  0.00000000000E+00 0.  1.
        -13    1    3    3    0    0  0.93153800558E+01 -0.84164883245E+02  0.13720740195E+03  0.16123391401E+03  0.00000000000E+00 0.  1.
         13    1    3    3    0    0 -0.37906799385E+02 -0.45940115918E+02  0.16636314054E+02  0.61840008372E+02  0.00000000000E+00 0. -1.
         21    1    1    2  502  501  0.75976040699E+02 -0.63828388251E+02  0.49954932236E+03  0.50930928459E+03  0.00000000000E+00 0.  1.
<scales pt_clust_5="13000.00000" pt_clust_6="13000.00000" pt_clust_7="13000.00000" pt_clust_8="13000.00000" pt_clust_9="99.22914"></scales>
<clustering>
<clus scale="   91.359">  5  6 -1 -1</clus>
<clus scale="   91.375">  7  8 -1 -1</clus>
<clus scale="   99.229">  1  9  2 -1</clus>
<clus scale="  190.547">  2  5  1 -1</clus>
<clus scale="  190.547">  2  5  1 -1</clus>
</clustering>
</event>
<event>
 9    1  0.1612788E-005  0.1605912E+03  0.7546771E-02  0.1188527E+00
         -1   -1    0    0    0  501 -0.00000000000E+00  0.00000000000E+00  0.58951831443E+02  0.58951831443E+02  0.00000000000E+00 0.  1.
          1   -1    0    0  502    0  0.00000000000E+00 -0.00000000000E+00 -0.64979872951E+03  0.64979872951E+03  0.00000000000E+00 0. -1.
         23    2    1    2    0    0  0.13582663386E+03  0.89610912728E+02 -0.30027119903E+03  0.35297440384E+03  0.89157987040E+02 0.  0.
         23    2    1    2    0    0 -0.89399025802E+02 -0.62532196261E+02 -0.25177457615E+03  0.28948658921E+03  0.92247421393E+02 0.  0.
        -11    1    4    4    0    0 -0.19019088408E+01  0.21477113120E+02 -0.39307504275E+02  0.44832616894E+02  0.00000000000E+00 0. -1.
         11    1    4    4    0    0 -0.87497116961E+02 -0.84009309381E+02 -0.21246707188E+03  0.24465397232E+03  0.00000000000E+00 0.  1.
        -11    1    3    3    0    0  0.70699567473E+02  0.66408085883E+02 -0.24802316761E+03  0.26631551661E+03  0.00000000000E+00 0. -1.
         11    1    3    3    0    0  0.65127066386E+02  0.23202826845E+02 -0.52248031414E+02  0.86658887232E+02  0.00000000000E+00 0.  1.
         21    1    1    2  502  501 -0.46427608057E+02 -0.27078716468E+02 -0.38801122884E+02  0.66289567900E+02  0.00000000000E+00 0. -1.
<scales pt_clust_5="13000.00000" pt_clust_6="13000.00000" pt_clust_7="13000.00000" pt_clust_8="13000.00000" pt_clust_9="53.74737"></scales>
<clustering>
<clus scale="   53.747">  1  9  2 -1</clus>
<clus scale="   89.158">  7  8 -1 -1</clus>
<clus scale="   92.247">  5  6 -1 -1</clus>
<clus scale="  158.837">  1  7  2 -1</clus>
<clus scale="  160.591">  2  5  1 -1</clus>
</clustering>
</event>
<event>
 9    1  0.1612788E-005  0.9197046E+02  0.7546771E-02  0.1298548E+00
         -2   -1    0    0    0  501 -0.00000000000E+00  0.00000000000E+00  0.32083342287E+03  0.32083342287E+03  0.00000000000E+00 0.  1.
          2   -1    0    0  502    0  0.00000000000E+00 -0.00000000000E+00 -0.63133972506E+02  0.63133972506E+02  0.00000000000E+00 0. -1.
         23    2    1    2    0    0 -0.18407640117E+02  0.90296866959E+01  0.75529124097E+02  0.11865131163E+03  0.89180203563E+02 0.  0.
         23    2    1    2    0    0 -0.42328762393E+02  0.38700179006E+02  0.64658575402E+02  0.12468869573E+03  0.89872751650E+02 0.  0.
        -11    1    3    3    0    0 -0.18749523863E+02  0.47181140883E+02  0.56688711453E+02  0.76100030922E+02  0.00000000000E+00 0. -1.
         11    1    3    3    0    0  0.34188374675E+00 -0.38151454187E+02  0.18840412645E+02  0.42551280706E+02  0.00000000000E+00 0.  1.
        -13    1    4    4    0    0  0.23678224510E+02  0.43494134433E+01  0.39278149293E+02  0.46068956198E+02  0.00000000000E+00 0.  1.
         13    1    4    4    0    0 -0.66006986903E+02  0.34350765562E+02  0.25380426109E+02  0.78619739533E+02  0.00000000000E+00 0. -1.
         21    1    1    2  502  501  0.60736402510E+02 -0.47729865702E+02  0.11751175087E+03  0.14062738802E+03  0.00000000000E+00 0. -1.
<scales pt_clust_5="13000.00000" pt_clust_6="13000.00000" pt_clust_7="13000.00000" pt_clust_8="13000.00000" pt_clust_9="77.24669"></scales>
<clustering>
<clus scale="   77.247">  1  9  2 -1</clus>
<clus scale="   89.180">  5  6 -1 -1</clus>
<clus scale="   89.873">  7  8 -1 -1</clus>
<clus scale="   91.294">  1  5  2 -1</clus>
<clus scale="   91.970">  2  5  1 -1</clus>
</clustering>
</event>
<event>
 9    1  0.1612788E-005  0.1093802E+03  0.7546771E-02  0.1263796E+00
          1   -1    0    0  502    0  0.00000000000E+00  0.00000000000E+00  0.15179817016E+03  0.15179817016E+03  0.00000000000E+00 0. -1.
         -1   -1    0    0    0  501 -0.00000000000E+00 -0.00000000000E+00 -0.18612374208E+03  0.18612374208E+03  0.00000000000E+00 0.  1.
         23    2    1    2    0    0  0.50456467218E+01  0.28977523595E+02 -0.92459955647E+01  0.93300703168E+02  0.88058942493E+02 0.  0.
         23    2    1    2    0    0  0.20123017222E+02 -0.75738791179E+02  0.66508390159E+02  0.13875132006E+03  0.93205485593E+02 0.  0.
        -11    1    3    3    0    0 -0.27551610389E+02  0.27696645877E+01  0.26464888397E+02  0.38303427978E+02  0.00000000000E+00 0. -1.
         11    1    3    3    0    0  0.32597257111E+02  0.26207859007E+02 -0.35710883962E+02  0.54997275190E+02  0.00000000000E+00 0.  1.
        -13    1    4    4    0    0  0.52609914806E+02 -0.18151941470E+02  0.30650442088E+02  0.63535389471E+02  0.00000000000E+00 0.  1.
         13    1    4    4    0    0 -0.32486897584E+02 -0.57586849710E+02  0.35857948072E+02  0.75215930587E+02  0.00000000000E+00 0. -1.
         21    1    1    2  502  501 -0.25168663944E+02  0.46761267585E+02 -0.91587966508E+02  0.10586988901E+03  0.00000000000E+00 0.  1.
<scales pt_clust_5="13000.00000" pt_clust_6="13000.00000" pt_clust_7="13000.00000" pt_clust_8="13000.00000" pt_clust_9="53.10440"></scales>
<clustering>
<clus scale="   53.104">  2  9  1 -1</clus>
<clus scale="   88.059">  5  6 -1 -1</clus>
<clus scale="   93.205">  7  8 -1 -1</clus>
<clus scale="  105.029">  2  5  1 -1</clus>
<clus scale="  109.380">  1  5  2 -1</clus>
</clustering>
</event>
<event>
 9    1  0.1612788E-005  0.9095359E+02  0.7546771E-02  0.1304798E+00
         -1   -1    0    0    0  501 -0.00000000000E+00  0.00000000000E+00  0.10064558112E+03  0.10064558112E+03  0.00000000000E+00 0.  1.
          1   -1    0    0  502    0  0.00000000000E+00 -0.00000000000E+00 -0.16439839953E+03  0.16439839953E+03  0.00000000000E+00 0. -1.
         23    2    1    2    0    0  0.13665470594E+02 -0.24065519688E+02  0.35267010589E+02  0.10023611368E+03  0.89652786486E+02 0.  0.
         23    2    1    2    0    0  0.10992766440E+02 -0.15385331823E+02 -0.69645824507E+02  0.10978759364E+03  0.82735877926E+02 0.  0.
        -13    1    3    3    0    0 -0.14850356682E+02 -0.38619709510E+02 -0.12059315693E+02  0.43098052754E+02  0.00000000000E+00 0.  1.
         13    1    3    3    0    0  0.28515827276E+02  0.14554189823E+02  0.47326326282E+02  0.57138060923E+02  0.00000000000E+00 0. -1.
        -13    1    4    4    0    0 -0.31043695131E+02 -0.25798168056E+02 -0.24446520188E+02  0.47189922989E+02  0.00000000000E+00 0.  1.
         13    1    4    4    0    0  0.42036461570E+02  0.10412836233E+02 -0.45199304319E+02  0.62597670649E+02  0.00000000000E+00 0. -1.
         21    1    1    2  502  501 -0.24658237034E+02  0.39450851511E+02 -0.29374004490E+02  0.55020273339E+02  0.00000000000E+00 0.  1.
<scales pt_clust_5="13000.00000" pt_clust_6="13000.00000" pt_clust_7="13000.00000" pt_clust_8="13000.00000" pt_clust_9="46.52309"></scales>
<clustering>
<clus scale="   46.523">  2  9  1 -1</clus>
<clus scale="   82.736">  7  8 -1 -1</clus>
<clus scale="   84.144">  2  7  1 -1</clus>
<clus scale="   89.653">  5  6 -1 -1</clus>
<clus scale="   46.523">  2  5  1 -1</clus>
</clustering>
</event>
<event>
 9    1  0.1612788E-005  0.9446965E+02  0.7546771E-02  0.1295164E+00
         -2   -1    0    0    0  501 -0.00000000000E+00  0.00000000000E+00  0.31782385280E+03  0.31782385280E+03  0.00000000000E+00 0.  1.
          2   -1    0    0  502    0  0.00000000000E+00 -0.00000000000E+00 -0.55473056021E+02  0.55473056021E+02  0.00000000000E+00 0. -1.
         23    2    1    2    0    0  0.30779489068E+02  0.15114631500E+02  0.14587222333E+03  0.17603318785E+03  0.92375043447E+02 0.  0.
         23    2    1    2    0    0 -0.16032851042E+02  0.71441818312E+00  0.11032496836E+02  0.89621270147E+02  0.87479674041E+02 0.  0.
        -11    1    3    3    0    0 -0.32107764684E+02  0.64082846036E+01  0.68695619212E+02  0.76099032606E+02  0.00000000000E+00 0.  1.
         11    1    3    3    0    0  0.62887253752E+02  0.87063468966E+01  0.77176604119E+02  0.99934155243E+02  0.00000000000E+00 0. -1.
        -13    1    4    4    0    0  0.31667573157E+02  0.11936213979E+02 -0.11423342162E+02  0.35718358585E+02  0.00000000000E+00 0. -1.
         13    1    4    4    0    0 -0.47700424200E+02 -0.11221795796E+02  0.22455838998E+02  0.53902911562E+02  0.00000000000E+00 0.  1.
         21    1    1    2  502  501 -0.14746638026E+02 -0.15829049683E+02  0.10544607661E+03  0.10764245082E+03  0.00000000000E+00 0.  1.
<scales pt_clust_5="13000.00000" pt_clust_6="13000.00000" pt_clust_7="13000.00000" pt_clust_8="13000.00000" pt_clust_9="21.63382"></scales>
<clustering>
<clus scale="   21.634">  1  9  2 -1</clus>
<clus scale="   87.480">  7  8 -1 -1</clus>
<clus scale="   89.689">  2  7  1 -1</clus>
<clus scale="   92.375">  5  6 -1 -1</clus>
<clus scale="   89.689">  2  5  1 -1</clus>
</clustering>
</event>
<event>
 9    1  0.1612788E-005  0.9442588E+02  0.7546771E-02  0.1295412E+00
         -2   -1    0    0    0  501 -0.00000000000E+00  0.00000000000E+00  0.40255201827E+03  0.40255201827E+03  0.00000000000E+00 0.  1.
          2   -1    0    0  502    0  0.00000000000E+00 -0.00000000000E+00 -0.50529335083E+02  0.50529335083E+02  0.00000000000E+00 0. -1.
         23    2    1    2    0    0 -0.16445149707E+02  0.11468673847E+02  0.30362176201E+03  0.31820310102E+03  0.93086334700E+02 0.  0.
         23    2    1    2    0    0 -0.64580339574E+01 -0.16163212565E+02  0.10440129440E+02  0.90295562582E+02  0.87984866177E+02 0.  0.
        -11    1    4    4    0    0 -0.41196593212E+02 -0.14263522337E+02  0.27502820860E+02  0.51546217290E+02  0.00000000000E+00 0.  1.
         11    1    4    4    0    0  0.34738559254E+02 -0.18996902282E+01 -0.17062691420E+02  0.38749345291E+02  0.00000000000E+00 0. -1.
        -11    1    3    3    0    0  0.28710797625E+02 -0.11143939968E+02  0.43952707547E+02  0.53668778624E+02  0.00000000000E+00 0. -1.
         11    1    3    3    0    0 -0.45155947332E+02  0.22612613814E+02  0.25966905446E+03  0.26453432240E+03  0.00000000000E+00 0.  1.
         21    1    1    2  502  501  0.22903183664E+02  0.46945387182E+01  0.37960791741E+02  0.44582689750E+02  0.00000000000E+00 0. -1.
<scales pt_clust_5="13000.00000" pt_clust_6="13000.00000" pt_clust_7="13000.00000" pt_clust_8="13000.00000" pt_clust_9="23.37936"></scales>
<clustering>
<clus scale="   23.379">  1  9  2 -1</clus>
<clus scale="   87.985">  5  6 -1 -1</clus>
<clus scale="   89.401">  2  5  1 -1</clus>
<clus scale="   93.086">  7  8 -1 -1</clus>
<clus scale="   89.401">  2  5  1 -1</clus>
</clustering>
</event>
<event>
 9    1  0.1612788E-005  0.9695887E+02  0.7546771E-02  0.1287968E+00
          2   -1    0    0  502    0  0.00000000000E+00  0.00000000000E+00  0.14324995269E+03  0.14324995269E+03  0.00000000000E+00 0. -1.
         -2   -1    0    0    0  501 -0.00000000000E+00 -0.00000000000E+00 -0.35641174016E+03  0.35641174016E+03  0.00000000000E+00 0.  1.
         23    2    1    2    0    0  0.22133159695E+02  0.22210533034E+02  0.28044333644E+02  0.99098566618E+02  0.89726566414E+02 0.  0.
         23    2    1    2    0    0  0.10253478552E+02 -0.37871908249E+02  0.46780269325E+02  0.11033849927E+03  0.91906341275E+02 0.  0.
        -11    1    4    4    0    0  0.16229888201E+02  0.28174910170E+02  0.78864981473E+01  0.33457909186E+02  0.00000000000E+00 0.  1.
         11    1    4    4    0    0 -0.59764096490E+01 -0.66046818418E+02  0.38893771178E+02  0.76880590086E+02  0.00000000000E+00 0. -1.
        -13    1    3    3    0    0 -0.19886559746E+02 -0.49270625452E+01 -0.20792550611E+02  0.29190432761E+02  0.00000000000E+00 0.  1.
         13    1    3    3    0    0  0.42019719441E+02  0.27137595579E+02  0.48836884255E+02  0.69908133857E+02  0.00000000000E+00 0. -1.
         21    1    1    2  502  501 -0.32386638247E+02  0.15661375214E+02 -0.28798639044E+03  0.29022462695E+03  0.00000000000E+00 0.  1.
<scales pt_clust_5="13000.00000" pt_clust_6="13000.00000" pt_clust_7="13000.00000" pt_clust_8="13000.00000" pt_clust_9="35.97462"></scales>
<clustering>
<clus scale="   35.975">  2  9  1 -1</clus>
<clus scale="   89.727">  7  8 -1 -1</clus>
<clus scale="   91.906">  5  6 -1 -1</clus>
<clus scale="   94.895">  2  7  1 -1</clus>
<clus scale="   96.959">  1  5  2 -1</clus>
</clustering>
</event>
<event>
 9    1  0.1612788E-005  0.1080357E+03  0.7546771E-02  0.1264838E+00
         -1   -1    0    0    0  501 -0.00000000000E+00  0.00000000000E+00  0.33171485132E+03  0.33171485132E+03  0.00000000000E+00 0.  1.
          1   -1    0    0  502    0  0.00000000000E+00 -0.00000000000E+00 -0.55942291205E+02  0.55942291205E+02  0.00000000000E+00 0. -1.
         23    2    1    2    0    0 -0.55666931683E+02 -0.55646327139E+02  0.16196347794E+03  0.20242959341E+03  0.92467567783E+02 0.  0.
         23    2    1    2    0    0  0.43923616749E+02  0.14286923874E+02  0.69512174716E+02  0.12349650592E+03  0.91027711379E+02 0.  0.
        -11    1    4    4    0    0  0.46649465223E+02  0.43216272295E+02  0.69818372361E+02  0.94437407397E+02  0.00000000000E+00 0.  1.
         11    1    4    4    0    0 -0.27258484748E+01 -0.28929348422E+02 -0.30619764490E+00  0.29059098524E+02  0.00000000000E+00 0. -1.
        -13    1    3    3    0    0 -0.72900813096E+01  0.25041887369E+02  0.48208436027E+02  0.54811446913E+02  0.00000000000E+00 0.  1.
         13    1    3    3    0    0 -0.48376850373E+02 -0.80688214508E+02  0.11375504192E+03  0.14761814649E+03  0.00000000000E+00 0. -1.
         21    1    1    2  502  501  0.11743314934E+02  0.41359403265E+02  0.44296907449E+02  0.61731043193E+02  0.00000000000E+00 0.  1.
<scales pt_clust_5="13000.00000" pt_clust_6="13000.00000" pt_clust_7="13000.00000" pt_clust_8="13000.00000" pt_clust_9="42.99425"></scales>
<clustering>
<clus scale="   42.994">  1  9  2 -1</clus>
<clus scale="   91.028">  5  6 -1 -1</clus>
<clus scale="   92.468">  7  8 -1 -1</clus>
<clus scale="  106.806">  2  5  1 -1</clus>
<clus scale="  106.806">  2  5  1 -1</clus>
</clustering>
</event>
<event>
 9    1  0.1612788E-005  0.1286949E+03  0.7546771E-02  0.1237178E+00
          1   -1    0    0  502    0  0.00000000000E+00  0.00000000000E+00  0.23848578816E+03  0.23848578816E+03  0.00000000000E+00 0. -1.
         -1   -1    0    0    0  501 -0.00000000000E+00 -0.00000000000E+00 -0.17889903667E+03  0.17889903667E+03  0.00000000000E+00 0.  1.
         23    2    1    2    0    0 -0.70026145704E+02 -0.66492685522E+02 -0.30316045941E+02  0.13795853922E+03  0.93747307121E+02 0.  0.
         23    2    1    2    0    0  0.49063421643E+02  0.64671094343E+01  0.14745402742E+03  0.19366703155E+03  0.11539144708E+03 0.  0.
        -11    1    3    3    0    0 -0.66464927876E+02 -0.92331456801E+01  0.99930654229E+01  0.67843194009E+02  0.00000000000E+00 0. -1.
         11    1    3    3    0    0 -0.35612178276E+01 -0.57259539841E+02 -0.40309111364E+02  0.70115345212E+02  0.00000000000E+00 0.  1.
        -11    1    4    4    0    0  0.13050303213E+02  0.55479963032E+02  0.10507667573E+03  0.11953846450E+03  0.00000000000E+00 0. -1.
         11    1    4    4    0    0  0.36013118431E+02 -0.49012853598E+02  0.42377351681E+02  0.74128567047E+02  0.00000000000E+00 0.  1.
         21    1    1    2  502  501  0.20962724061E+02  0.60025576087E+02 -0.57551229986E+02  0.85759254064E+02  0.00000000000E+00 0. -1.
<scales pt_clust_5="13000.00000" pt_clust_6="13000.00000" pt_clust_7="13000.00000" pt_clust_8="13000.00000" pt_clust_9="63.58070"></scales>
<clustering>
<clus scale="   63.581">  2  9  1 -1</clus>
<clus scale="   93.747">  5  6 -1 -1</clus>
<clus scale="  109.708">  2  5  1 -1</clus>
<clus scale="  115.391">  7  8 -1 -1</clus>
<clus scale="  128.695">  1  5  2 -1</clus>
</clustering>
</event>
<event>
 9    1  0.1612788E-005  0.1278118E+03  0.7546771E-02  0.1248277E+00
         -2   -1    0    0    0  501 -0.00000000000E+00  0.00000000000E+00  0.78692645634E+03  0.78692645634E+03  0.00000000000E+00 0.  1.
          2   -1    0    0  502    0  0.00000000000E+00 -0.00000000000E+00 -0.30885357787E+02  0.30885357787E+02  0.00000000000E+00 0. -1.
         23    2    1    2    0    0 -0.64143088536E+01 -0.73862271809E+02  0.28114159307E+03  0.30463273585E+03  0.90905059501E+02 0.  0.
         23    2    1    2    0    0 -0.32618387571E+02 -0.22404344254E+02  0.19258689466E+03  0.21236148739E+03  0.80260672073E+02 0.  0.
        -13    1    4    4    0    0  0.35972549810E+01 -0.38003280520E+02  0.14798002936E+03  0.15282433924E+03  0.00000000000E+00 0. -1.
         13    1    4    4    0    0 -0.36215642552E+02  0.15598936266E+02  0.44606865297E+02  0.59537148149E+02  0.00000000000E+00 0.  1.
        -13    1    3    3    0    0 -0.42938943826E+02 -0.48842722632E+02  0.21816453292E+03  0.22765132961E+03  0.00000000000E+00 0.  1.
         13    1    3    3    0    0  0.36524634973E+02 -0.25019549177E+02  0.62977060148E+02  0.76981406234E+02  0.00000000000E+00 0. -1.
         21    1    1    2  502  501  0.39032696424E+02  0.96266616063E+02  0.28231261083E+03  0.30081759089E+03  0.00000000000E+00 0. -1.
<scales pt_clust_5="13000.00000" pt_clust_6="13000.00000" pt_clust_7="13000.00000" pt_clust_8="13000.00000" pt_clust_9="89.84494"></scales>
<clustering>
<clus scale="   80.261">  5  6 -1 -1</clus>
<clus scale="   89.486">  2  5  1 -1</clus>
<clus scale="   89.845">  2  9  1 -1</clus>
<clus scale="   90.905">  7  8 -1 -1</clus>
<clus scale="   89.486">  2  5  1 -1</clus>
</clustering>
</event>
<event>
 9    1  0.1612788E-005  0.1210618E+03  0.7546771E-02  0.1241508E+00
          3   -1    0    0  502    0  0.00000000000E+00  0.00000000000E+00  0.34878619708E+03  0.34878619708E+03  0.00000000000E+00 0. -1.
         -3   -1    0    0    0  501 -0.00000000000E+00 -0.00000000000E+00 -0.59979945599E+02  0.59979945599E+02  0.00000000000E+00 0.  1.
         23    2    1    2    0    0  0.43631025148E+02 -0.78581796988E+02  0.83761969651E+02  0.15346090122E+03  0.91953333109E+02 0.  0.
         23    2    1    2    0    0 -0.26456568679E+02  0.68133145975E+02  0.20347847786E+03  0.23514121396E+03  0.92443625773E+02 0.  0.
        -11    1    3    3    0    0  0.24691159581E+02  0.12591501512E+02 -0.72475219980E+00  0.27725882087E+02  0.00000000000E+00 0.  1.
         11    1    3    3    0    0  0.18939865567E+02 -0.91173298500E+02  0.84486721851E+02  0.12573501913E+03  0.00000000000E+00 0. -1.
        -11    1    4    4    0    0 -0.42795942173E+02  0.27973210879E+02  0.17723198484E+03  0.18445912729E+03  0.00000000000E+00 0. -1.
         11    1    4    4    0    0  0.16339373494E+02  0.40159935096E+02  0.26246493021E+02  0.50682086668E+02  0.00000000000E+00 0.  1.
         21    1    1    2  502  501 -0.17174456469E+02  0.10448651013E+02  0.15658039766E+01  0.20164027502E+02  0.00000000000E+00 0.  1.
<scales pt_clust_5="13000.00000" pt_clust_6="13000.00000" pt_clust_7="13000.00000" pt_clust_8="13000.00000" pt_clust_9="20.10314"></scales>
<clustering>
<clus scale="   20.103">  2  9  1 -1</clus>
<clus scale="   91.953">  5  6 -1 -1</clus>
<clus scale="   92.444">  7  8 -1 -1</clus>
<clus scale="  120.688">  2  5  1 -1</clus>
<clus scale="  121.062">  1  5  2 -1</clus>
</clustering>
</event>
<event>
 9    1  0.1612788E-005  0.1065455E+03  0.7546771E-02  0.1267212E+00
         -1   -1    0    0    0  501 -0.00000000000E+00  0.00000000000E+00  0.80762205490E+02  0.80762205490E+02  0.00000000000E+00 0.  1.
          1   -1    0    0  502    0  0.00000000000E+00 -0.00000000000E+00 -0.42669944161E+03  0.42669944161E+03  0.00000000000E+00 0. -1.
         23    2    1    2    0    0  0.65489658246E+01  0.35069056062E+02  0.25247878350E+02  0.10018036533E+03  0.90143899355E+02 0.  0.
         23    2    1    2    0    0 -0.11157464351E+02 -0.57867961064E+02 -0.36836828028E+03  0.38385132481E+03  0.90407188397E+02 0.  0.
        -13    1    4    4    0    0 -0.22216329060E+01  0.19877178194E+02 -0.26844625516E+02  0.33476436262E+02  0.00000000000E+00 0.  1.
         13    1    4    4    0    0 -0.89358314450E+01 -0.77745139258E+02 -0.34152365477E+03  0.35037488855E+03  0.00000000000E+00 0. -1.
        -13    1    3    3    0    0  0.35040757738E+02 -0.28413434537E+01  0.37292872501E+02  0.51251207545E+02  0.00000000000E+00 0.  1.
         13    1    3    3    0    0 -0.28491791913E+02  0.37910399516E+02 -0.12044994151E+02  0.48929157789E+02  0.00000000000E+00 0. -1.
         21    1    1    2  502  501  0.46084985264E+01  0.22798905002E+02 -0.28168341860E+01  0.23429956953E+02  0.00000000000E+00 0.  1.
<scales pt_clust_5="13000.00000" pt_clust_6="13000.00000" pt_clust_7="13000.00000" pt_clust_8="13000.00000" pt_clust_9="23.26002"></scales>
<clustering>
<clus scale="   23.260">  1  9  2 -1</clus>
<clus scale="   90.144">  7  8 -1 -1</clus>
<clus scale="   90.407">  5  6 -1 -1</clus>
<clus scale="  106.322">  1  7  2 -1</clus>
<clus scale="  106.546">  2  5  1 -1</clus>
</clustering>
</event>
<event>
 9    1  0.1612788E-005  0.1210071E+03  0.7546771E-02  0.1241899E+00
          1   -1    0    0  502    0  0.00000000000E+00  0.00000000000E+00  0.39605121883E+03  0.39605121883E+03  0.00000000000E+00 0. -1.
         -1   -1    0    0    0  501 -0.00000000000E+00 -0.00000000000E+00 -0.88149991546E+02  0.88149991546E+02  0.00000000000E+00 0.  1.
         23    2    1    2    0    0  0.48583991963E+02 -0.27880188410E+02  0.16210944483E+02  0.10748254994E+03  0.90288397040E+02 0.  0.
         23    2    1    2    0    0 -0.87365590341E+02 -0.44706261958E+01  0.29986084631E+03  0.32555865959E+03  0.91756094118E+02 0.  0.
        -11    1    4    4    0    0 -0.71584892887E+01 -0.20770911118E+02  0.95939906857E+01  0.23973305463E+02  0.00000000000E+00 0.  1.
         11    1    4    4    0    0 -0.80207101052E+02  0.16300284922E+02  0.29026685562E+03  0.30158535412E+03  0.00000000000E+00 0. -1.
        -13    1    3    3    0    0  0.19200517216E+02 -0.69768905298E+01 -0.37550295203E+02  0.42747649440E+02  0.00000000000E+00 0.  1.
         13    1    3    3    0    0  0.29383474748E+02 -0.20903297880E+02  0.53761239686E+02  0.64734900502E+02  0.00000000000E+00 0. -1.
         21    1    1    2  502  501  0.38781598377E+02  0.32350814605E+02 -0.81705635119E+01  0.51160000845E+02  0.00000000000E+00 0. -1.
<scales pt_clust_5="13000.00000" pt_clust_6="13000.00000" pt_clust_7="13000.00000" pt_clust_8="13000.00000" pt_clust_9="50.50334"></scales>
<clustering>
<clus scale="   50.503">  2  9  1 -1</clus>
<clus scale="   90.288">  7  8 -1 -1</clus>
<clus scale="   91.756">  5  6 -1 -1</clus>
<clus scale="  119.898">  2  7  1 -1</clus>
<clus scale="  121.007">  1  5  2 -1</clus>
</clustering>
</event>
<event>
 9    1  0.1612788E-005  0.1218306E+03  0.7546771E-02  0.1240898E+00
         -1   -1    0    0    0  501 -0.00000000000E+00  0.00000000000E+00  0.23750310627E+03  0.23750310627E+03  0.00000000000E+00 0.  1.
          1   -1    0    0  502    0  0.00000000000E+00 -0.00000000000E+00 -0.11380117306E+03  0.11380117306E+03  0.00000000000E+00 0. -1.
         23    2    1    2    0    0  0.42579675316E+02 -0.74535456906E+02  0.83027204564E+02  0.14863944236E+03  0.88496350436E+02 0.  0.
         23    2    1    2    0    0 -0.18856194245E+02  0.77583791471E+02 -0.32710260735E+02  0.12548030119E+03  0.91107321706E+02 0.  0.
        -11    1    3    3    0    0 -0.23163616187E+02 -0.20359988821E+02  0.46844953828E+02  0.56085042202E+02  0.00000000000E+00 0.  1.
         11    1    3    3    0    0  0.65743291503E+02 -0.54175468085E+02  0.36182250736E+02  0.92554400156E+02  0.00000000000E+00 0. -1.
        -11    1    4    4    0    0 -0.28412101449E+02 -0.19458584891E+01  0.15060260163E+02  0.32215606624E+02  0.00000000000E+00 0.  1.
         11    1    4    4    0    0  0.95559072036E+01  0.79529649960E+02 -0.47770520898E+02  0.93264694564E+02  0.00000000000E+00 0. -1.
         21    1    1    2  502  501 -0.23723481071E+02 -0.30483345652E+01  0.73384989384E+02  0.77184535787E+02  0.00000000000E+00 0.  1.
<scales pt_clust_5="13000.00000" pt_clust_6="13000.00000" pt_clust_7="13000.00000" pt_clust_8="13000.00000" pt_clust_9="23.91853"></scales>
<clustering>
<clus scale="   23.919">  1  9  2 -1</clus>
<clus scale="   88.496">  5  6 -1 -1</clus>
<clus scale="   91.107">  7  8 -1 -1</clus>
<clus scale="  119.891">  1  5  2 -1</clus>
<clus scale="  121.831">  2  5  1 -1</clus>
</clustering>
</event>
<event>
 9    1  0.1612788E-005  0.1067269E+03  0.7546771E-02  0.1270420E+00
         -1   -1    0    0    0  501 -0.00000000000E+00  0.00000000000E+00  0.26320075549E+03  0.26320075549E+03  0.00000000000E+00 0.  1.
          1   -1    0    0  502    0  0.00000000000E+00 -0.00000000000E+00 -0.67106622536E+02  0.67106622536E+02  0.00000000000E+00 0. -1.
         23    2    1    2    0    0  0.11831421324E+02  0.45903705851E+02  0.16862402244E+03  0.20089046264E+03  0.98365564576E+02 0.  0.
         23    2    1    2    0    0 -0.25967754097E+02 -0.19183428109E+02  0.17219668234E+02  0.97497004456E+02  0.90370463853E+02 0.  0.
        -11    1    3    3    0    0  0.23264061030E+01  0.68686875712E+02  0.65808485638E+02  0.95152802599E+02  0.00000000000E+00 0.  1.
         11    1    3    3    0    0  0.95050152208E+01 -0.22783169861E+02  0.10281553680E+03  0.10573766004E+03  0.00000000000E+00 0. -1.
        -13    1    4    4    0    0 -0.42812416996E+02 -0.44147314859E+01  0.44693437629E+02  0.62047532346E+02  0.00000000000E+00 0.  1.
         13    1    4    4    0    0  0.16844662899E+02 -0.14768696624E+02 -0.27473769395E+02  0.35449472110E+02  0.00000000000E+00 0. -1.
         21    1    1    2  502  501  0.14136332773E+02 -0.26720277741E+02  0.10250442282E+02  0.31919910930E+02  0.00000000000E+00 0. -1.
<scales pt_clust_5="13000.00000" pt_clust_6="13000.00000" pt_clust_7="13000.00000" pt_clust_8="13000.00000" pt_clust_9="30.22928"></scales>
<clustering>
<clus scale="   30.229">  2  9  1 -1</clus>
<clus scale="   90.370">  7  8 -1 -1</clus>
<clus scale="   98.366">  5  6 -1 -1</clus>
<clus scale="   99.407">  2  7  1 -1</clus>
<clus scale="   30.229">  2  5  1 -1</clus>
</clustering>
</event>
<event>
 9    1  0.1612788E-005  0.1554385E+03  0.7546771E-02  0.1194108E+00
         -2   -1    0    0    0  501 -0.00000000000E+00  0.00000000000E+00  0.54338561453E+02  0.54338561453E+02  0.00000000000E+00 0.  1.
          2   -1    0    0  502    0  0.00000000000E+00 -0.00000000000E+00 -0.85843748199E+03  0.85843748199E+03  0.00000000000E+00 0. -1.
         23    2    1    2    0    0  0.53047185559E+01  0.67939003655E+02 -0.13116200892E+03  0.17468023356E+03  0.93090617983E+02 0.  0.
         23    2    1    2    0    0 -0.35906340995E+02 -0.16417172852E+03 -0.52301487862E+03  0.55733681949E+03  0.94011410654E+02 0.  0.
        -11    1    4    4    0    0  0.22684506583E+02 -0.53065351988E+02 -0.25354090582E+03  0.26002597821E+03  0.00000000000E+00 0.  1.
         11    1    4    4    0    0 -0.58590847578E+02 -0.11110637653E+03 -0.26947397280E+03  0.29731084128E+03  0.00000000000E+00 0. -1.
        -13    1    3    3    0    0  0.34082862923E+02  0.47748622984E+02 -0.26687833159E+02  0.64450081308E+02  0.00000000000E+00 0.  1.
         13    1    3    3    0    0 -0.28778144367E+02  0.20190380671E+02 -0.10447417576E+03  0.11023015225E+03  0.00000000000E+00 0. -1.
         21    1    1    2  502  501  0.30601622439E+02  0.96232724861E+02 -0.14992203300E+03  0.18075899039E+03  0.00000000000E+00 0.  1.
<scales pt_clust_5="13000.00000" pt_clust_6="13000.00000" pt_clust_7="13000.00000" pt_clust_8="13000.00000" pt_clust_9="100.98117"></scales>
<clustering>
<clus scale="   93.091">  7  8 -1 -1</clus>
<clus scale="   94.011">  5  6 -1 -1</clus>
<clus scale="  100.981">  1  9  2 -1</clus>
<clus scale="  154.883">  1  7  2 -1</clus>
<clus scale="  155.438">  2  5  1 -1</clus>
</clustering>
</event>
<event>
 9    1  0.1612788E-005  0.1995513E+03  0.7546771E-02  0.1150286E+00
         -1   -1    0    0    0  501 -0.00000000000E+00  0.00000000000E+00  0.14076124670E+03  0.14076124670E+03  0.00000000000E+00 0.  1.
          1   -1    0    0  502    0  0.00000000000E+00 -0.00000000000E+00 -0.53095896952E+03  0.53095896952E+03  0.00000000000E+00 0. -1.
         23    2    1    2    0    0  0.49869971868E+02  0.14436737347E+03  0.11318172986E+02  0.17745692134E+03  0.89632054967E+02 0.  0.
         23    2    1    2    0    0 -0.10828274821E+03 -0.15096427953E+03 -0.37793072925E+03  0.43092427301E+03  0.91371361534E+02 0.  0.
        -11    1    3    3    0    0  0.88795567119E+01  0.78310856529E+02 -0.35788105910E+02  0.86557641501E+02  0.00000000000E+00 0. -1.
         11    1    3    3    0    0  0.40990415156E+02  0.66056516938E+02  0.47106278895E+02  0.90899279843E+02  0.00000000000E+00 0.  1.
        -13    1    4    4    0    0 -0.96420228823E+02 -0.57836535447E+02 -0.22372316116E+03  0.25038765584E+03  0.00000000000E+00 0. -1.
         13    1    4    4    0    0 -0.11862519384E+02 -0.93127744079E+02 -0.15420756809E+03  0.18053661717E+03  0.00000000000E+00 0.  1.
         21    1    1    2  502  501  0.58412776339E+02  0.65969060589E+01 -0.23585166551E+02  0.63339021862E+02  0.00000000000E+00 0.  1.
<scales pt_clust_5="13000.00000" pt_clust_6="13000.00000" pt_clust_7="13000.00000" pt_clust_8="13000.00000" pt_clust_9="58.78411"></scales>
<clustering>
<clus scale="   58.784">  1  9  2 -1</clus>
<clus scale="   89.632">  5  6 -1 -1</clus>
<clus scale="   91.371">  7  8 -1 -1</clus>
<clus scale="  198.761">  1  5  2 -1</clus>
<clus scale="  199.551">  2  5  1 -1</clus>
</clustering>
</event>
<event>
 9    1  0.1612788E-005  0.1311981E+03  0.7546771E-02  0.1226966E+00
          1   -1    0    0  502    0  0.00000000000E+00  0.00000000000E+00  0.27920448528E+03  0.27920448528E+03  0.00000000000E+00 0. -1.
         -1   -1    0    0    0  501 -0.00000000000E+00 -0.00000000000E+00 -0.25483536069E+03  0.25483536069E+03  0.00000000000E+00 0.  1.
         23    2    1    2    0    0 -0.42586561627E+02  0.71423186251E+02 -0.10366384476E+03  0.15863729814E+03  0.86629745957E+02 0.  0.
         23    2    1    2    0    0  0.67240060197E+02 -0.68001831201E+02  0.23273681566E+03  0.26778100679E+03  0.91622963774E+02 0.  0.
        -11    1    4    4    0    0  0.76326526549E+02 -0.15326537995E+02  0.15482189157E+03  0.17329298755E+03  0.00000000000E+00 0.  1.
         11    1    4    4    0    0 -0.90864663518E+01 -0.52675293205E+02  0.77914924089E+02  0.94488019245E+02  0.00000000000E+00 0. -1.
        -13    1    3    3    0    0  0.24873153699E+02  0.35990990742E+02 -0.41438281229E+02  0.60259076833E+02  0.00000000000E+00 0. -1.
         13    1    3    3    0    0 -0.67459715326E+02  0.35432195509E+02 -0.62225563533E+02  0.98378221306E+02  0.00000000000E+00 0.  1.
         21    1    1    2  502  501 -0.24653498570E+02 -0.34213550506E+01 -0.10470384631E+03  0.10762154104E+03  0.00000000000E+00 0.  1.
<scales pt_clust_5="13000.00000" pt_clust_6="13000.00000" pt_clust_7="13000.00000" pt_clust_8="13000.00000" pt_clust_9="24.88977"></scales>
<clustering>
<clus scale="   24.890">  2  9  1 -1</clus>
<clus scale="   86.630">  7  8 -1 -1</clus>
<clus scale="   91.623">  5  6 -1 -1</clus>
<clus scale="  127.761">  2  7  1 -1</clus>
<clus scale="  131.198">  1  5  2 -1</clus>
</clustering>
</event>
<event>
 9    1  0.1612788E-005  0.1934393E+03  0.7546771E-02  0.1156022E+00
          1   -1    0    0  502    0  0.00000000000E+00  0.00000000000E+00  0.27581665821E+03  0.27581665821E+03  0.00000000000E+00 0. -1.
         -1   -1    0    0    0  501 -0.00000000000E+00 -0.00000000000E+00 -0.16749692207E+03  0.16749692207E+03  0.00000000000E+00 0.  1.
         23    2    1    2    0    0  0.48541770765E+01 -0.17886384484E+03 -0.48332071796E+01  0.20058524351E+03  0.90527575879E+02 0.  0.
         23    2    1    2    0    0  0.66250163685E+01  0.16203996657E+03  0.11705143037E+03  0.22199158285E+03  0.96324368130E+02 0.  0.
        -11    1    4    4    0    0 -0.21312649271E+02  0.14409975281E+03  0.63330695610E+02  0.15883873830E+03  0.00000000000E+00 0.  1.
         11    1    4    4    0    0  0.27937665639E+02  0.17940213762E+02  0.53720734762E+02  0.63152844548E+02  0.00000000000E+00 0. -1.
        -11    1    3    3    0    0  0.52383114150E+01 -0.49463580564E+02 -0.42917701025E+02  0.65696383233E+02  0.00000000000E+00 0.  1.
         11    1    3    3    0    0 -0.38413433854E+00 -0.12940026428E+03  0.38084493845E+02  0.13488886028E+03  0.00000000000E+00 0. -1.
         21    1    1    2  502  501 -0.11479193445E+02  0.16823878271E+02 -0.38984870495E+01  0.20736753929E+02  0.00000000000E+00 0.  1.
<scales pt_clust_5="13000.00000" pt_clust_6="13000.00000" pt_clust_7="13000.00000" pt_clust_8="13000.00000" pt_clust_9="20.36700"></scales>
<clustering>
<clus scale="   20.367">  2  9  1 -1</clus>
<clus scale="   90.528">  7  8 -1 -1</clus>
<clus scale="   96.324">  5  6 -1 -1</clus>
<clus scale="  190.619">  2  7  1 -1</clus>
<clus scale="  193.439">  1  5  2 -1</clus>
</clustering>
</event>
<event>
 9    1  0.1612788E-005  0.9207942E+02  0.7546771E-02  0.1298013E+00
          1   -1    0    0  502    0  0.00000000000E+00  0.00000000000E+00  0.19839205129E+03  0.19839205129E+03  0.00000000000E+00 0. -1.
         -1   -1    0    0    0  501 -0.00000000000E+00 -0.00000000000E+00 -0.64079318341E+02  0.64079318341E+02  0.00000000000E+00 0.  1.
         23    2    1    2    0    0 -0.20130243468E+01  0.76640275556E+01  0.53050839473E+02  0.10572301902E+03  0.91105299495E+02 0.  0.
         23    2    1    2    0    0  0.18745721478E+02  0.10677738052E+02  0.90402589901E+02  0.13029167187E+03  0.91311967098E+02 0.  0.
        -13    1    3    3    0    0  0.45746745880E+01 -0.40752591418E+02  0.14545124855E+02  0.43511630766E+02  0.00000000000E+00 0.  1.
         13    1    3    3    0    0 -0.65876989348E+01  0.48416618973E+02  0.38505714618E+02  0.62211388252E+02  0.00000000000E+00 0. -1.
        -13    1    4    4    0    0 -0.25041312824E+02  0.13156110206E+02 -0.16399651683E+01  0.28334432577E+02  0.00000000000E+00 0.  1.
         13    1    4    4    0    0  0.43787034302E+02 -0.24783721546E+01  0.92042555069E+02  0.10195723930E+03  0.00000000000E+00 0. -1.
         21    1    1    2  502  501 -0.16732697131E+02 -0.18341765607E+02 -0.91406964235E+01  0.26456678741E+02  0.00000000000E+00 0.  1.
<scales pt_clust_5="13000.00000" pt_clust_6="13000.00000" pt_clust_7="13000.00000" pt_clust_8="13000.00000" pt_clust_9="24.82748"></scales>
<clustering>
<clus scale="   24.827">  2  9  1 -1</clus>
<clus scale="   91.105">  5  6 -1 -1</clus>
<clus scale="   91.312">  7  8 -1 -1</clus>
<clus scale="   91.874">  2  5  1 -1</clus>
<clus scale="   92.079">  1  5  2 -1</clus>
</clustering>
</event>
<event>
 9    1  0.1612788E-005  0.1212059E+03  0.7546771E-02  0.1243930E+00
         -1   -1    0    0    0  501 -0.00000000000E+00  0.00000000000E+00  0.63624575094E+03  0.63624575094E+03  0.00000000000E+00 0.  1.
          1   -1    0    0  502    0  0.00000000000E+00 -0.00000000000E+00 -0.21120443262E+03  0.21120443262E+03  0.00000000000E+00 0. -1.
         23    2    1    2    0    0 -0.72225928037E+02 -0.68526845715E+02  0.56580012416E+03  0.58055899066E+03  0.83704527186E+02 0.  0.
         23    2    1    2    0    0  0.60546957487E+02  0.48337828568E+02 -0.18263500108E+03  0.21895779646E+03  0.92652540594E+02 0.  0.
        -11    1    4    4    0    0  0.35619361743E+02  0.47989330894E+02 -0.18451954411E+03  0.19395663683E+03  0.00000000000E+00 0. -1.
         11    1    4    4    0    0  0.24927595743E+02  0.34849767380E+00  0.18845430351E+01  0.25001159626E+02  0.00000000000E+00 0.  1.
        -13    1    3    3    0    0 -0.59764618378E+01 -0.63122952947E+02  0.26023294334E+03  0.26784587001E+03  0.00000000000E+00 0.  1.
         13    1    3    3    0    0 -0.66249466199E+02 -0.54038927684E+01  0.30556718082E+03  0.31271312064E+03  0.00000000000E+00 0. -1.
         21    1    1    2  502  501  0.11678970550E+02  0.20189017147E+02  0.41876195244E+02  0.47933396443E+02  0.00000000000E+00 0.  1.
<scales pt_clust_5="13000.00000" pt_clust_6="13000.00000" pt_clust_7="13000.00000" pt_clust_8="13000.00000" pt_clust_9="23.32370"></scales>
<clustering>
<clus scale="   23.324">  1  9  2 -1</clus>
<clus scale="   83.705">  7  8 -1 -1</clus>
<clus scale="   92.653">  5  6 -1 -1</clus>
<clus scale="  114.511">  1  7  2 -1</clus>
<clus scale="  121.206">  2  5  1 -1</clus>
</clustering>
</event>
<event>
 9    1  0.1612788E-005  0.1547811E+03  0.7546771E-02  0.1195765E+00
         -1   -1    0    0    0  501 -0.00000000000E+00  0.00000000000E+00  0.20272564757E+03  0.20272564757E+03  0.00000000000E+00 0.  1.
          1   -1    0    0  502    0  0.00000000000E+00 -0.00000000000E+00 -0.20779114416E+03  0.20779114416E+03  0.00000000000E+00 0. -1.
         23    2    1    2    0    0  0.12111264922E+03 -0.20645293513E+02  0.10482194001E+03  0.18315830436E+03  0.86399209509E+02 0.  0.
         23    2    1    2    0    0 -0.13209831411E+03 -0.13777375147E+02 -0.98736340776E+02  0.18954378272E+03  0.92402380487E+02 0.  0.
        -11    1    3    3    0    0  0.68519080317E+02  0.23199910390E+02  0.21822585630E+02  0.75560078435E+02  0.00000000000E+00 0. -1.
         11    1    3    3    0    0  0.52593568907E+02 -0.43845203903E+02  0.82999354375E+02  0.10759822593E+03  0.00000000000E+00 0.  1.
        -11    1    4    4    0    0 -0.66314639043E+02 -0.20498477247E+02  0.15394640147E+01  0.69427580040E+02  0.00000000000E+00 0.  1.
         11    1    4    4    0    0 -0.65783675068E+02  0.67211020998E+01 -0.10027580479E+03  0.12011620268E+03  0.00000000000E+00 0. -1.
         21    1    1    2  502  501  0.10985664887E+02  0.34422668659E+02 -0.11151095819E+02  0.37814704661E+02  0.00000000000E+00 0.  1.
<scales pt_clust_5="13000.00000" pt_clust_6="13000.00000" pt_clust_7="13000.00000" pt_clust_8="13000.00000" pt_clust_9="36.13316"></scales>
<clustering>
<clus scale="   36.133">  2  9  1 -1</clus>
<clus scale="   86.399">  5  6 -1 -1</clus>
<clus scale="   92.402">  7  8 -1 -1</clus>
<clus scale="  151.274">  1  5  2 -1</clus>
<clus scale="   36.133">  2  5  1 -1</clus>
</clustering>
</event>
<event>
 9    1  0.1612788E-005  0.2038876E+03  0.7546771E-02  0.1146778E+00
          2   -1    0    0  502    0  0.00000000000E+00  0.00000000000E+00  0.11689844564E+04  0.11689844564E+04  0.00000000000E+00 0. -1.
         -2   -1    0    0    0  501 -0.00000000000E+00 -0.00000000000E+00 -0.52089567069E+02  0.52089567069E+02  0.00000000000E+00 0.  1.
         23    2    1    2    0    0  0.14989907787E+03  0.32646211746E+02  0.36359236701E+03  0.40453034877E+03  0.88937534514E+02 0.  0.
         23    2    1    2    0    0 -0.20199161516E+03 -0.40943599682E+02  0.71908130117E+03  0.75366624577E+03  0.91966849299E+02 0.  0.
        -11    1    3    3    0    0  0.51235903360E+02 -0.28548507570E+02  0.91259907897E+02  0.10848274456E+03  0.00000000000E+00 0.  1.
         11    1    3    3    0    0  0.98663174505E+02  0.61194719316E+02  0.27233245911E+03  0.29604760421E+03  0.00000000000E+00 0. -1.
        -11    1    4    4    0    0 -0.56255222333E+02 -0.35467913163E+02  0.36013850606E+03  0.36622720605E+03  0.00000000000E+00 0. -1.
         11    1    4    4    0    0 -0.14573639283E+03 -0.54756865188E+01  0.35894279511E+03  0.38743903972E+03  0.00000000000E+00 0.  1.
         21    1    1    2  502  501  0.52092537299E+02  0.82973879359E+01  0.34221221115E+02  0.62877428887E+02  0.00000000000E+00 0. -1.
<scales pt_clust_5="13000.00000" pt_clust_6="13000.00000" pt_clust_7="13000.00000" pt_clust_8="13000.00000" pt_clust_9="52.74921"></scales>
<clustering>
<clus scale="   52.749">  2  9  1 -1</clus>
<clus scale="   88.938">  5  6 -1 -1</clus>
<clus scale="   91.967">  7  8 -1 -1</clus>
<clus scale="  202.539">  2  5  1 -1</clus>
<clus scale="  203.888">  1  5  2 -1</clus>
</clustering>
</event>
<event>
 9    1  0.1612788E-005  0.1245496E+03  0.7546771E-02  0.1235805E+00
          1   -1    0    0  502    0  0.00000000000E+00  0.00000000000E+00  0.25692784271E+03  0.25692784271E+03  0.00000000000E+00 0. -1.
         -1   -1    0    0    0  501 -0.00000000000E+00 -0.00000000000E+00 -0.76956626344E+02  0.76956626344E+02  0.00000000000E+00 0.  1.
         23    2    1    2    0    0 -0.34691273545E+02 -0.95100760536E+02  0.91988326222E+02  0.16376753755E+03  0.90057287759E+02 0.  0.
         23    2    1    2    0    0  0.31685730334E+02  0.65153939703E+02  0.69709362673E+02  0.13490660384E+03  0.89952071406E+02 0.  0.
        -11    1    4    4    0    0 -0.83217346812E+01  0.58181564558E+02  0.73511561125E+02  0.94118517527E+02  0.00000000000E+00 0. -1.
         11    1    4    4    0    0  0.40007465016E+02  0.69723751451E+01 -0.38021984519E+01  0.40788086315E+02  0.00000000000E+00 0.  1.
        -13    1    3    3    0    0  0.17680586812E+02 -0.78268418711E+02  0.49751254991E+02  0.94412583328E+02  0.00000000000E+00 0.  1.
         13    1    3    3    0    0 -0.52371860357E+02 -0.16832341825E+02  0.42237071231E+02  0.69354954219E+02  0.00000000000E+00 0. -1.
         21    1    1    2  502  501  0.30055432106E+01  0.29946820833E+02  0.18273527469E+02  0.35210327663E+02  0.00000000000E+00 0.  1.
<scales pt_clust_5="13000.00000" pt_clust_6="13000.00000" pt_clust_7="13000.00000" pt_clust_8="13000.00000" pt_clust_9="30.09727"></scales>
<clustering>
<clus scale="   30.097">  2  9  1 -1</clus>
<clus scale="   89.952">  5  6 -1 -1</clus>
<clus scale="   90.057">  7  8 -1 -1</clus>
<clus scale="  124.474">  1  5  2 -1</clus>
<clus scale="  124.474">  1  5  2 -1</clus>
</clustering>
</event>
<event>
 9    1  0.1612788E-005  0.1179043E+03  0.7546771E-02  0.1246953E+00
         -2   -1    0    0    0  501 -0.00000000000E+00  0.00000000000E+00  0.85535782829E+03  0.85535782829E+03  0.00000000000E+00 0.  1.
          2   -1    0    0  502    0  0.00000000000E+00 -0.00000000000E+00 -0.22956561964E+02  0.22956561964E+02  0.00000000000E+00 0. -1.
         23    2    1    2    0    0  0.25822532792E+02  0.89739398527E+02  0.41415393826E+03  0.43446992888E+03  0.92307484380E+02 0.  0.
         23    2    1    2    0    0 -0.45810290300E+01 -0.60444057315E+02  0.27287406185E+03  0.29403523259E+03  0.91224966345E+02 0.  0.
        -11    1    3    3    0    0  0.77878866590E+00  0.10112180213E+03  0.35690403842E+03  0.37095379499E+03  0.00000000000E+00 0.  1.
         11    1    3    3    0    0  0.25043744126E+02 -0.11382403607E+02  0.57249899843E+02  0.63516133885E+02  0.00000000000E+00 0. -1.
        -11    1    4    4    0    0 -0.36890569239E+02  0.19505877109E+01  0.12449672003E+03  0.12986205061E+03  0.00000000000E+00 0. -1.
         11    1    4    4    0    0  0.32309540209E+02 -0.62394645026E+02  0.14837734182E+03  0.16417318198E+03  0.00000000000E+00 0.  1.
         21    1    1    2  502  501 -0.21241503762E+02 -0.29295341212E+02  0.14537326622E+03  0.14980922879E+03  0.00000000000E+00 0. -1.
<scales pt_clust_5="13000.00000" pt_clust_6="13000.00000" pt_clust_7="13000.00000" pt_clust_8="13000.00000" pt_clust_9="36.18589"></scales>
<clustering>
<clus scale="   36.186">  1  9  2 -1</clus>
<clus scale="   91.225">  7  8 -1 -1</clus>
<clus scale="   92.307">  5  6 -1 -1</clus>
<clus scale="  117.059">  2  7  1 -1</clus>
<clus scale="  117.059">  2  5  1 -1</clus>
</clustering>
</event>
<event>
 9    1  0.1612788E-005  0.9569129E+02  0.7546771E-02  0.1290242E+00
         -4   -1    0    0    0  501 -0.00000000000E+00  0.00000000000E+00  0.39292432916E+03  0.39292432916E+03  0.00000000000E+00 0.  1.
          4   -1    0    0  502    0  0.00000000000E+00 -0.00000000000E+00 -0.38237426137E+02  0.38237426137E+02  0.00000000000E+00 0. -1.
         23    2    1    2    0    0 -0.67182525164E+01  0.35218818733E+02  0.18115375142E+03  0.20540943663E+03  0.89949179494E+02 0.  0.
         23    2    1    2    0    0  0.31268736479E+02 -0.95093432187E+01  0.79590973159E+02  0.12530911937E+03  0.91101541702E+02 0.  0.
        -11    1    4    4    0    0  0.34920230389E+02  0.36386310996E+02  0.36557936916E+02  0.62288593417E+02  0.00000000000E+00 0. -1.
         11    1    4    4    0    0 -0.36514939102E+01 -0.45895654215E+02  0.43033036243E+02  0.63020525957E+02  0.00000000000E+00 0.  1.
        -13    1    3    3    0    0  0.39110468226E+02  0.31684218668E+02  0.10538854814E+03  0.11679154300E+03  0.00000000000E+00 0. -1.
         13    1    3    3    0    0 -0.45828720743E+02  0.35346000650E+01  0.75765203286E+02  0.88617893631E+02  0.00000000000E+00 0.  1.
         21    1    1    2  502  501 -0.24550483963E+02 -0.25709475515E+02  0.93942178442E+02  0.10044319929E+03  0.00000000000E+00 0.  1.
<scales pt_clust_5="13000.00000" pt_clust_6="13000.00000" pt_clust_7="13000.00000" pt_clust_8="13000.00000" pt_clust_9="35.54861"></scales>
<clustering>
<clus scale="   35.549">  1  9  2 -1</clus>
<clus scale="   89.949">  7  8 -1 -1</clus>
<clus scale="   91.102">  5  6 -1 -1</clus>
<clus scale="   94.595">  1  7  2 -1</clus>
<clus scale="   95.691">  2  5  1 -1</clus>
</clustering>
</event>
<event>
 9    1  0.1612788E-005  0.2198322E+03  0.7546771E-02  0.1134298E+00
          1   -1    0    0  502    0  0.00000000000E+00  0.00000000000E+00  0.72903161918E+03  0.72903161918E+03  0.00000000000E+00 0. -1.
         -1   -1    0    0    0  501 -0.00000000000E+00 -0.00000000000E+00 -0.30741844525E+03  0.30741844525E+03  0.00000000000E+00 0.  1.
         23    2    1    2    0    0 -0.12401298557E+03 -0.11952627238E+03 -0.47658692544E+02  0.19991293642E+03  0.89599557994E+02 0.  0.
         23    2    1    2    0    0  0.16498979557E+03  0.12221236610E+03  0.63131189606E+03  0.66937467634E+03  0.85733611503E+02 0.  0.
        -11    1    3    3    0    0 -0.36271905752E+02 -0.17283630551E+02 -0.51266021854E+02  0.65135090609E+02  0.00000000000E+00 0. -1.
         11    1    3    3    0    0 -0.87741079821E+02 -0.10224264183E+03  0.36073293105E+01  0.13477784581E+03  0.00000000000E+00 0.  1.
        -11    1    4    4    0    0  0.10063501689E+03  0.26325720997E+02  0.24490497509E+03  0.26608062131E+03  0.00000000000E+00 0.  1.
         11    1    4    4    0    0  0.64354778681E+02  0.95886645106E+02  0.38640692097E+03  0.40329405503E+03  0.00000000000E+00 0. -1.
         21    1    1    2  502  501 -0.40976810002E+02 -0.26860937267E+01 -0.16204002959E+03  0.16716245166E+03  0.00000000000E+00 0.  1.
<scales pt_clust_5="13000.00000" pt_clust_6="13000.00000" pt_clust_7="13000.00000" pt_clust_8="13000.00000" pt_clust_9="41.06475"></scales>
<clustering>
<clus scale="   41.065">  2  9  1 -1</clus>
<clus scale="   85.734">  7  8 -1 -1</clus>
<clus scale="   89.600">  5  6 -1 -1</clus>
<clus scale="  218.285">  1  7  2 -1</clus>
<clus scale="  218.285">  1  5  2 -1</clus>
</clustering>
</event>
<event>
 9    1  0.1612788E-005  0.3587134E+03  0.7546771E-02  0.1059193E+00
          1   -1    0    0  502    0  0.00000000000E+00  0.00000000000E+00  0.13973858727E+04  0.13973858727E+04  0.00000000000E+00 0. -1.
         -1   -1    0    0    0  501 -0.00000000000E+00 -0.00000000000E+00 -0.37908594727E+03  0.37908594727E+03  0.00000000000E+00 0.  1.
         23    2    1    2    0    0 -0.25025456424E+03 -0.18801047758E+03  0.28603526840E+03  0.43418510932E+03  0.93409034799E+02 0.  0.
         23    2    1    2    0    0  0.29742803921E+03  0.20545804407E+03  0.10014442984E+04  0.10684483758E+04  0.89525428788E+02 0.  0.
        -11    1    4    4    0    0  0.22764718831E+03  0.11380087289E+03  0.62702460642E+03  0.67670801537E+03  0.00000000000E+00 0.  1.
         11    1    4    4    0    0  0.69780850906E+02  0.91657171185E+02  0.37441969202E+03  0.39174036039E+03  0.00000000000E+00 0. -1.
        -13    1    3    3    0    0 -0.17309518580E+03 -0.14061919103E+03  0.14308961939E+03  0.26497233707E+03  0.00000000000E+00 0.  1.
         13    1    3    3    0    0 -0.77159378442E+02 -0.47391286542E+02  0.14294564901E+03  0.16921277225E+03  0.00000000000E+00 0. -1.
         21    1    1    2  502  501 -0.47173474968E+02 -0.17447566493E+02 -0.26917964140E+03  0.27383833490E+03  0.00000000000E+00 0.  1.
<scales pt_clust_5="13000.00000" pt_clust_6="13000.00000" pt_clust_7="13000.00000" pt_clust_8="13000.00000" pt_clust_9="50.29666"></scales>
<clustering>
<clus scale="   50.297">  2  9  1 -1</clus>
<clus scale="   89.525">  5  6 -1 -1</clus>
<clus scale="   93.409">  7  8 -1 -1</clus>
<clus scale="  357.722">  1  5  2 -1</clus>
<clus scale="  357.722">  1  5  2 -1</clus>
</clustering>
</event>
<event>
 9    1  0.1612788E-005  0.9404257E+02  0.7546771E-02  0.1293525E+00
         -1   -1    0    0    0  501 -0.00000000000E+00  0.00000000000E+00  0.25998736810E+03  0.25998736810E+03  0.00000000000E+00 0.  1.
          1   -1    0    0  502    0  0.00000000000E+00 -0.00000000000E+00 -0.27315866633E+03  0.27315866633E+03  0.00000000000E+00 0. -1.
         23    2    1    2    0    0  0.17141360864E+02  0.16485118846E+01  0.21929855242E+03  0.23806285868E+03  0.91024863352E+02 0.  0.
         23    2    1    2    0    0  0.15622785387E+02  0.17862224138E+02 -0.23848308784E+03  0.25647855010E+03  0.91345131253E+02 0.  0.
        -13    1    4    4    0    0 -0.37201694238E+02 -0.34667782818E+01 -0.90551644910E+02  0.97957056927E+02  0.00000000000E+00 0.  1.
         13    1    4    4    0    0  0.52824479625E+02  0.21329002419E+02 -0.14793144293E+03  0.15852149317E+03  0.00000000000E+00 0. -1.
        -13    1    3    3    0    0  0.38207964245E+02 -0.31955733858E+02  0.90573638357E+02  0.10336634570E+03  0.00000000000E+00 0. -1.
         13    1    3    3    0    0 -0.21066603381E+02  0.33604245743E+02  0.12872491406E+03  0.13469651298E+03  0.00000000000E+00 0.  1.
         21    1    1    2  502  501 -0.32764146251E+02 -0.19510736022E+02  0.60132371942E+01  0.38604625646E+02  0.00000000000E+00 0.  1.
<scales pt_clust_5="13000.00000" pt_clust_6="13000.00000" pt_clust_7="13000.00000" pt_clust_8="13000.00000" pt_clust_9="38.13342"></scales>
<clustering>
<clus scale="   38.133">  1  9  2 -1</clus>
<clus scale="   91.025">  7  8 -1 -1</clus>
<clus scale="   91.345">  5  6 -1 -1</clus>
<clus scale="   93.732">  1  7  2 -1</clus>
<clus scale="   94.043">  2  5  1 -1</clus>
</clustering>
</event>
<event>
 9    1  0.1612788E-005  0.1665428E+03  0.7546771E-02  0.1181842E+00
         -1   -1    0    0    0  501 -0.00000000000E+00  0.00000000000E+00  0.72711743346E+02  0.72711743346E+02  0.00000000000E+00 0.  1.
          1   -1    0    0  502    0  0.00000000000E+00 -0.00000000000E+00 -0.53527228659E+03  0.53527228659E+03  0.00000000000E+00 0. -1.
         23    2    1    2    0    0  0.16053954554E+03  0.25021794034E+02 -0.17336211666E+03  0.25502897249E+03  0.92662384282E+02 0.  0.
         23    2    1    2    0    0 -0.12210911872E+03 -0.18621958300E+02 -0.26408813605E+03  0.30660441242E+03  0.94901569573E+02 0.  0.
        -11    1    3    3    0    0  0.10008514076E+03  0.57776584301E+02 -0.87073389096E+02  0.14469604066E+03  0.00000000000E+00 0.  1.
         11    1    3    3    0    0  0.60454404780E+02 -0.32754790267E+02 -0.86288727559E+02  0.11033293183E+03  0.00000000000E+00 0. -1.
        -13    1    4    4    0    0  0.13795923016E+01 -0.30960235131E+02 -0.64871606652E+02  0.71894122039E+02  0.00000000000E+00 0.  1.
         13    1    4    4    0    0 -0.12348871102E+03  0.12338276831E+02 -0.19921652940E+03  0.23471029038E+03  0.00000000000E+00 0. -1.
         21    1    1    2  502  501 -0.38430426821E+02 -0.63998357340E+01 -0.25110290536E+02  0.46350645021E+02  0.00000000000E+00 0. -1.
<scales pt_clust_5="13000.00000" pt_clust_6="13000.00000" pt_clust_7="13000.00000" pt_clust_8="13000.00000" pt_clust_9="38.95967"></scales>
<clustering>
<clus scale="   38.960">  1  9  2 -1</clus>
<clus scale="   92.662">  5  6 -1 -1</clus>
<clus scale="   94.902">  7  8 -1 -1</clus>
<clus scale="  165.277">  1  5  2 -1</clus>
<clus scale="  166.543">  2  5  1 -1</clus>
</clustering>
</event>
<event>
 9    1  0.1612788E-005  0.1136481E+03  0.7546771E-02  0.1255051E+00
         -1   -1    0    0    0  501 -0.00000000000E+00  0.00000000000E+00  0.20900166026E+03  0.20900166026E+03  0.00000000000E+00 0.  1.
          1   -1    0    0  502    0  0.00000000000E+00 -0.00000000000E+00 -0.12259255596E+03  0.12259255596E+03  0.00000000000E+00 0. -1.
         23    2    1    2    0    0  0.49435179442E+02  0.44887946336E+02  0.79294111113E+02  0.13963235619E+03  0.93546107061E+02 0.  0.
         23    2    1    2    0    0 -0.65826446247E+02 -0.10146534621E+02 -0.50070058900E+02  0.12307231439E+03  0.90574337324E+02 0.  0.
        -11    1    3    3    0    0  0.28044857585E+02  0.55997692729E+02  0.92835822720E+02  0.11198547052E+03  0.00000000000E+00 0.  1.
         11    1    3    3    0    0  0.21390321858E+02 -0.11109746394E+02 -0.13541711607E+02  0.27646885672E+02  0.00000000000E+00 0. -1.
        -13    1    4    4    0    0 -0.21833113740E+02 -0.43171581975E+02 -0.47809311541E+02  0.68016179074E+02  0.00000000000E+00 0. -1.
         13    1    4    4    0    0 -0.43993332507E+02  0.33025047353E+02 -0.22607473594E+01  0.55056135320E+02  0.00000000000E+00 0.  1.
         21    1    1    2  502  501  0.16391266804E+02 -0.34741411714E+02  0.57185052084E+02  0.68889545630E+02  0.00000000000E+00 0. -1.
<scales pt_clust_5="13000.00000" pt_clust_6="13000.00000" pt_clust_7="13000.00000" pt_clust_8="13000.00000" pt_clust_9="38.41405"></scales>
<clustering>
<clus scale="   38.414">  1  9  2 -1</clus>
<clus scale="   90.574">  7  8 -1 -1</clus>
<clus scale="   93.546">  5  6 -1 -1</clus>
<clus scale="  111.215">  2  7  1 -1</clus>
<clus scale="  111.215">  2  5  1 -1</clus>
</clustering>
</event>
<event>
 9    1  0.1612788E-005  0.1342675E+03  0.7546771E-02  0.1221575E+00
          2   -1    0    0  502    0  0.00000000000E+00  0.00000000000E+00  0.49049351835E+03  0.49049351835E+03  0.00000000000E+00 0. -1.
         -2   -1    0    0    0  501 -0.00000000000E+00 -0.00000000000E+00 -0.89384237858E+02  0.89384237858E+02  0.00000000000E+00 0.  1.
         23    2    1    2    0    0 -0.58107464920E+02  0.69688188136E+02  0.26982762601E+02  0.12944149507E+03  0.88284257509E+02 0.  0.
         23    2    1    2    0    0  0.23885908744E+02 -0.10124691328E+03  0.37949839788E+03  0.40357556189E+03  0.89625476714E+02 0.  0.
        -13    1    4    4    0    0  0.41479729367E+02 -0.44206244965E+02  0.93624902574E+02  0.11153646231E+03  0.00000000000E+00 0.  1.
         13    1    4    4    0    0 -0.17593820623E+02 -0.57040668313E+02  0.28587349530E+03  0.29203909958E+03  0.00000000000E+00 0. -1.
        -13    1    3    3    0    0 -0.19088347065E+02  0.70057328440E+02 -0.12783646579E+02  0.73727985743E+02  0.00000000000E+00 0.  1.
         13    1    3    3    0    0 -0.39019117854E+02 -0.36914030427E+00  0.39766409180E+02  0.55713509329E+02  0.00000000000E+00 0. -1.
         21    1    1    2  502  501  0.34221556175E+02  0.31558725142E+02 -0.53718799858E+01  0.46860699250E+02  0.00000000000E+00 0.  1.
<scales pt_clust_5="13000.00000" pt_clust_6="13000.00000" pt_clust_7="13000.00000" pt_clust_8="13000.00000" pt_clust_9="46.55178"></scales>
<clustering>
<clus scale="   46.552">  2  9  1 -1</clus>
<clus scale="   88.284">  7  8 -1 -1</clus>
<clus scale="   89.625">  5  6 -1 -1</clus>
<clus scale="  133.376">  2  7  1 -1</clus>
<clus scale="  134.268">  1  5  2 -1</clus>
</clustering>
</event>
<event>
 9    1  0.1612788E-005  0.3881273E+03  0.7546771E-02  0.1048044E+00
          2   -1    0    0  502    0  0.00000000000E+00  0.00000000000E+00  0.23308486504E+04  0.23308486504E+04  0.00000000000E+00 0.  1.
         -2   -1    0    0    0  501 -0.00000000000E+00 -0.00000000000E+00 -0.94775987817E+02  0.94775987817E+02  0.00000000000E+00 0. -1.
         23    2    1    2    0    0  0.32898776125E+03  0.10009543696E+03  0.47078874865E+03  0.59005080499E+03  0.90916791938E+02 0.  0.
         23    2    1    2    0    0 -0.37662249472E+03 -0.97568292516E+02  0.17313546158E+04  0.17770362251E+04  0.94365590004E+02 0.  0.
        -11    1    3    3    0    0  0.45432069051E+02  0.48631757906E+02  0.10599887777E+03  0.12515942979E+03  0.00000000000E+00 0.  1.
         11    1    3    3    0    0  0.28355569220E+03  0.51463679058E+02  0.36478987087E+03  0.46489137520E+03  0.00000000000E+00 0. -1.
        -11    1    4    4    0    0 -0.14440767543E+03 -0.18025039704E+02  0.83946948359E+03  0.85199031254E+03  0.00000000000E+00 0. -1.
         11    1    4    4    0    0 -0.23221481929E+03 -0.79543252812E+02  0.89188513221E+03  0.92504591260E+03  0.00000000000E+00 0.  1.
         21    1    1    2  502  501  0.47634733462E+02 -0.25271444482E+01  0.33929298177E+02  0.58537608132E+02  0.00000000000E+00 0.  1.
<scales pt_clust_5="13000.00000" pt_clust_6="13000.00000" pt_clust_7="13000.00000" pt_clust_8="13000.00000" pt_clust_9="47.70172"></scales>
<clustering>
<clus scale="   47.702">  2  9  1 -1</clus>
<clus scale="   90.917">  5  6 -1 -1</clus>
<clus scale="   94.366">  7  8 -1 -1</clus>
<clus scale="  387.303">  2  5  1 -1</clus>
<clus scale="  388.127">  1  5  2 -1</clus>
</clustering>
</event>
<event>
 9    1  0.1612788E-005  0.9961876E+02  0.7546771E-02  0.1283873E+00
          1   -1    0    0  502    0  0.00000000000E+00  0.00000000000E+00  0.36624469925E+03  0.36624469925E+03  0.00000000000E+00 0. -1.
         -1   -1    0    0    0  501 -0.00000000000E+00 -0.00000000000E+00 -0.39468038124E+02  0.39468038124E+02  0.00000000000E+00 0.  1.
         23    2    1    2    0    0 -0.28801327472E+02  0.26623062908E+02  0.81050780342E+02  0.13194851938E+03  0.96451432496E+02 0.  0.
         23    2    1    2    0    0  0.20142400900E+02 -0.47214878367E+01  0.21912460128E+03  0.23823558065E+03  0.91173418503E+02 0.  0.
        -11    1    3    3    0    0 -0.19608633072E+02  0.55561114325E+02  0.17414015363E+02  0.61439269584E+02  0.00000000000E+00 0.  1.
         11    1    3    3    0    0 -0.91926944001E+01 -0.28938051417E+02  0.63636764979E+02  0.70509249799E+02  0.00000000000E+00 0. -1.
        -13    1    4    4    0    0  0.54709634941E+02  0.10403973880E+02  0.12608588985E+03  0.13783699956E+03  0.00000000000E+00 0. -1.
         13    1    4    4    0    0 -0.34567234041E+02 -0.15125461717E+02  0.93038711425E+02  0.10039858109E+03  0.00000000000E+00 0.  1.
         21    1    1    2  502  501  0.86589265724E+01 -0.21901575071E+02  0.26601279509E+02  0.35528637344E+02  0.00000000000E+00 0. -1.
<scales pt_clust_5="13000.00000" pt_clust_6="13000.00000" pt_clust_7="13000.00000" pt_clust_8="13000.00000" pt_clust_9="23.55114"></scales>
<clustering>
<clus scale="   23.551">  2  9  1 -1</clus>
<clus scale="   91.173">  7  8 -1 -1</clus>
<clus scale="   94.518">  1  7  2 -1</clus>
<clus scale="   96.451">  5  6 -1 -1</clus>
<clus scale="   94.518">  1  5  2 -1</clus>
</clustering>
</event>
<event>
 9    1  0.1612788E-005  0.1870931E+03  0.7546771E-02  0.1161183E+00
          2   -1    0    0  502    0  0.00000000000E+00  0.00000000000E+00  0.11412151271E+04  0.11412151271E+04  0.00000000000E+00 0. -1.
         -2   -1    0    0    0  501 -0.00000000000E+00 -0.00000000000E+00 -0.75063980840E+02  0.75063980840E+02  0.00000000000E+00 0.  1.
         23    2    1    2    0    0 -0.70006854821E+02 -0.21484287135E+03  0.66854463931E+03  0.71160428399E+03  0.91489360884E+02 0.  0.
         23    2    1    2    0    0  0.86990202255E+01  0.11987138063E+03  0.35180960920E+03  0.38270929409E+03  0.90838217796E+02 0.  0.
        -11    1    3    3    0    0 -0.57108201889E+02 -0.15494834230E+03  0.34720219071E+03  0.38447327181E+03  0.00000000000E+00 0.  1.
         11    1    3    3    0    0 -0.12898652932E+02 -0.59894529049E+02  0.32134244860E+03  0.32713101218E+03  0.00000000000E+00 0. -1.
        -11    1    4    4    0    0 -0.34653284325E+02  0.25630855289E+02  0.14608809412E+03  0.15231389333E+03  0.00000000000E+00 0. -1.
         11    1    4    4    0    0  0.43352304551E+02  0.94240525340E+02  0.20572151508E+03  0.23039540076E+03  0.00000000000E+00 0.  1.
         21    1    1    2  502  501  0.61307834596E+02  0.94971490722E+02  0.45796897775E+02  0.12196552988E+03  0.00000000000E+00 0.  1.
<scales pt_clust_5="13000.00000" pt_clust_6="13000.00000" pt_clust_7="13000.00000" pt_clust_8="13000.00000" pt_clust_9="113.04085"></scales>
<clustering>
<clus scale="   90.838">  7  8 -1 -1</clus>
<clus scale="   91.489">  5  6 -1 -1</clus>
<clus scale="  113.041">  2  9  1 -1</clus>
<clus scale="  186.776">  1  7  2 -1</clus>
<clus scale="  186.776">  1  5  2 -1</clus>
</clustering>
</event>
<event>
 9    1  0.1612788E-005  0.1250965E+03  0.7546771E-02  0.1235077E+00
         -1   -1    0    0    0  501 -0.00000000000E+00  0.00000000000E+00  0.60675125390E+02  0.60675125390E+02  0.00000000000E+00 0.  1.
          1   -1    0    0  502    0  0.00000000000E+00 -0.00000000000E+00 -0.83717429337E+03  0.83717429337E+03  0.00000000000E+00 0. -1.
         23    2    1    2    0    0 -0.97232337200E+02  0.31217569611E+02 -0.43060362546E+03  0.45183840276E+03  0.91158081918E+02 0.  0.
         23    2    1    2    0    0  0.70173495809E+02 -0.13396117727E+02 -0.38093973217E+03  0.39828387202E+03  0.91712527399E+02 0.  0.
        -11    1    4    4    0    0  0.33057325240E+02 -0.44937794140E+02 -0.28800653463E+03  0.29335977244E+03  0.00000000000E+00 0. -1.
         11    1    4    4    0    0  0.37116170568E+02  0.31541676414E+02 -0.92933197542E+02  0.10492409959E+03  0.00000000000E+00 0.  1.
        -13    1    3    3    0    0 -0.38450269036E+02  0.39269849686E+02 -0.85284065081E+02  0.10145893770E+03  0.00000000000E+00 0.  1.
         13    1    3    3    0    0 -0.58782068164E+02 -0.80522800752E+01 -0.34531956037E+03  0.35037946505E+03  0.00000000000E+00 0. -1.
         21    1    1    2  502  501  0.27058841391E+02 -0.17821451884E+02  0.35044189647E+02  0.47727143982E+02  0.00000000000E+00 0.  1.
<scales pt_clust_5="13000.00000" pt_clust_6="13000.00000" pt_clust_7="13000.00000" pt_clust_8="13000.00000" pt_clust_9="32.40039"></scales>
<clustering>
<clus scale="   32.400">  1  9  2 -1</clus>
<clus scale="   91.158">  7  8 -1 -1</clus>
<clus scale="   91.713">  5  6 -1 -1</clus>
<clus scale="  124.691">  1  7  2 -1</clus>
<clus scale="  125.096">  2  5  1 -1</clus>
</clustering>
</event>
<event>
 9    1  0.1612788E-005  0.1280262E+03  0.7546771E-02  0.1230583E+00
         -2   -1    0    0    0  501 -0.00000000000E+00  0.00000000000E+00  0.15073826874E+03  0.15073826874E+03  0.00000000000E+00 0.  1.
          2   -1    0    0  502    0  0.00000000000E+00 -0.00000000000E+00 -0.16623268155E+03  0.16623268155E+03  0.00000000000E+00 0. -1.
         23    2    1    2    0    0  0.29170397267E+02 -0.86047704899E+02 -0.88703052146E+01  0.12912199653E+03  0.91316417353E+02 0.  0.
         23    2    1    2    0    0  0.14761483117E+02  0.92521140392E+02 -0.35174880816E+02  0.13505632044E+03  0.90691094647E+02 0.  0.
        -11    1    4    4    0    0  0.46463048725E+02  0.72295678878E+02 -0.43828076213E+02  0.96469582490E+02  0.00000000000E+00 0.  1.
         11    1    4    4    0    0 -0.31701565607E+02  0.20225461513E+02  0.86531953966E+01  0.38586737954E+02  0.00000000000E+00 0. -1.
        -13    1    3    3    0    0  0.56971443131E+02 -0.29389924319E+02 -0.14613971952E+02  0.65750141902E+02  0.00000000000E+00 0. -1.
         13    1    3    3    0    0 -0.27801045864E+02 -0.56657780580E+02  0.57436667371E+01  0.63371854628E+02  0.00000000000E+00 0.  1.
         21    1    1    2  502  501 -0.43931880385E+02 -0.64734354925E+01  0.28550773215E+02  0.52792633316E+02  0.00000000000E+00 0. -1.
<scales pt_clust_5="13000.00000" pt_clust_6="13000.00000" pt_clust_7="13000.00000" pt_clust_8="13000.00000" pt_clust_9="44.40625"></scales>
<clustering>
<clus scale="   44.406">  1  9  2 -1</clus>
<clus scale="   90.691">  5  6 -1 -1</clus>
<clus scale="   91.316">  7  8 -1 -1</clus>
<clus scale="  127.581">  2  5  1 -1</clus>
<clus scale="  127.581">  2  5  1 -1</clus>
</clustering>
</event>
<event>
 9    1  0.1612788E-005  0.1035402E+03  0.7546771E-02  0.1278879E+00
          1   -1    0    0  502    0  0.00000000000E+00  0.00000000000E+00  0.53221209637E+03  0.53221209637E+03  0.00000000000E+00 0. -1.
         -1   -1    0    0    0  501 -0.00000000000E+00 -0.00000000000E+00 -0.92909190192E+02  0.92909190192E+02  0.00000000000E+00 0.  1.
         23    2    1    2    0    0 -0.29115434110E+02  0.18385850508E+02 -0.52470544995E+02  0.10997790568E+03  0.90311868785E+02 0.  0.
         23    2    1    2    0    0  0.19571352440E+02 -0.56196016525E+00  0.48147130358E+03  0.49245164655E+03  0.10154139247E+03 0.  0.
        -11    1    4    4    0    0 -0.27003999806E+02 -0.34525031579E+02  0.25619423455E+03  0.25991667824E+03  0.00000000000E+00 0.  1.
         11    1    4    4    0    0  0.46575352247E+02  0.33963071414E+02  0.22527706904E+03  0.23253496832E+03  0.00000000000E+00 0. -1.
        -13    1    3    3    0    0 -0.12795652356E+00  0.22256290513E+02 -0.71635214722E+02  0.75013084382E+02  0.00000000000E+00 0.  1.
         13    1    3    3    0    0 -0.28987477586E+02 -0.38704400048E+01  0.19164669727E+02  0.34964821298E+02  0.00000000000E+00 0. -1.
         21    1    1    2  502  501  0.95440816695E+01 -0.17823890343E+02  0.10302147593E+02  0.22691734330E+02  0.00000000000E+00 0. -1.
<scales pt_clust_5="13000.00000" pt_clust_6="13000.00000" pt_clust_7="13000.00000" pt_clust_8="13000.00000" pt_clust_9="20.21832"></scales>
<clustering>
<clus scale="   20.218">  2  9  1 -1</clus>
<clus scale="   90.312">  7  8 -1 -1</clus>
<clus scale="   92.553">  2  7  1 -1</clus>
<clus scale="  101.541">  5  6 -1 -1</clus>
<clus scale="  103.540">  1  5  2 -1</clus>
</clustering>
</event>
<event>
 9    1  0.1612788E-005  0.2988648E+03  0.7546771E-02  0.1086066E+00
          2   -1    0    0  502    0  0.00000000000E+00  0.00000000000E+00  0.12662127163E+04  0.12662127163E+04  0.00000000000E+00 0. -1.
         -2   -1    0    0    0  501 -0.00000000000E+00 -0.00000000000E+00 -0.20144681429E+03  0.20144681429E+03  0.00000000000E+00 0.  1.
         23    2    1    2    0    0  0.27727958580E+02 -0.25499081679E+03  0.86956557325E+02  0.28361961981E+03  0.84199106567E+02 0.  0.
         23    2    1    2    0    0 -0.81489565476E+01  0.29085396444E+03  0.10542002440E+04  0.10974080910E+04  0.91125899660E+02 0.  0.
        -11    1    4    4    0    0 -0.30633736616E+02  0.53602811073E+02  0.14722830294E+03  0.15964917902E+03  0.00000000000E+00 0.  1.
         11    1    4    4    0    0  0.22484780068E+02  0.23725115336E+03  0.90697194109E+03  0.93775891200E+03  0.00000000000E+00 0. -1.
        -13    1    3    3    0    0  0.29517384255E+02 -0.16689123413E+03  0.96429957504E+02  0.19499409403E+03  0.00000000000E+00 0. -1.
         13    1    3    3    0    0 -0.17894256748E+01 -0.88099582662E+02 -0.94734001792E+01  0.88625525784E+02  0.00000000000E+00 0.  1.
         21    1    1    2  502  501 -0.19579002032E+02 -0.35863147647E+02 -0.76390899388E+02  0.86631819726E+02  0.00000000000E+00 0.  1.
<scales pt_clust_5="13000.00000" pt_clust_6="13000.00000" pt_clust_7="13000.00000" pt_clust_8="13000.00000" pt_clust_9="40.85955"></scales>
<clustering>
<clus scale="   40.860">  2  9  1 -1</clus>
<clus scale="   84.199">  7  8 -1 -1</clus>
<clus scale="   91.126">  5  6 -1 -1</clus>
<clus scale="  296.826">  2  7  1 -1</clus>
<clus scale="  298.865">  1  5  2 -1</clus>
</clustering>
</event>
<event>
 9    1  0.1612788E-005  0.1037087E+03  0.7546771E-02  0.1272877E+00
         -2   -1    0    0    0  501 -0.00000000000E+00  0.00000000000E+00  0.67059954873E+02  0.67059954873E+02  0.00000000000E+00 0.  1.
          2   -1    0    0  502    0  0.00000000000E+00 -0.00000000000E+00 -0.63463181291E+03  0.63463181291E+03  0.00000000000E+00 0. -1.
         23    2    1    2    0    0  0.85321767925E+01 -0.60463489614E+02 -0.32420872633E+03  0.34249376474E+03  0.91989396365E+02 0.  0.
         23    2    1    2    0    0  0.30272673414E+01  0.36540768065E+02 -0.28956565563E+03  0.30590081200E+03  0.91556789938E+02 0.  0.
        -13    1    4    4    0    0 -0.44121027375E+02  0.21851108500E+02 -0.14280242892E+03  0.15105187753E+03  0.00000000000E+00 0. -1.
         13    1    4    4    0    0  0.47148294717E+02  0.14689659565E+02 -0.14676322671E+03  0.15484893448E+03  0.00000000000E+00 0.  1.
        -13    1    3    3    0    0 -0.40735101160E+02 -0.18554925661E+02 -0.11085287122E+03  0.11954912292E+03  0.00000000000E+00 0. -1.
         13    1    3    3    0    0  0.49267277953E+02 -0.41908563952E+02 -0.21335585511E+03  0.22294464183E+03  0.00000000000E+00 0.  1.
         21    1    1    2  502  501 -0.11559444134E+02  0.23922721549E+02  0.46202523927E+02  0.53297191034E+02  0.00000000000E+00 0.  1.
<scales pt_clust_5="13000.00000" pt_clust_6="13000.00000" pt_clust_7="13000.00000" pt_clust_8="13000.00000" pt_clust_9="26.56911"></scales>
<clustering>
<clus scale="   26.569">  1  9  2 -1</clus>
<clus scale="   91.557">  5  6 -1 -1</clus>
<clus scale="   91.989">  7  8 -1 -1</clus>
<clus scale="  103.325">  2  5  1 -1</clus>
<clus scale="  103.325">  2  5  1 -1</clus>
</clustering>
</event>
<event>
 9    1  0.1612788E-005  0.1437820E+03  0.7546771E-02  0.1208754E+00
          1   -1    0    0  502    0  0.00000000000E+00  0.00000000000E+00  0.28309523765E+03  0.28309523765E+03  0.00000000000E+00 0. -1.
         -1   -1    0    0    0  501 -0.00000000000E+00 -0.00000000000E+00 -0.12861987709E+03  0.12861987709E+03  0.00000000000E+00 0.  1.
         23    2    1    2    0    0  0.13315703084E+03  0.23292394690E+01  0.52765499879E+02  0.16783538522E+03  0.87454550121E+02 0.  0.
         23    2    1    2    0    0 -0.10081597111E+03 -0.21201244994E+02  0.13629908208E+03  0.19290413758E+03  0.89561228768E+02 0.  0.
        -11    1    4    4    0    0 -0.67723210580E+02  0.11493766694E+02  0.12853791552E+03  0.14574133130E+03  0.00000000000E+00 0. -1.
         11    1    4    4    0    0 -0.33092760535E+02 -0.32695011688E+02  0.77611665539E+01  0.47162806271E+02  0.00000000000E+00 0.  1.
        -11    1    3    3    0    0  0.87585937555E+02  0.20421198767E+01 -0.12225710098E+02  0.88458660957E+02  0.00000000000E+00 0.  1.
         11    1    3    3    0    0  0.45571093286E+02  0.28711959233E+00  0.64991209977E+02  0.79376724266E+02  0.00000000000E+00 0. -1.
         21    1    1    2  502  501 -0.32341059726E+02  0.18872005525E+02 -0.34589221397E+02  0.50975591940E+02  0.00000000000E+00 0. -1.
<scales pt_clust_5="13000.00000" pt_clust_6="13000.00000" pt_clust_7="13000.00000" pt_clust_8="13000.00000" pt_clust_9="37.44458"></scales>
<clustering>
<clus scale="   37.445">  2  9  1 -1</clus>
<clus scale="   87.455">  7  8 -1 -1</clus>
<clus scale="   89.561">  5  6 -1 -1</clus>
<clus scale="  142.479">  2  7  1 -1</clus>
<clus scale="  143.782">  1  5  2 -1</clus>
</clustering>
</event>
<event>
 9    1  0.1612788E-005  0.1077300E+03  0.7546771E-02  0.1265625E+00
          2   -1    0    0  502    0  0.00000000000E+00  0.00000000000E+00  0.46366991950E+03  0.46366991950E+03  0.00000000000E+00 0. -1.
         -2   -1    0    0    0  501 -0.00000000000E+00 -0.00000000000E+00 -0.40016541049E+02  0.40016541049E+02  0.00000000000E+00 0.  1.
         23    2    1    2    0    0  0.65815017605E+02  0.45051581176E+02  0.15384560033E+03  0.19681727052E+03  0.93312955826E+02 0.  0.
         23    2    1    2    0    0 -0.37063106567E+02 -0.18495756895E+02  0.23050840802E+03  0.25140456453E+03  0.91402199132E+02 0.  0.
        -11    1    3    3    0    0  0.31995913906E+02 -0.27376808940E+02  0.43306554575E+02  0.60404352853E+02  0.00000000000E+00 0. -1.
         11    1    3    3    0    0  0.33819103699E+02  0.72428390116E+02  0.11053904576E+03  0.13641291767E+03  0.00000000000E+00 0.  1.
        -13    1    4    4    0    0 -0.67720779114E+02 -0.15942256896E+02  0.15786787062E+03  0.17251818470E+03  0.00000000000E+00 0.  1.
         13    1    4    4    0    0  0.30657672548E+02 -0.25534999991E+01  0.72640537401E+02  0.78886379827E+02  0.00000000000E+00 0. -1.
         21    1    1    2  502  501 -0.28751911039E+02 -0.26555824280E+02  0.39299370091E+02  0.55464625493E+02  0.00000000000E+00 0. -1.
<scales pt_clust_5="13000.00000" pt_clust_6="13000.00000" pt_clust_7="13000.00000" pt_clust_8="13000.00000" pt_clust_9="39.13929"></scales>
<clustering>
<clus scale="   39.139">  2  9  1 -1</clus>
<clus scale="   91.402">  7  8 -1 -1</clus>
<clus scale="   93.313">  5  6 -1 -1</clus>
<clus scale="  106.079">  1  7  2 -1</clus>
<clus scale="  106.079">  1  5  2 -1</clus>
</clustering>
</event>
<event>
 9    1  0.1612788E-005  0.1432539E+03  0.7546771E-02  0.1228472E+00
          2   -1    0    0  502    0  0.00000000000E+00  0.00000000000E+00  0.25437348338E+03  0.25437348338E+03  0.00000000000E+00 0. -1.
         -2   -1    0    0    0  501 -0.00000000000E+00 -0.00000000000E+00 -0.15658318086E+03  0.15658318086E+03  0.00000000000E+00 0.  1.
         23    2    1    2    0    0  0.25881089330E+02  0.13437019691E+02 -0.14250658067E+02  0.96190134332E+02  0.90548751535E+02 0.  0.
         23    2    1    2    0    0  0.94544123956E+02 -0.45943496460E+02  0.12799725622E+03  0.18901476492E+03  0.91070782988E+02 0.  0.
        -11    1    3    3    0    0 -0.18796747228E+02  0.33302050974E+02 -0.25570113777E+02  0.46001902395E+02  0.00000000000E+00 0. -1.
         11    1    3    3    0    0  0.44677836558E+02 -0.19865031283E+02  0.11319455710E+02  0.50188231937E+02  0.00000000000E+00 0.  1.
        -13    1    4    4    0    0  0.90351753256E+02  0.80976695421E+00  0.98054092716E+02  0.13333679214E+03  0.00000000000E+00 0. -1.
         13    1    4    4    0    0  0.41923706997E+01 -0.46753263414E+02  0.29943163506E+02  0.55677972778E+02  0.00000000000E+00 0.  1.
         21    1    1    2  502  501 -0.12042521329E+03  0.32506476769E+02 -0.15956295632E+02  0.12575176499E+03  0.00000000000E+00 0.  1.
<scales pt_clust_5="13000.00000" pt_clust_6="13000.00000" pt_clust_7="13000.00000" pt_clust_8="13000.00000" pt_clust_9="110.57929"></scales>
<clustering>
<clus scale="   90.549">  5  6 -1 -1</clus>
<clus scale="   91.071">  7  8 -1 -1</clus>
<clus scale="   95.129">  2  5  1 -1</clus>
<clus scale="  110.579">  2  9  1 -1</clus>
<clus scale="  143.254">  1  5  2 -1</clus>
</clustering>
</event>
<event>
 9    1  0.1612788E-005  0.1098269E+03  0.7546771E-02  0.1262625E+00
         -2   -1    0    0    0  501 -0.00000000000E+00  0.00000000000E+00  0.12196106227E+03  0.12196106227E+03  0.00000000000E+00 0.  1.
          2   -1    0    0  502    0  0.00000000000E+00 -0.00000000000E+00 -0.32235071143E+03  0.32235071143E+03  0.00000000000E+00 0. -1.
         23    2    1    2    0    0  0.70351206577E+02  0.27753727000E+02 -0.16555517976E+03  0.20606181137E+03  0.96609476392E+02 0.  0.
         23    2    1    2    0    0 -0.19604023914E+02 -0.28263081403E+02 -0.10989033263E+03  0.14764687962E+03  0.92415346847E+02 0.  0.
        -11    1    4    4    0    0  0.62264474030E+01  0.29027297026E+02 -0.61638467219E+02  0.68415299904E+02  0.00000000000E+00 0. -1.
         11    1    4    4    0    0 -0.25830471317E+02 -0.57290378429E+02 -0.48251865411E+02  0.79231579718E+02  0.00000000000E+00 0.  1.
        -13    1    3    3    0    0  0.94870306376E+02  0.22720473148E+02 -0.13513589918E+03  0.16666825186E+03  0.00000000000E+00 0. -1.
         13    1    3    3    0    0 -0.24519099799E+02  0.50332538527E+01 -0.30419280579E+02  0.39393559502E+02  0.00000000000E+00 0.  1.
         21    1    1    2  502  501 -0.50747182663E+02  0.50935440227E+00  0.75055863231E+02  0.90603082704E+02  0.00000000000E+00 0.  1.
<scales pt_clust_5="13000.00000" pt_clust_6="13000.00000" pt_clust_7="13000.00000" pt_clust_8="13000.00000" pt_clust_9="50.74974"></scales>
<clustering>
<clus scale="   50.750">  1  9  2 -1</clus>
<clus scale="   92.415">  5  6 -1 -1</clus>
<clus scale="   96.609">  7  8 -1 -1</clus>
<clus scale="  106.156">  2  5  1 -1</clus>
<clus scale="  106.156">  2  5  1 -1</clus>
</clustering>
</event>
<event>
 9    1  0.1612788E-005  0.1052676E+03  0.7546771E-02  0.1274330E+00
         -2   -1    0    0    0  501 -0.00000000000E+00  0.00000000000E+00  0.52608023547E+02  0.52608023547E+02  0.00000000000E+00 0.  1.
          2   -1    0    0  502    0  0.00000000000E+00 -0.00000000000E+00 -0.52077282234E+03  0.52077282234E+03  0.00000000000E+00 0. -1.
         23    2    1    2    0    0  0.25594696195E+02 -0.52171423905E+02 -0.20471215530E+03  0.22838391543E+03  0.82916827930E+02 0.  0.
         23    2    1    2    0    0 -0.37739378572E+02  0.23789070712E+02 -0.28769103436E+03  0.30574707855E+03  0.93407516889E+02 0.  0.
        -11    1    3    3    0    0  0.52748778860E+02 -0.14539401412E+02 -0.10495755748E+03  0.11836349411E+03  0.00000000000E+00 0. -1.
         11    1    3    3    0    0 -0.27154082665E+02 -0.37632022492E+02 -0.99754597822E+02  0.11002042133E+03  0.00000000000E+00 0.  1.
        -13    1    4    4    0    0 -0.44298287096E+02 -0.27270785118E+02 -0.14720139742E+03  0.15612266128E+03  0.00000000000E+00 0.  1.
         13    1    4    4    0    0  0.65589085236E+01  0.51059855830E+02 -0.14048963694E+03  0.14962441728E+03  0.00000000000E+00 0. -1.
         21    1    1    2  502  501  0.12144682377E+02  0.28382353192E+02  0.24238390868E+02  0.39249851906E+02  0.00000000000E+00 0.  1.
<scales pt_clust_5="13000.00000" pt_clust_6="13000.00000" pt_clust_7="13000.00000" pt_clust_8="13000.00000" pt_clust_9="30.87153"></scales>
<clustering>
<clus scale="   30.872">  1  9  2 -1</clus>
<clus scale="   82.917">  5  6 -1 -1</clus>
<clus scale="   93.408">  7  8 -1 -1</clus>
<clus scale="   96.081">  1  5  2 -1</clus>
<clus scale="  105.268">  2  5  1 -1</clus>
</clustering>
</event>
<event>
 9    1  0.1612788E-005  0.9313421E+02  0.7546771E-02  0.1296419E+00
         -1   -1    0    0    0  501 -0.00000000000E+00  0.00000000000E+00  0.18622903320E+02  0.18622903320E+02  0.00000000000E+00 0.  1.
          1   -1    0    0  502    0  0.00000000000E+00 -0.00000000000E+00 -0.58262047750E+03  0.58262047750E+03  0.00000000000E+00 0. -1.
         23    2    1    2    0    0  0.60138057316E+01  0.74344345540E+01 -0.21758653206E+03  0.23650599594E+03  0.92194091499E+02 0.  0.
         23    2    1    2    0    0 -0.18292239771E+02  0.94378029165E+01 -0.29501585473E+03  0.30926759466E+03  0.90489846971E+02 0.  0.
        -11    1    3    3    0    0 -0.43020055620E+02  0.72911166002E+01 -0.99940070976E+02  0.10905000391E+03  0.00000000000E+00 0.  1.
         11    1    3    3    0    0  0.49033861352E+02  0.14331795381E+00 -0.11764646108E+03  0.12745599203E+03  0.00000000000E+00 0. -1.
        -13    1    4    4    0    0 -0.68454629840E+00  0.48819026587E+02 -0.13575317178E+03  0.14426603762E+03  0.00000000000E+00 0. -1.
         13    1    4    4    0    0 -0.17607693472E+02 -0.39381223670E+02 -0.15926268294E+03  0.16500155704E+03  0.00000000000E+00 0.  1.
         21    1    1    2  502  501  0.12278434039E+02 -0.16872237470E+02 -0.51395187392E+02  0.55469790217E+02  0.00000000000E+00 0.  1.
<scales pt_clust_5="13000.00000" pt_clust_6="13000.00000" pt_clust_7="13000.00000" pt_clust_8="13000.00000" pt_clust_9="20.86702"></scales>
<clustering>
<clus scale="   20.867">  1  9  2 -1</clus>
<clus scale="   90.490">  7  8 -1 -1</clus>
<clus scale="   91.447">  2  7  1 -1</clus>
<clus scale="   92.194">  5  6 -1 -1</clus>
<clus scale="   91.447">  2  5  1 -1</clus>
</clustering>
</event>
<event>
 9    1  0.1612788E-005  0.1124699E+03  0.7546771E-02  0.1259007E+00
          2   -1    0    0  502    0  0.00000000000E+00  0.00000000000E+00  0.27039182405E+03  0.27039182405E+03  0.00000000000E+00 0. -1.
         -2   -1    0    0    0  501 -0.00000000000E+00 -0.00000000000E+00 -0.12000144489E+03  0.12000144489E+03  0.00000000000E+00 0.  1.
         23    2    1    2    0    0 -0.81211797432E+02  0.28089199388E+02  0.74714068035E+02  0.14664071655E+03  0.92395609334E+02 0.  0.
         23    2    1    2    0    0  0.38651149003E+02 -0.41355440932E+02  0.13530883554E+03  0.16929827161E+03  0.84553178419E+02 0.  0.
        -11    1    4    4    0    0  0.65029706991E+02 -0.25424295198E+02  0.10483679411E+03  0.12596035478E+03  0.00000000000E+00 0.  1.
         11    1    4    4    0    0 -0.26378557988E+02 -0.15931145734E+02  0.30472041427E+02  0.43337916824E+02  0.00000000000E+00 0. -1.
        -13    1    3    3    0    0 -0.52330794477E+02 -0.28274926367E+02  0.19432506958E+02  0.62574801944E+02  0.00000000000E+00 0.  1.
         13    1    3    3    0    0 -0.28881002955E+02  0.56364125755E+02  0.55281561077E+02  0.84065914609E+02  0.00000000000E+00 0. -1.
         21    1    1    2  502  501  0.42560648428E+02  0.13266241544E+02 -0.59632524416E+02  0.74454280787E+02  0.00000000000E+00 0.  1.
<scales pt_clust_5="13000.00000" pt_clust_6="13000.00000" pt_clust_7="13000.00000" pt_clust_8="13000.00000" pt_clust_9="44.58029"></scales>
<clustering>
<clus scale="   44.580">  2  9  1 -1</clus>
<clus scale="   84.553">  5  6 -1 -1</clus>
<clus scale="   92.396">  7  8 -1 -1</clus>
<clus scale="  106.121">  1  5  2 -1</clus>
<clus scale="  106.121">  1  5  2 -1</clus>
</clustering>
</event>
<event>
 9    1  0.1612788E-005  0.1116073E+03  0.7546771E-02  0.1259814E+00
          1   -1    0    0  502    0  0.00000000000E+00  0.00000000000E+00  0.11648278510E+03  0.11648278510E+03  0.00000000000E+00 0. -1.
         -1   -1    0    0    0  501 -0.00000000000E+00 -0.00000000000E+00 -0.22097026085E+03  0.22097026085E+03  0.00000000000E+00 0.  1.
         23    2    1    2    0    0 -0.60211629831E+02 -0.39775708487E+02 -0.12180472657E+03  0.17035221849E+03  0.94741435367E+02 0.  0.
         23    2    1    2    0    0  0.32653785842E+02  0.29950942590E+02  0.52494189899E+02  0.12134738133E+03  0.10003108662E+03 0.  0.
        -11    1    4    4    0    0 -0.12421641352E+02  0.50052586840E+02  0.50154069439E+02  0.71937398511E+02  0.00000000000E+00 0.  1.
         11    1    4    4    0    0  0.45075427194E+02 -0.20101644250E+02  0.23401204603E+01  0.49409982817E+02  0.00000000000E+00 0. -1.
        -13    1    3    3    0    0 -0.33104269893E+02  0.15744877866E+02 -0.97139440030E+02  0.10382612712E+03  0.00000000000E+00 0.  1.
         13    1    3    3    0    0 -0.27107359938E+02 -0.55520586353E+02 -0.24665286541E+02  0.66526091362E+02  0.00000000000E+00 0. -1.
         21    1    1    2  502  501  0.27557843989E+02  0.98247658971E+01 -0.35176939077E+02  0.45753446133E+02  0.00000000000E+00 0.  1.
<scales pt_clust_5="13000.00000" pt_clust_6="13000.00000" pt_clust_7="13000.00000" pt_clust_8="13000.00000" pt_clust_9="29.25681"></scales>
<clustering>
<clus scale="   29.257">  2  9  1 -1</clus>
<clus scale="   94.741">  7  8 -1 -1</clus>
<clus scale="  100.031">  5  6 -1 -1</clus>
<clus scale="  106.892">  2  7  1 -1</clus>
<clus scale="  111.607">  1  5  2 -1</clus>
</clustering>
</event>
<event>
 9    1  0.1612788E-005  0.1062085E+03  0.7546771E-02  0.1268069E+00
          2   -1    0    0  502    0  0.00000000000E+00  0.00000000000E+00  0.93522055405E+03  0.93522055405E+03  0.00000000000E+00 0. -1.
         -2   -1    0    0    0  501 -0.00000000000E+00 -0.00000000000E+00 -0.25380093421E+02  0.25380093421E+02  0.00000000000E+00 0.  1.
         23    2    1    2    0    0  0.36222645219E+02 -0.26918330001E+02  0.15473919214E+03  0.18545319585E+03  0.91716921830E+02 0.  0.
         23    2    1    2    0    0 -0.31338786500E+02  0.77267194580E+02  0.54606379801E+03  0.56007647658E+03  0.92453497637E+02 0.  0.
        -11    1    3    3    0    0  0.65545330935E+02 -0.30706782496E+02  0.10356658769E+03  0.12635321517E+03  0.00000000000E+00 0. -1.
         11    1    3    3    0    0 -0.29322685716E+02  0.37884524953E+01  0.51172604444E+02  0.59099980672E+02  0.00000000000E+00 0.  1.
        -11    1    4    4    0    0  0.11287804877E+02  0.79172667904E+02  0.30765466258E+03  0.31787909225E+03  0.00000000000E+00 0. -1.
         11    1    4    4    0    0 -0.42626591377E+02 -0.19054733234E+01  0.23840913543E+03  0.24219738434E+03  0.00000000000E+00 0.  1.
         21    1    1    2  502  501 -0.48838587186E+01 -0.50348864579E+02  0.20903747048E+03  0.21507097504E+03  0.00000000000E+00 0. -1.
<scales pt_clust_5="13000.00000" pt_clust_6="13000.00000" pt_clust_7="13000.00000" pt_clust_8="13000.00000" pt_clust_9="50.58518"></scales>
<clustering>
<clus scale="   50.585">  1  9  2 -1</clus>
<clus scale="   91.717">  5  6 -1 -1</clus>
<clus scale="   92.453">  7  8 -1 -1</clus>
<clus scale="  105.568">  2  5  1 -1</clus>
<clus scale="   50.585">  1  5  2 -1</clus>
</clustering>
</event>
<event>
 9    1  0.1612788E-005  0.1003220E+03  0.7546771E-02  0.1280103E+00
         -1   -1    0    0    0  501 -0.00000000000E+00  0.00000000000E+00  0.58794791301E+03  0.58794791301E+03  0.00000000000E+00 0.  1.
          1   -1    0    0  502    0  0.00000000000E+00 -0.00000000000E+00 -0.44370671870E+02  0.44370671870E+02  0.00000000000E+00 0. -1.
         23    2    1    2    0    0  0.16181045819E+01 -0.15837179452E+02  0.39283193818E+03  0.40356078656E+03  0.91054611522E+02 0.  0.
         23    2    1    2    0    0  0.17155883670E+02  0.41012253526E+02  0.33803730707E+02  0.10767279384E+03  0.92056553483E+02 0.  0.
        -11    1    3    3    0    0 -0.42306696520E+02 -0.14736889216E+02  0.25466809562E+03  0.25857855944E+03  0.00000000000E+00 0.  1.
         11    1    3    3    0    0  0.43924801101E+02 -0.11002902360E+01  0.13816384255E+03  0.14498222712E+03  0.00000000000E+00 0. -1.
        -13    1    4    4    0    0 -0.26602333107E+02  0.49626827396E+02  0.10234720043E+02  0.57229849017E+02  0.00000000000E+00 0. -1.
         13    1    4    4    0    0  0.43758216777E+02 -0.86145738693E+01  0.23569010664E+02  0.50442944820E+02  0.00000000000E+00 0.  1.
         21    1    1    2  502  501 -0.18773988252E+02 -0.25175074075E+02  0.11694157226E+03  0.12108500449E+03  0.00000000000E+00 0.  1.
<scales pt_clust_5="13000.00000" pt_clust_6="13000.00000" pt_clust_7="13000.00000" pt_clust_8="13000.00000" pt_clust_9="31.40457"></scales>
<clustering>
<clus scale="   31.405">  1  9  2 -1</clus>
<clus scale="   91.055">  5  6 -1 -1</clus>
<clus scale="   92.057">  7  8 -1 -1</clus>
<clus scale="   99.403">  1  5  2 -1</clus>
<clus scale="  100.322">  2  5  1 -1</clus>
</clustering>
</event>
<event>
 9    1  0.1612788E-005  0.1315806E+03  0.7546771E-02  0.1225609E+00
          3   -1    0    0  502    0  0.00000000000E+00  0.00000000000E+00  0.51467090489E+03  0.51467090489E+03  0.00000000000E+00 0. -1.
         -3   -1    0    0    0  501 -0.00000000000E+00 -0.00000000000E+00 -0.27907361833E+03  0.27907361833E+03  0.00000000000E+00 0.  1.
         23    2    1    2    0    0  0.48007193458E+02 -0.49215794762E+02 -0.14253897157E+03  0.18308624551E+03  0.92066985413E+02 0.  0.
         23    2    1    2    0    0 -0.55174751922E+02  0.77834515347E+02  0.48362150990E+03  0.50112497955E+03  0.90188775743E+02 0.  0.
        -11    1    4    4    0    0  0.19950656839E+02  0.44736218505E+02  0.16717961059E+03  0.17420786478E+03  0.00000000000E+00 0.  1.
         11    1    4    4    0    0 -0.75125408761E+02  0.33098296843E+02  0.31644189930E+03  0.32691711477E+03  0.00000000000E+00 0. -1.
        -13    1    3    3    0    0  0.66909517531E+02 -0.56560235622E+02 -0.13600298415E+03  0.16177996010E+03  0.00000000000E+00 0.  1.
         13    1    3    3    0    0 -0.18902324072E+02  0.73444408601E+01 -0.65359874150E+01  0.21306285419E+02  0.00000000000E+00 0. -1.
         21    1    1    2  502  501  0.71675584636E+01 -0.28618720585E+02 -0.10548525177E+03  0.10953329815E+03  0.00000000000E+00 0.  1.
<scales pt_clust_5="13000.00000" pt_clust_6="13000.00000" pt_clust_7="13000.00000" pt_clust_8="13000.00000" pt_clust_9="29.50263"></scales>
<clustering>
<clus scale="   29.503">  2  9  1 -1</clus>
<clus scale="   90.189">  5  6 -1 -1</clus>
<clus scale="   92.067">  7  8 -1 -1</clus>
<clus scale="  130.273">  1  5  2 -1</clus>
<clus scale="  130.273">  1  5  2 -1</clus>
</clustering>
</event>
<event>
 9    1  0.1612788E-005  0.1417349E+03  0.7546771E-02  0.1211398E+00
         -2   -1    0    0    0  501 -0.00000000000E+00  0.00000000000E+00  0.32232825043E+03  0.32232825043E+03  0.00000000000E+00 0.  1.
          2   -1    0    0  502    0  0.00000000000E+00 -0.00000000000E+00 -0.10077377776E+03  0.10077377776E+03  0.00000000000E+00 0. -1.
         23    2    1    2    0    0  0.25269038636E+02  0.87984761731E+02  0.18743344069E+03  0.22498592852E+03  0.84306172578E+02 0.  0.
         23    2    1    2    0    0 -0.56498429914E+02 -0.10652333322E+03 -0.74326087760E-01  0.14823347719E+03  0.86219865067E+02 0.  0.
        -11    1    3    3    0    0  0.53518353908E+02  0.53478018168E+02  0.14436532744E+03  0.16298914196E+03  0.00000000000E+00 0.  1.
         11    1    3    3    0    0 -0.28249315272E+02  0.34506743563E+02  0.43068113251E+02  0.61996786560E+02  0.00000000000E+00 0. -1.
        -13    1    4    4    0    0  0.18784856517E+01 -0.76880346663E+02 -0.20608920395E+02  0.79616857582E+02  0.00000000000E+00 0. -1.
         13    1    4    4    0    0 -0.58376915565E+02 -0.29642986556E+02  0.20534594307E+02  0.68616619607E+02  0.00000000000E+00 0.  1.
         21    1    1    2  502  501  0.31229391278E+02  0.18538571488E+02  0.34195358069E+02  0.49882622483E+02  0.00000000000E+00 0.  1.
<scales pt_clust_5="13000.00000" pt_clust_6="13000.00000" pt_clust_7="13000.00000" pt_clust_8="13000.00000" pt_clust_9="36.31740"></scales>
<clustering>
<clus scale="   36.317">  1  9  2 -1</clus>
<clus scale="   84.306">  5  6 -1 -1</clus>
<clus scale="   86.220">  7  8 -1 -1</clus>
<clus scale="  140.579">  1  5  2 -1</clus>
<clus scale="  141.735">  2  5  1 -1</clus>
</clustering>
</event>
<event>
 9    1  0.1612788E-005  0.9696574E+02  0.7546771E-02  0.1287073E+00
          1   -1    0    0  502    0  0.00000000000E+00  0.00000000000E+00  0.15273882900E+03  0.15273882900E+03  0.00000000000E+00 0. -1.
         -1   -1    0    0    0  501 -0.00000000000E+00 -0.00000000000E+00 -0.12438722200E+03  0.12438722200E+03  0.00000000000E+00 0.  1.
         23    2    1    2    0    0  0.29550558182E+02 -0.38693939268E+01  0.30825469637E+02  0.10107944903E+03  0.91534899027E+02 0.  0.
         23    2    1    2    0    0 -0.13456157919E+02  0.42575859241E+02  0.46533516645E+02  0.11155673143E+03  0.91026173054E+02 0.  0.
        -11    1    4    4    0    0  0.90253413251E+01 -0.24651724356E+02 -0.89376525819E+00  0.26267148991E+02  0.00000000000E+00 0.  1.
         11    1    4    4    0    0 -0.22481499245E+02  0.67227583597E+02  0.47427281904E+02  0.85289582444E+02  0.00000000000E+00 0. -1.
        -13    1    3    3    0    0  0.26355084253E+02  0.27972931730E+02  0.50539296616E+02  0.63492486784E+02  0.00000000000E+00 0. -1.
         13    1    3    3    0    0  0.31954739291E+01 -0.31842325657E+02 -0.19713826978E+02  0.37586962247E+02  0.00000000000E+00 0.  1.
         21    1    1    2  502  501 -0.16094400263E+02 -0.38706465314E+02 -0.49007379290E+02  0.64489870537E+02  0.00000000000E+00 0.  1.
<scales pt_clust_5="13000.00000" pt_clust_6="13000.00000" pt_clust_7="13000.00000" pt_clust_8="13000.00000" pt_clust_9="41.91921"></scales>
<clustering>
<clus scale="   41.919">  2  9  1 -1</clus>
<clus scale="   91.026">  5  6 -1 -1</clus>
<clus scale="   91.535">  7  8 -1 -1</clus>
<clus scale="   96.486">  1  5  2 -1</clus>
<clus scale="   96.486">  1  5  2 -1</clus>
</clustering>
</event>
<event>
 9    1  0.1612788E-005  0.1009768E+03  0.7546771E-02  0.1279041E+00
          3   -1    0    0  502    0  0.00000000000E+00  0.00000000000E+00  0.26709610487E+03  0.26709610487E+03  0.00000000000E+00 0. -1.
         -3   -1    0    0    0  501 -0.00000000000E+00 -0.00000000000E+00 -0.16298181663E+03  0.16298181663E+03  0.00000000000E+00 0.  1.
         23    2    1    2    0    0  0.52581942054E+02 -0.28936606801E+02 -0.81291482852E+02  0.13680403831E+03  0.92221753777E+02 0.  0.
         23    2    1    2    0    0 -0.35680038814E+02 -0.18660619038E+00  0.22193889678E+03  0.24358983001E+03  0.93840457093E+02 0.  0.
        -13    1    3    3    0    0  0.23483531843E+02 -0.21101540476E+02  0.15685279659E+02  0.35253074707E+02  0.00000000000E+00 0. -1.
         13    1    3    3    0    0  0.29098410210E+02 -0.78350663247E+01 -0.96976762511E+02  0.10155096360E+03  0.00000000000E+00 0.  1.
        -13    1    4    4    0    0  0.10639223310E+02 -0.38263481905E+02  0.10300063649E+03  0.11039211130E+03  0.00000000000E+00 0.  1.
         13    1    4    4    0    0 -0.46319262124E+02  0.38076875715E+02  0.11893826030E+03  0.13319771871E+03  0.00000000000E+00 0. -1.
         21    1    1    2  502  501 -0.16901903239E+02  0.29123212991E+02 -0.36533125686E+02  0.49684053180E+02  0.00000000000E+00 0. -1.
<scales pt_clust_5="13000.00000" pt_clust_6="13000.00000" pt_clust_7="13000.00000" pt_clust_8="13000.00000" pt_clust_9="33.67248"></scales>
<clustering>
<clus scale="   33.672">  2  9  1 -1</clus>
<clus scale="   92.222">  5  6 -1 -1</clus>
<clus scale="   93.840">  7  8 -1 -1</clus>
<clus scale="   99.474">  2  5  1 -1</clus>
<clus scale="  100.977">  1  5  2 -1</clus>
</clustering>
</event>
<event>
 9    1  0.1612788E-005  0.1477903E+03  0.7546771E-02  0.1205472E+00
         -1   -1    0    0    0  501 -0.00000000000E+00  0.00000000000E+00  0.23828875480E+03  0.23828875480E+03  0.00000000000E+00 0.  1.
          1   -1    0    0  502    0  0.00000000000E+00 -0.00000000000E+00 -0.15092182225E+03  0.15092182225E+03  0.00000000000E+00 0. -1.
         23    2    1    2    0    0  0.23669827348E+02 -0.77146891493E+02  0.12248870479E+03  0.17246503261E+03  0.90712739329E+02 0.  0.
         23    2    1    2    0    0 -0.13851016814E+02  0.11675134906E+03 -0.62848826335E+02  0.16741288155E+03  0.10126386209E+03 0.  0.
        -11    1    4    4    0    0 -0.27054560881E+01  0.25262460680E+02  0.28131706201E+02  0.37906520627E+02  0.00000000000E+00 0.  1.
         11    1    4    4    0    0 -0.11145560726E+02  0.91488888375E+02 -0.90980532535E+02  0.12950636093E+03  0.00000000000E+00 0. -1.
        -13    1    3    3    0    0  0.56876542842E+02 -0.51994300533E+02  0.61429675602E+02  0.98549243823E+02  0.00000000000E+00 0. -1.
         13    1    3    3    0    0 -0.33206715493E+02 -0.25152590960E+02  0.61059029190E+02  0.73915788783E+02  0.00000000000E+00 0.  1.
         21    1    1    2  502  501 -0.98188105340E+01 -0.39604457562E+02  0.27727054088E+02  0.49332662887E+02  0.00000000000E+00 0. -1.
<scales pt_clust_5="13000.00000" pt_clust_6="13000.00000" pt_clust_7="13000.00000" pt_clust_8="13000.00000" pt_clust_9="40.80346"></scales>
<clustering>
<clus scale="   40.803">  1  9  2 -1</clus>
<clus scale="   90.713">  7  8 -1 -1</clus>
<clus scale="  101.264">  5  6 -1 -1</clus>
<clus scale="  140.771">  1  7  2 -1</clus>
<clus scale="  147.790">  2  5  1 -1</clus>
</clustering>
</event>
<event>
 9    1  0.1612788E-005  0.1221745E+03  0.7546771E-02  0.1239690E+00
          2   -1    0    0  502    0  0.00000000000E+00  0.00000000000E+00  0.14561004428E+03  0.14561004428E+03  0.00000000000E+00 0. -1.
         -2   -1    0    0    0  501 -0.00000000000E+00 -0.00000000000E+00 -0.15299557811E+03  0.15299557811E+03  0.00000000000E+00 0.  1.
         23    2    1    2    0    0 -0.80471878603E+01  0.78926306157E+02  0.10194976391E+02  0.12063318033E+03  0.90301204963E+02 0.  0.
         23    2    1    2    0    0 -0.26859813215E+02 -0.84529697273E+02  0.18343774726E+02  0.12756955558E+03  0.89837509722E+02 0.  0.
        -11    1    3    3    0    0 -0.13073151787E+01  0.57223331373E+02 -0.37066426564E+02  0.68191925509E+02  0.00000000000E+00 0.  1.
         11    1    3    3    0    0 -0.67398726816E+01  0.21702974783E+02  0.47261402955E+02  0.52441254824E+02  0.00000000000E+00 0. -1.
        -11    1    4    4    0    0  0.26464833270E+02 -0.62114159680E+02  0.17375609447E+02  0.69717056998E+02  0.00000000000E+00 0. -1.
         11    1    4    4    0    0 -0.53324646486E+02 -0.22415537592E+02  0.96816527979E+00  0.57852498584E+02  0.00000000000E+00 0.  1.
         21    1    1    2  502  501  0.34907001076E+02  0.56033911159E+01 -0.35924284947E+02  0.50402886476E+02  0.00000000000E+00 0.  1.
<scales pt_clust_5="13000.00000" pt_clust_6="13000.00000" pt_clust_7="13000.00000" pt_clust_8="13000.00000" pt_clust_9="35.35388"></scales>
<clustering>
<clus scale="   35.354">  2  9  1 -1</clus>
<clus scale="   89.838">  7  8 -1 -1</clus>
<clus scale="   90.301">  5  6 -1 -1</clus>
<clus scale="  121.832">  1  7  2 -1</clus>
<clus scale="  121.832">  1  5  2 -1</clus>
</clustering>
</event>
<event>
 9    1  0.1612788E-005  0.1180623E+03  0.7546771E-02  0.1248840E+00
         -1   -1    0    0    0  501 -0.00000000000E+00  0.00000000000E+00  0.36735860392E+03  0.36735860392E+03  0.00000000000E+00 0.  1.
          1   -1    0    0  502    0  0.00000000000E+00 -0.00000000000E+00 -0.20354349349E+03  0.20354349349E+03  0.00000000000E+00 0. -1.
         23    2    1    2    0    0 -0.18177156280E+02  0.13950939678E+02  0.17304452905E+03  0.20013192247E+03  0.97894533200E+02 0.  0.
         23    2    1    2    0    0  0.53457651939E+02 -0.45296547539E+02 -0.16895846246E+03  0.20421499503E+03  0.90814670558E+02 0.  0.
        -11    1    3    3    0    0 -0.22678054260E+02  0.51930516902E+02  0.69034157061E+02  0.89312863417E+02  0.00000000000E+00 0.  1.
         11    1    3    3    0    0  0.45008979800E+01 -0.37979577224E+02  0.10401037199E+03  0.11081905905E+03  0.00000000000E+00 0. -1.
        -13    1    4    4    0    0  0.39904477686E+02 -0.71747184578E+02 -0.14232935664E+03  0.16430968199E+03  0.00000000000E+00 0. -1.
         13    1    4    4    0    0  0.13553174253E+02  0.26450637039E+02 -0.26629105824E+02  0.39905313043E+02  0.00000000000E+00 0.  1.
         21    1    1    2  502  501 -0.35280495659E+02  0.31345607861E+02  0.15972904385E+03  0.16655517991E+03  0.00000000000E+00 0.  1.
<scales pt_clust_5="13000.00000" pt_clust_6="13000.00000" pt_clust_7="13000.00000" pt_clust_8="13000.00000" pt_clust_9="47.19386"></scales>
<clustering>
<clus scale="   47.194">  1  9  2 -1</clus>
<clus scale="   90.815">  7  8 -1 -1</clus>
<clus scale="   97.895">  5  6 -1 -1</clus>
<clus scale="  112.262">  2  7  1 -1</clus>
<clus scale="  112.262">  2  5  1 -1</clus>
</clustering>
</event>
<event>
 9    1  0.1612788E-005  0.9846271E+02  0.7546771E-02  0.1283909E+00
          1   -1    0    0  502    0  0.00000000000E+00  0.00000000000E+00  0.41875493413E+03  0.41875493413E+03  0.00000000000E+00 0. -1.
         -1   -1    0    0    0  501 -0.00000000000E+00 -0.00000000000E+00 -0.39382857845E+02  0.39382857845E+02  0.00000000000E+00 0.  1.
         23    2    1    2    0    0 -0.29344580883E+02  0.44135711048E+02  0.19749219357E+03  0.22343608603E+03  0.90063603080E+02 0.  0.
         23    2    1    2    0    0  0.30719510691E+02 -0.29244790635E+01  0.16355413027E+03  0.18957865999E+03  0.90762733993E+02 0.  0.
        -11    1    4    4    0    0  0.27586977027E+02 -0.29161949712E+02  0.15741253331E+03  0.16245050402E+03  0.00000000000E+00 0. -1.
         11    1    4    4    0    0  0.31325336642E+01  0.26237470649E+02  0.61415969530E+01  0.27128155970E+02  0.00000000000E+00 0.  1.
        -11    1    3    3    0    0 -0.70490663741E+01  0.37167700569E+02  0.19644416060E+03  0.20005358166E+03  0.00000000000E+00 0.  1.
         11    1    3    3    0    0 -0.22295514508E+02  0.69680104786E+01  0.10480329736E+01  0.23382504364E+02  0.00000000000E+00 0. -1.
         21    1    1    2  502  501 -0.13749298084E+01 -0.41211231984E+02  0.18325752442E+02  0.45123045955E+02  0.00000000000E+00 0.  1.
<scales pt_clust_5="13000.00000" pt_clust_6="13000.00000" pt_clust_7="13000.00000" pt_clust_8="13000.00000" pt_clust_9="41.23416"></scales>
<clustering>
<clus scale="   41.234">  2  9  1 -1</clus>
<clus scale="   90.064">  7  8 -1 -1</clus>
<clus scale="   90.763">  5  6 -1 -1</clus>
<clus scale="   97.819">  2  7  1 -1</clus>
<clus scale="   98.463">  1  5  2 -1</clus>
</clustering>
</event>
<event>
 9    1  0.1612788E-005  0.9633952E+02  0.7546771E-02  0.1289303E+00
          3   -1    0    0  502    0  0.00000000000E+00  0.00000000000E+00  0.11935835925E+03  0.11935835925E+03  0.00000000000E+00 0. -1.
         -3   -1    0    0    0  501 -0.00000000000E+00 -0.00000000000E+00 -0.12408732667E+03  0.12408732667E+03  0.00000000000E+00 0.  1.
         23    2    1    2    0    0  0.36960602649E+02  0.96533813391E+01 -0.58729309169E+00  0.98827435161E+02  0.91144078842E+02 0.  0.
         23    2    1    2    0    0 -0.89851648018E+01 -0.15681317018E+02  0.30464416156E+02  0.99712319858E+02  0.93208525307E+02 0.  0.
        -13    1    4    4    0    0  0.24244289582E+02  0.37000762570E+01 -0.23149700148E+02  0.33725135413E+02  0.00000000000E+00 0.  1.
         13    1    4    4    0    0 -0.33229454384E+02 -0.19381393275E+02  0.53614116304E+02  0.65987184445E+02  0.00000000000E+00 0. -1.
        -13    1    3    3    0    0 -0.23701143221E+01  0.41288976525E+02 -0.18448980887E+02  0.45285338909E+02  0.00000000000E+00 0. -1.
         13    1    3    3    0    0  0.39330716971E+02 -0.31635595185E+02  0.17861687795E+02  0.53542096252E+02  0.00000000000E+00 0.  1.
         21    1    1    2  502  501 -0.27975437847E+02  0.60279356786E+01 -0.34606090481E+02  0.44905930897E+02  0.00000000000E+00 0. -1.
<scales pt_clust_5="13000.00000" pt_clust_6="13000.00000" pt_clust_7="13000.00000" pt_clust_8="13000.00000" pt_clust_9="28.61750"></scales>
<clustering>
<clus scale="   28.617">  2  9  1 -1</clus>
<clus scale="   91.144">  7  8 -1 -1</clus>
<clus scale="   93.209">  5  6 -1 -1</clus>
<clus scale="   94.344">  2  7  1 -1</clus>
<clus scale="   96.340">  1  5  2 -1</clus>
</clustering>
</event>
<event>
 9    1  0.1612788E-005  0.2006710E+03  0.7546771E-02  0.1149685E+00
         -1   -1    0    0    0  501 -0.00000000000E+00  0.00000000000E+00  0.11336705055E+03  0.11336705055E+03  0.00000000000E+00 0.  1.
          1   -1    0    0  502    0  0.00000000000E+00 -0.00000000000E+00 -0.10256222829E+04  0.10256222829E+04  0.00000000000E+00 0. -1.
         23    2    1    2    0    0 -0.20258573918E+03 -0.57149435250E+01 -0.37933169813E+03  0.43967692272E+03  0.91376237971E+02 0.  0.
         23    2    1    2    0    0  0.11169991489E+03 -0.16418815081E+03 -0.42382219942E+03  0.47788432810E+03  0.96506758680E+02 0.  0.
        -11    1    4    4    0    0  0.38076098504E+02 -0.12395085051E+03 -0.31369160808E+03  0.33943486503E+03  0.00000000000E+00 0. -1.
         11    1    4    4    0    0  0.73623816391E+02 -0.40237300299E+02 -0.11013059133E+03  0.13844946306E+03  0.00000000000E+00 0.  1.
        -11    1    3    3    0    0 -0.39599706350E+02 -0.24329468374E+02 -0.15464015825E+03  0.16147333624E+03  0.00000000000E+00 0. -1.
         11    1    3    3    0    0 -0.16298603283E+03  0.18614524849E+02 -0.22469153988E+03  0.27820358648E+03  0.00000000000E+00 0.  1.
         21    1    1    2  502  501  0.90885824284E+02  0.16990309433E+03 -0.10910133477E+03  0.22142808261E+03  0.00000000000E+00 0.  1.
<scales pt_clust_5="13000.00000" pt_clust_6="13000.00000" pt_clust_7="13000.00000" pt_clust_8="13000.00000" pt_clust_9="192.68444"></scales>
<clustering>
<clus scale="   91.376">  7  8 -1 -1</clus>
<clus scale="   96.507">  5  6 -1 -1</clus>
<clus scale="  192.684">  1  9  2 -1</clus>
<clus scale="  198.255">  1  7  2 -1</clus>
<clus scale="  200.671">  2  5  1 -1</clus>
</clustering>
</event>
<event>
 9    1  0.1612788E-005  0.1470716E+03  0.7546771E-02  0.1209815E+00
         -2   -1    0    0    0  501 -0.00000000000E+00  0.00000000000E+00  0.34429776185E+03  0.34429776185E+03  0.00000000000E+00 0.  1.
          2   -1    0    0  502    0  0.00000000000E+00 -0.00000000000E+00 -0.12140813814E+03  0.12140813814E+03  0.00000000000E+00 0. -1.
         23    2    1    2    0    0  0.11852445219E+02 -0.76776378839E+02  0.17381377495E+03  0.21035289317E+03  0.89454002125E+02 0.  0.
         23    2    1    2    0    0 -0.18811650751E+02  0.97603409361E+02 -0.46506303363E+02  0.15728087242E+03  0.11266824244E+03 0.  0.
        -13    1    3    3    0    0 -0.16553975760E+02 -0.72619482284E+02  0.16381474946E+03  0.17995248112E+03  0.00000000000E+00 0.  1.
         13    1    3    3    0    0  0.28406420978E+02 -0.41568965545E+01  0.99990254870E+01  0.30400412044E+02  0.00000000000E+00 0. -1.
        -13    1    4    4    0    0 -0.55576981327E+02  0.46998696701E+02 -0.58757637664E+02  0.93542174065E+02  0.00000000000E+00 0. -1.
         13    1    4    4    0    0  0.36765330576E+02  0.50604712660E+02  0.12251334301E+02  0.63738698354E+02  0.00000000000E+00 0.  1.
         21    1    1    2  502  501  0.69592055325E+01 -0.20827030523E+02  0.95582152123E+02  0.98072134404E+02  0.00000000000E+00 0.  1.
<scales pt_clust_5="13000.00000" pt_clust_6="13000.00000" pt_clust_7="13000.00000" pt_clust_8="13000.00000" pt_clust_9="21.95896"></scales>
<clustering>
<clus scale="   21.959">  1  9  2 -1</clus>
<clus scale="   89.454">  5  6 -1 -1</clus>
<clus scale="  112.668">  7  8 -1 -1</clus>
<clus scale="  130.146">  1  5  2 -1</clus>
<clus scale="  147.072">  2  5  1 -1</clus>
</clustering>
</event>
<event>
 9    1  0.1612788E-005  0.1074091E+03  0.7546771E-02  0.1266514E+00
          1   -1    0    0  502    0  0.00000000000E+00  0.00000000000E+00  0.15909974125E+03  0.15909974125E+03  0.00000000000E+00 0. -1.
         -1   -1    0    0    0  501 -0.00000000000E+00 -0.00000000000E+00 -0.87183504160E+02  0.87183504160E+02  0.00000000000E+00 0.  1.
         23    2    1    2    0    0  0.39727925081E+02  0.17826472141E+02  0.13947319490E+02  0.10295156195E+03  0.92241017158E+02 0.  0.
         23    2    1    2    0    0 -0.59545031251E+02 -0.23679915814E+02  0.51792287369E+02  0.12176478149E+03  0.89654179042E+02 0.  0.
        -11    1    3    3    0    0  0.21882166505E+02 -0.37333589612E+02 -0.20429499719E+00  0.43274332586E+02  0.00000000000E+00 0. -1.
         11    1    3    3    0    0  0.17845758576E+02  0.55160061753E+02  0.14151614487E+02  0.59677229362E+02  0.00000000000E+00 0.  1.
        -13    1    4    4    0    0 -0.34395437464E+02 -0.11849876433E+02  0.76415439099E+02  0.84633238285E+02  0.00000000000E+00 0. -1.
         13    1    4    4    0    0 -0.25149593786E+02 -0.11830039381E+02 -0.24623151730E+02  0.37131543201E+02  0.00000000000E+00 0.  1.
         21    1    1    2  502  501  0.19817106170E+02  0.58534436731E+01  0.61766302285E+01  0.21566901974E+02  0.00000000000E+00 0. -1.
<scales pt_clust_5="13000.00000" pt_clust_6="13000.00000" pt_clust_7="13000.00000" pt_clust_8="13000.00000" pt_clust_9="20.66351"></scales>
<clustering>
<clus scale="   20.664">  2  9  1 -1</clus>
<clus scale="   89.654">  7  8 -1 -1</clus>
<clus scale="   92.241">  5  6 -1 -1</clus>
<clus scale="  105.196">  1  7  2 -1</clus>
<clus scale="  105.196">  1  5  2 -1</clus>
</clustering>
</event>
<event>
 9    1  0.1612788E-005  0.2609530E+03  0.7546771E-02  0.1106917E+00
         -2   -1    0    0    0  501 -0.00000000000E+00  0.00000000000E+00  0.11907239763E+03  0.11907239763E+03  0.00000000000E+00 0.  1.
          2   -1    0    0  502    0  0.00000000000E+00 -0.00000000000E+00 -0.71897165902E+03  0.71897165902E+03  0.00000000000E+00 0. -1.
         23    2    1    2    0    0 -0.20453225454E+03 -0.10134308334E+03 -0.12247320736E+03  0.27440469101E+03  0.90522838242E+02 0.  0.
         23    2    1    2    0    0  0.22272830425E+03  0.11084435849E+03 -0.47220554200E+03  0.54245861491E+03  0.96896365664E+02 0.  0.
        -11    1    3    3    0    0 -0.11168146203E+03 -0.59924365557E+01 -0.65694647417E+02  0.12970907816E+03  0.00000000000E+00 0. -1.
         11    1    3    3    0    0 -0.92850792505E+02 -0.95350646782E+02 -0.56778559940E+02  0.14469561285E+03  0.00000000000E+00 0.  1.
        -11    1    4    4    0    0  0.60340023217E+02 -0.13219891078E+01 -0.17997833209E+03  0.18982851756E+03  0.00000000000E+00 0. -1.
         11    1    4    4    0    0  0.16238828104E+03  0.11216634760E+03 -0.29222720991E+03  0.35263009736E+03  0.00000000000E+00 0.  1.
         21    1    1    2  502  501 -0.18196049717E+02 -0.95012751523E+01 -0.52205120376E+01  0.21180750712E+02  0.00000000000E+00 0. -1.
<scales pt_clust_5="13000.00000" pt_clust_6="13000.00000" pt_clust_7="13000.00000" pt_clust_8="13000.00000" pt_clust_9="20.52731"></scales>
<clustering>
<clus scale="   20.527">  1  9  2 -1</clus>
<clus scale="   90.523">  5  6 -1 -1</clus>
<clus scale="   96.896">  7  8 -1 -1</clus>
<clus scale="  258.654">  1  5  2 -1</clus>
<clus scale="  260.953">  2  5  1 -1</clus>
</clustering>
</event>
<event>
 9    1  0.1612788E-005  0.1393475E+03  0.7546771E-02  0.1234089E+00
         -1   -1    0    0    0  501 -0.00000000000E+00  0.00000000000E+00  0.53324137414E+02  0.53324137414E+02  0.00000000000E+00 0.  1.
          1   -1    0    0  502    0  0.00000000000E+00 -0.00000000000E+00 -0.81808126412E+03  0.81808126412E+03  0.00000000000E+00 0. -1.
         23    2    1    2    0    0  0.32263433334E+02 -0.11275411102E+03 -0.90458046491E+02  0.16833376613E+03  0.79994874597E+02 0.  0.
         23    2    1    2    0    0 -0.21774173467E+02  0.79997999238E+01 -0.26873356873E+03  0.28406462547E+03  0.89089107385E+02 0.  0.
        -11    1    4    4    0    0 -0.10792539867E+02 -0.36940917823E+02 -0.68642914861E+02  0.78695362551E+02  0.00000000000E+00 0.  1.
         11    1    4    4    0    0 -0.10981633601E+02  0.44940717747E+02 -0.20009065386E+03  0.20536926292E+03  0.00000000000E+00 0. -1.
        -13    1    3    3    0    0  0.52770856305E+02 -0.98438732672E+02 -0.53841670622E+02  0.12399142253E+03  0.00000000000E+00 0.  1.
         13    1    3    3    0    0 -0.20507422971E+02 -0.14315378346E+02 -0.36616375869E+02  0.44342343599E+02  0.00000000000E+00 0. -1.
         21    1    1    2  502  501 -0.10489259867E+02  0.10475431109E+03 -0.40556551149E+03  0.41900700994E+03  0.00000000000E+00 0. -1.
<scales pt_clust_5="13000.00000" pt_clust_6="13000.00000" pt_clust_7="13000.00000" pt_clust_8="13000.00000" pt_clust_9="114.09889"></scales>
<clustering>
<clus scale="   79.995">  7  8 -1 -1</clus>
<clus scale="   89.089">  5  6 -1 -1</clus>
<clus scale="   92.060">  2  5  1 -1</clus>
<clus scale="  114.099">  2  9  1 -1</clus>
<clus scale="   92.060">  2  5  1 -1</clus>
</clustering>
</event>
<event>
 9    1  0.1612788E-005  0.1700263E+03  0.7546771E-02  0.1182919E+00
         -1   -1    0    0    0  501 -0.00000000000E+00  0.00000000000E+00  0.12238932538E+03  0.12238932538E+03  0.00000000000E+00 0.  1.
          1   -1    0    0  502    0  0.00000000000E+00 -0.00000000000E+00 -0.32817987524E+03  0.32817987524E+03  0.00000000000E+00 0. -1.
         23    2    1    2    0    0  0.11130202002E+03 -0.31934322534E+02  0.13918761636E+02  0.14828408920E+03  0.91577827917E+02 0.  0.
         23    2    1    2    0    0 -0.12942381604E+03  0.48718922723E+02 -0.19082463572E+03  0.26427923307E+03  0.11960524171E+03 0.  0.
        -11    1    3    3    0    0  0.10677241786E+03 -0.54410457624E+02 -0.28625759944E+01  0.11987093666E+03  0.00000000000E+00 0.  1.
         11    1    3    3    0    0  0.45296021642E+01  0.22476135090E+02  0.16781337630E+02  0.28413152536E+02  0.00000000000E+00 0. -1.
        -13    1    4    4    0    0 -0.29207317987E+02 -0.39618224719E+02 -0.49461496293E+02  0.69779013818E+02  0.00000000000E+00 0.  1.
         13    1    4    4    0    0 -0.10021649806E+03  0.88337147442E+02 -0.14136313942E+03  0.19450021925E+03  0.00000000000E+00 0. -1.
         21    1    1    2  502  501  0.18121796021E+02 -0.16784600189E+02 -0.28884675778E+02  0.38005878352E+02  0.00000000000E+00 0.  1.
<scales pt_clust_5="13000.00000" pt_clust_6="13000.00000" pt_clust_7="13000.00000" pt_clust_8="13000.00000" pt_clust_9="24.70065"></scales>
<clustering>
<clus scale="   24.701">  2  9  1 -1</clus>
<clus scale="   91.578">  5  6 -1 -1</clus>
<clus scale="  119.605">  7  8 -1 -1</clus>
<clus scale="  151.625">  1  5  2 -1</clus>
<clus scale="   24.701">  2  5  1 -1</clus>
</clustering>
</event>
<event>
 9    1  0.1612788E-005  0.9698104E+02  0.7546771E-02  0.1287259E+00
          3   -1    0    0  502    0  0.00000000000E+00  0.00000000000E+00  0.76598895687E+02  0.76598895687E+02  0.00000000000E+00 0. -1.
         -3   -1    0    0    0  501 -0.00000000000E+00 -0.00000000000E+00 -0.25155205322E+03  0.25155205322E+03  0.00000000000E+00 0.  1.
         23    2    1    2    0    0  0.31544451875E+02 -0.30059457611E+02 -0.75799344941E+02  0.12530585402E+03  0.89762981908E+02 0.  0.
         23    2    1    2    0    0  0.37293407170E+02  0.45214910380E+02 -0.56978332605E+02  0.12070430296E+03  0.88813355013E+02 0.  0.
        -13    1    4    4    0    0  0.64571191478E+02  0.43075144992E+02 -0.33079525337E+02  0.84375125964E+02  0.00000000000E+00 0. -1.
         13    1    4    4    0    0 -0.27277784308E+02  0.21397653882E+01 -0.23898807268E+02  0.36329177001E+02  0.00000000000E+00 0.  1.
        -13    1    3    3    0    0 -0.15919571289E+02 -0.44568341639E+02 -0.22258451021E+02  0.52299220533E+02  0.00000000000E+00 0.  1.
         13    1    3    3    0    0  0.47464023164E+02  0.14508884028E+02 -0.53540893920E+02  0.73006633482E+02  0.00000000000E+00 0. -1.
         21    1    1    2  502  501 -0.68837859045E+02 -0.15155452769E+02 -0.42175479992E+02  0.82140791931E+02  0.00000000000E+00 0.  1.
<scales pt_clust_5="13000.00000" pt_clust_6="13000.00000" pt_clust_7="13000.00000" pt_clust_8="13000.00000" pt_clust_9="70.48644"></scales>
<clustering>
<clus scale="   70.486">  1  9  2 -1</clus>
<clus scale="   88.813">  5  6 -1 -1</clus>
<clus scale="   89.763">  7  8 -1 -1</clus>
<clus scale="   96.103">  1  5  2 -1</clus>
<clus scale="   70.486">  1  5  2 -1</clus>
</clustering>
</event>
<event>
 9    1  0.1612788E-005  0.1109452E+03  0.7546771E-02  0.1258962E+00
         -3   -1    0    0    0  501 -0.00000000000E+00  0.00000000000E+00  0.29578106753E+03  0.29578106753E+03  0.00000000000E+00 0.  1.
          3   -1    0    0  502    0  0.00000000000E+00 -0.00000000000E+00 -0.84928724287E+02  0.84928724287E+02  0.00000000000E+00 0. -1.
         23    2    1    2    0    0 -0.43050032099E+02 -0.12923382064E+01  0.72985016307E+02  0.12485352152E+03  0.91687588198E+02 0.  0.
         23    2    1    2    0    0  0.69979767545E+02 -0.29658139430E+02  0.79645005371E+01  0.11962893448E+03  0.92037359782E+02 0.  0.
        -11    1    3    3    0    0 -0.31520955925E+02  0.31729796123E+02  0.77607296221E+02  0.89572557467E+02  0.00000000000E+00 0.  1.
         11    1    3    3    0    0 -0.11529076174E+02 -0.33022134330E+02 -0.46222799138E+01  0.35280964056E+02  0.00000000000E+00 0. -1.
        -13    1    4    4    0    0  0.56933964759E+02 -0.50150334967E+02 -0.23912334425E+02  0.79550815069E+02  0.00000000000E+00 0. -1.
         13    1    4    4    0    0  0.13045802786E+02  0.20492195537E+02  0.31876834962E+02  0.40078119410E+02  0.00000000000E+00 0.  1.
         21    1    1    2  502  501 -0.26929735446E+02  0.30950477637E+02  0.12990282640E+03  0.13622733582E+03  0.00000000000E+00 0.  1.
<scales pt_clust_5="13000.00000" pt_clust_6="13000.00000" pt_clust_7="13000.00000" pt_clust_8="13000.00000" pt_clust_9="41.02612"></scales>
<clustering>
<clus scale="   41.026">  1  9  2 -1</clus>
<clus scale="   91.688">  5  6 -1 -1</clus>
<clus scale="   92.037">  7  8 -1 -1</clus>
<clus scale="  110.655">  1  5  2 -1</clus>
<clus scale="  110.945">  2  5  1 -1</clus>
</clustering>
</event>
<event>
 9    1  0.1612788E-005  0.1405579E+03  0.7546771E-02  0.1212678E+00
          1   -1    0    0  502    0  0.00000000000E+00  0.00000000000E+00  0.12112828681E+03  0.12112828681E+03  0.00000000000E+00 0. -1.
         -1   -1    0    0    0  501 -0.00000000000E+00 -0.00000000000E+00 -0.19803725378E+03  0.19803725378E+03  0.00000000000E+00 0.  1.
         23    2    1    2    0    0 -0.41120622662E+02 -0.11091483034E+03 -0.38364195472E+02  0.15382907426E+03  0.90545940807E+02 0.  0.
         23    2    1    2    0    0  0.37661157378E+02  0.90899529350E+02 -0.15969570043E+02  0.13496839272E+03  0.90996443086E+02 0.  0.
        -13    1    3    3    0    0 -0.65291545308E+02 -0.61690698951E+02 -0.41398416000E+02  0.98906810044E+02  0.00000000000E+00 0.  1.
         13    1    3    3    0    0  0.24170922646E+02 -0.49224131393E+02  0.30342205278E+01  0.54922264221E+02  0.00000000000E+00 0. -1.
        -13    1    4    4    0    0  0.59544252366E+02  0.25910601458E+02 -0.18978057848E+01  0.64965213188E+02  0.00000000000E+00 0. -1.
         13    1    4    4    0    0 -0.21883094989E+02  0.64988927892E+02 -0.14071764259E+02  0.70003179529E+02  0.00000000000E+00 0.  1.
         21    1    1    2  502  501  0.34594652839E+01  0.20015300994E+02 -0.22575201449E+02  0.30368073603E+02  0.00000000000E+00 0. -1.
<scales pt_clust_5="13000.00000" pt_clust_6="13000.00000" pt_clust_7="13000.00000" pt_clust_8="13000.00000" pt_clust_9="20.31207"></scales>
<clustering>
<clus scale="   20.312">  2  9  1 -1</clus>
<clus scale="   90.546">  5  6 -1 -1</clus>
<clus scale="   90.996">  7  8 -1 -1</clus>
<clus scale="  140.267">  2  5  1 -1</clus>
<clus scale="  140.558">  1  5  2 -1</clus>
</clustering>
</event>
<event>
 9    1  0.1612788E-005  0.2073155E+03  0.7546771E-02  0.1145630E+00
         -2   -1    0    0    0  501 -0.00000000000E+00  0.00000000000E+00  0.96251441424E+02  0.96251441424E+02  0.00000000000E+00 0.  1.
          2   -1    0    0  502    0  0.00000000000E+00 -0.00000000000E+00 -0.99344892219E+03  0.99344892219E+03  0.00000000000E+00 0. -1.
         23    2    1    2    0    0  0.81945013388E+02 -0.15819116806E+03 -0.13970436529E+03  0.24249223933E+03  0.86866251127E+02 0.  0.
         23    2    1    2    0    0 -0.38299791738E+01  0.18199648305E+03 -0.73184779349E+03  0.76161411671E+03  0.10638365172E+03 0.  0.
        -11    1    4    4    0    0 -0.63310849110E+01  0.59305073568E+02 -0.88856196059E+02  0.10701681160E+03  0.00000000000E+00 0.  1.
         11    1    4    4    0    0  0.25011057372E+01  0.12269140949E+03 -0.64299159743E+03  0.65459730511E+03  0.00000000000E+00 0. -1.
        -11    1    3    3    0    0  0.87010422431E+02 -0.75051581995E+02 -0.80194103508E+02  0.14012368754E+03  0.00000000000E+00 0.  1.
         11    1    3    3    0    0 -0.50654090422E+01 -0.83139586062E+02 -0.59510261782E+02  0.10236855180E+03  0.00000000000E+00 0. -1.
         21    1    1    2  502  501 -0.78115034215E+02 -0.23805314997E+02 -0.25645321990E+02  0.85594007573E+02  0.00000000000E+00 0. -1.
<scales pt_clust_5="13000.00000" pt_clust_6="13000.00000" pt_clust_7="13000.00000" pt_clust_8="13000.00000" pt_clust_9="81.66181"></scales>
<clustering>
<clus scale="   81.662">  1  9  2 -1</clus>
<clus scale="   86.866">  7  8 -1 -1</clus>
<clus scale="  106.384">  5  6 -1 -1</clus>
<clus scale="  198.010">  1  7  2 -1</clus>
<clus scale="  207.315">  2  5  1 -1</clus>
</clustering>
</event>
<event>
 9    1  0.1612788E-005  0.1309324E+03  0.7546771E-02  0.1227454E+00
         -1   -1    0    0    0  501 -0.00000000000E+00  0.00000000000E+00  0.10416584800E+03  0.10416584800E+03  0.00000000000E+00 0.  1.
          1   -1    0    0  502    0  0.00000000000E+00 -0.00000000000E+00 -0.23208780779E+03  0.23208780779E+03  0.00000000000E+00 0. -1.
         23    2    1    2    0    0 -0.37371655530E+02  0.96720765082E+02 -0.65114495605E+02  0.15073332778E+03  0.87915251972E+02 0.  0.
         23    2    1    2    0    0  0.19597689973E+02 -0.81056086636E+02 -0.86478607725E+02  0.15202974667E+03  0.93168318898E+02 0.  0.
        -11    1    4    4    0    0 -0.49370847588E+01 -0.25144527781E+02  0.17793234885E+02  0.31196494850E+02  0.00000000000E+00 0.  1.
         11    1    4    4    0    0  0.24534774732E+02 -0.55911558855E+02 -0.10427184261E+03  0.12083325182E+03  0.00000000000E+00 0. -1.
        -13    1    3    3    0    0  0.26453404848E+02  0.30390289983E+02 -0.36425168183E+02  0.54315239394E+02  0.00000000000E+00 0. -1.
         13    1    3    3    0    0 -0.63825060378E+02  0.66330475100E+02 -0.28689327422E+02  0.96418088381E+02  0.00000000000E+00 0.  1.
         21    1    1    2  502  501  0.17773965557E+02 -0.15664678446E+02  0.23671143532E+02  0.33490581341E+02  0.00000000000E+00 0.  1.
<scales pt_clust_5="13000.00000" pt_clust_6="13000.00000" pt_clust_7="13000.00000" pt_clust_8="13000.00000" pt_clust_9="23.69169"></scales>
<clustering>
<clus scale="   23.692">  1  9  2 -1</clus>
<clus scale="   87.915">  7  8 -1 -1</clus>
<clus scale="   93.168">  5  6 -1 -1</clus>
<clus scale="  127.248">  1  7  2 -1</clus>
<clus scale="  130.932">  2  5  1 -1</clus>
</clustering>
</event>
<event>
 9    1  0.1612788E-005  0.9238676E+02  0.7546771E-02  0.1297314E+00
         -1   -1    0    0    0  501 -0.00000000000E+00  0.00000000000E+00  0.49369406234E+02  0.49369406234E+02  0.00000000000E+00 0.  1.
          1   -1    0    0  502    0  0.00000000000E+00 -0.00000000000E+00 -0.24024038813E+03  0.24024038813E+03  0.00000000000E+00 0. -1.
         23    2    1    2    0    0 -0.95942837402E+01  0.22875467572E+02 -0.57635475839E+02  0.11099639247E+03  0.91558799520E+02 0.  0.
         23    2    1    2    0    0  0.39178627784E+01 -0.16173497496E+00 -0.12175954671E+03  0.15253979366E+03  0.91802100348E+02 0.  0.
        -11    1    3    3    0    0 -0.40005498254E+02  0.24001204059E+01  0.29458228967E+01  0.40185548908E+02  0.00000000000E+00 0.  1.
         11    1    3    3    0    0  0.30411214514E+02  0.20475347166E+02 -0.60581298735E+02  0.70810843564E+02  0.00000000000E+00 0. -1.
        -13    1    4    4    0    0  0.66666752140E+00 -0.42414740318E+02 -0.31531545778E+02  0.52855397273E+02  0.00000000000E+00 0.  1.
         13    1    4    4    0    0  0.32511952570E+01  0.42253005343E+02 -0.90228000928E+02  0.99684396384E+02  0.00000000000E+00 0. -1.
         21    1    1    2  502  501  0.56764209618E+01 -0.22713732597E+02 -0.11475959356E+02  0.26073608238E+02  0.00000000000E+00 0.  1.
<scales pt_clust_5="13000.00000" pt_clust_6="13000.00000" pt_clust_7="13000.00000" pt_clust_8="13000.00000" pt_clust_9="23.41229"></scales>
<clustering>
<clus scale="   23.412">  1  9  2 -1</clus>
<clus scale="   91.559">  5  6 -1 -1</clus>
<clus scale="   91.802">  7  8 -1 -1</clus>
<clus scale="   92.145">  1  5  2 -1</clus>
<clus scale="   92.387">  2  5  1 -1</clus>
</clustering>
</event>
<event>
 9    1  0.1612788E-005  0.1050608E+03  0.7546771E-02  0.1274548E+00
          4   -1    0    0  502    0  0.00000000000E+00  0.00000000000E+00  0.32341401334E+02  0.32341401334E+02  0.00000000000E+00 0. -1.
         -4   -1    0    0    0  501 -0.00000000000E+00 -0.00000000000E+00 -0.40152134057E+03  0.40152134057E+03  0.00000000000E+00 0.  1.
         23    2    1    2    0    0 -0.41747620680E+01 -0.43560731293E+02 -0.18554191219E+03  0.21121516376E+03  0.90945468681E+02 0.  0.
         23    2    1    2    0    0  0.58470867288E+01  0.21230290643E+02 -0.13978589548E+03  0.17340882620E+03  0.10022779439E+03 0.  0.
        -13    1    4    4    0    0 -0.14916674055E+02 -0.33867216458E+02 -0.25796307159E+02  0.45110364425E+02  0.00000000000E+00 0. -1.
         13    1    4    4    0    0  0.20763760784E+02  0.55097507101E+02 -0.11398958832E+03  0.12829846178E+03  0.00000000000E+00 0.  1.
        -13    1    3    3    0    0  0.28998693614E+01  0.22063251584E+02 -0.10376653249E+03  0.10612581956E+03  0.00000000000E+00 0.  1.
         13    1    3    3    0    0 -0.70746314294E+01 -0.65623982877E+02 -0.81775379694E+02  0.10508934419E+03  0.00000000000E+00 0. -1.
         21    1    1    2  502  501 -0.16723246608E+01  0.22330440650E+02 -0.43852131576E+02  0.49238751946E+02  0.00000000000E+00 0.  1.
<scales pt_clust_5="13000.00000" pt_clust_6="13000.00000" pt_clust_7="13000.00000" pt_clust_8="13000.00000" pt_clust_9="22.39297"></scales>
<clustering>
<clus scale="   22.393">  2  9  1 -1</clus>
<clus scale="   90.945">  7  8 -1 -1</clus>
<clus scale="   96.246">  2  7  1 -1</clus>
<clus scale="  100.228">  5  6 -1 -1</clus>
<clus scale="  105.061">  1  5  2 -1</clus>
</clustering>
</event>
<event>
 9    1  0.1612788E-005  0.9783698E+02  0.7546771E-02  0.1289249E+00
          2   -1    0    0  502    0  0.00000000000E+00  0.00000000000E+00  0.68861792381E+02  0.68861792381E+02  0.00000000000E+00 0. -1.
         -2   -1    0    0    0  501 -0.00000000000E+00 -0.00000000000E+00 -0.21187877326E+03  0.21187877326E+03  0.00000000000E+00 0.  1.
         23    2    1    2    0    0  0.22189277437E+02  0.46067634396E+01 -0.85598221946E+02  0.12599807235E+03  0.89637449384E+02 0.  0.
         23    2    1    2    0    0 -0.31297212328E+01  0.64134317833E+01 -0.48274311636E+01  0.97728818251E+02  0.97348295121E+02 0.  0.
        -11    1    3    3    0    0  0.72897870785E+01  0.44084508677E+02 -0.22336277908E+02  0.49954921797E+02  0.00000000000E+00 0.  1.
         11    1    3    3    0    0  0.14899490359E+02 -0.39477745238E+02 -0.63261944038E+02  0.76043150549E+02  0.00000000000E+00 0. -1.
        -13    1    4    4    0    0 -0.75973198163E+00 -0.45552786792E+02 -0.34659886663E+01  0.45690772095E+02  0.00000000000E+00 0. -1.
         13    1    4    4    0    0 -0.23699892512E+01  0.51966218575E+02 -0.13614424974E+01  0.52038046156E+02  0.00000000000E+00 0.  1.
         21    1    1    2  502  501 -0.19059556204E+02 -0.11020195223E+02 -0.52591327767E+02  0.57013675042E+02  0.00000000000E+00 0.  1.
<scales pt_clust_5="13000.00000" pt_clust_6="13000.00000" pt_clust_7="13000.00000" pt_clust_8="13000.00000" pt_clust_9="22.01616"></scales>
<clustering>
<clus scale="   22.016">  2  9  1 -1</clus>
<clus scale="   89.637">  5  6 -1 -1</clus>
<clus scale="   90.168">  2  5  1 -1</clus>
<clus scale="   97.348">  7  8 -1 -1</clus>
<clus scale="   97.837">  1  5  2 -1</clus>
</clustering>
</event>
<event>
 9    1  0.1612788E-005  0.9917505E+02  0.7546771E-02  0.1284637E+00
         -2   -1    0    0    0  501 -0.00000000000E+00  0.00000000000E+00  0.15472354785E+03  0.15472354785E+03  0.00000000000E+00 0.  1.
          2   -1    0    0  502    0  0.00000000000E+00 -0.00000000000E+00 -0.13950297188E+03  0.13950297188E+03  0.00000000000E+00 0. -1.
         23    2    1    2    0    0  0.44120342438E+02  0.37403957629E+02  0.63222352802E+02  0.12461739184E+03  0.90480759242E+02 0.  0.
         23    2    1    2    0    0 -0.43014003180E+01 -0.20230612539E+02 -0.70800797000E+02  0.12061660545E+03  0.95434967004E+02 0.  0.
        -13    1    3    3    0    0  0.66599369546E+02  0.48258033585E+02  0.45382792338E+02  0.93935678364E+02  0.00000000000E+00 0.  1.
         13    1    3    3    0    0 -0.22479027107E+02 -0.10854075956E+02  0.17839560464E+02  0.30681713480E+02  0.00000000000E+00 0. -1.
        -13    1    4    4    0    0  0.21570692679E+02  0.29290200685E+02 -0.48107081262E+02  0.60311706213E+02  0.00000000000E+00 0.  1.
         13    1    4    4    0    0 -0.25872092997E+02 -0.49520813224E+02 -0.22693715739E+02  0.60304899241E+02  0.00000000000E+00 0. -1.
         21    1    1    2  502  501 -0.39818942120E+02 -0.17173345091E+02  0.22799020173E+02  0.48992522430E+02  0.00000000000E+00 0. -1.
<scales pt_clust_5="13000.00000" pt_clust_6="13000.00000" pt_clust_7="13000.00000" pt_clust_8="13000.00000" pt_clust_9="43.36441"></scales>
<clustering>
<clus scale="   43.364">  1  9  2 -1</clus>
<clus scale="   90.481">  5  6 -1 -1</clus>
<clus scale="   94.417">  1  5  2 -1</clus>
<clus scale="   95.435">  7  8 -1 -1</clus>
<clus scale="   99.175">  2  5  1 -1</clus>
</clustering>
</event>
<event>
 9    1  0.1612788E-005  0.9736479E+02  0.7546771E-02  0.1288691E+00
         -1   -1    0    0    0  501 -0.00000000000E+00  0.00000000000E+00  0.52525559115E+02  0.52525559115E+02  0.00000000000E+00 0.  1.
          1   -1    0    0  502    0  0.00000000000E+00 -0.00000000000E+00 -0.26890014683E+03  0.26890014683E+03  0.00000000000E+00 0. -1.
         23    2    1    2    0    0 -0.13908862696E+02  0.24565470692E+01 -0.59272507315E+02  0.11023198686E+03  0.91860599377E+02 0.  0.
         23    2    1    2    0    0 -0.14902639879E+02 -0.13585512006E+02 -0.14973688663E+03  0.17944151254E+03  0.96806334480E+02 0.  0.
        -11    1    4    4    0    0  0.22979710905E+02 -0.38228757774E+02 -0.11203499811E+03  0.12058750282E+03  0.00000000000E+00 0. -1.
         11    1    4    4    0    0 -0.37882350785E+02  0.24643245768E+02 -0.37701888512E+02  0.58854009722E+02  0.00000000000E+00 0.  1.
        -13    1    3    3    0    0 -0.48456616025E+02 -0.16344375033E+02 -0.45818610242E+02  0.68662415311E+02  0.00000000000E+00 0.  1.
         13    1    3    3    0    0  0.34547753329E+02  0.18800922102E+02 -0.13453897073E+02  0.41569571545E+02  0.00000000000E+00 0. -1.
         21    1    1    2  502  501  0.28811502576E+02  0.11128964937E+02 -0.73651937751E+01  0.31752206547E+02  0.00000000000E+00 0. -1.
<scales pt_clust_5="13000.00000" pt_clust_6="13000.00000" pt_clust_7="13000.00000" pt_clust_8="13000.00000" pt_clust_9="30.88619"></scales>
<clustering>
<clus scale="   30.886">  1  9  2 -1</clus>
<clus scale="   91.861">  7  8 -1 -1</clus>
<clus scale="   92.449">  1  7  2 -1</clus>
<clus scale="   96.806">  5  6 -1 -1</clus>
<clus scale="   97.365">  2  5  1 -1</clus>
</clustering>
</event>
<event>
 9    1  0.1612788E-005  0.9545661E+02  0.7546771E-02  0.1290709E+00
         -2   -1    0    0    0  501 -0.00000000000E+00  0.00000000000E+00  0.28158159619E+02  0.28158159619E+02  0.00000000000E+00 0.  1.
          2   -1    0    0  502    0  0.00000000000E+00 -0.00000000000E+00 -0.44536037176E+03  0.44536037176E+03  0.00000000000E+00 0. -1.
         23    2    1    2    0    0  0.10180552091E+01  0.43208711026E+01 -0.11971424720E+03  0.15197142665E+03  0.93509930884E+02 0.  0.
         23    2    1    2    0    0  0.39187160143E+01 -0.26887511067E+02 -0.26228861284E+03  0.27944461860E+03  0.92496939691E+02 0.  0.
        -11    1    4    4    0    0 -0.42401421582E+02 -0.19115804941E+02 -0.96377791010E+02  0.10701389233E+03  0.00000000000E+00 0. -1.
         11    1    4    4    0    0  0.46320137597E+02 -0.77717061264E+01 -0.16591082183E+03  0.17243072627E+03  0.00000000000E+00 0.  1.
        -11    1    3    3    0    0 -0.88811649446E+00 -0.44602378317E+02 -0.54759885695E+02  0.70631480119E+02  0.00000000000E+00 0.  1.
         11    1    3    3    0    0  0.19061717036E+01  0.48923249420E+02 -0.64954361501E+02  0.81339946535E+02  0.00000000000E+00 0. -1.
         21    1    1    2  502  501 -0.49367712234E+01  0.22566639965E+02 -0.35199352113E+02  0.42102486133E+02  0.00000000000E+00 0.  1.
<scales pt_clust_5="13000.00000" pt_clust_6="13000.00000" pt_clust_7="13000.00000" pt_clust_8="13000.00000" pt_clust_9="23.10032"></scales>
<clustering>
<clus scale="   23.100">  1  9  2 -1</clus>
<clus scale="   92.497">  5  6 -1 -1</clus>
<clus scale="   93.510">  7  8 -1 -1</clus>
<clus scale="   94.465">  2  5  1 -1</clus>
<clus scale="   94.465">  2  5  1 -1</clus>
</clustering>
</event>
<event>
 9    1  0.1612788E-005  0.1054199E+03  0.7546771E-02  0.1269354E+00
          2   -1    0    0  502    0  0.00000000000E+00  0.00000000000E+00  0.44517474686E+03  0.44517474686E+03  0.00000000000E+00 0. -1.
         -2   -1    0    0    0  501 -0.00000000000E+00 -0.00000000000E+00 -0.44546503260E+02  0.44546503260E+02  0.00000000000E+00 0.  1.
         23    2    1    2    0    0  0.43706775846E+02 -0.17290674160E+02  0.10333395243E+03  0.14655990160E+03  0.92696544524E+02 0.  0.
         23    2    1    2    0    0 -0.32833550614E+02  0.42478707379E+02  0.29704069735E+03  0.31572545315E+03  0.92557567291E+02 0.  0.
        -11    1    3    3    0    0  0.27363207418E+02  0.29377428203E+02  0.84673146511E+02  0.93708698359E+02  0.00000000000E+00 0. -1.
         11    1    3    3    0    0  0.16343568429E+02 -0.46668102363E+02  0.18660805915E+02  0.52851203246E+02  0.00000000000E+00 0.  1.
        -13    1    4    4    0    0  0.29507787009E+02  0.46845353272E+01  0.50957595141E+02  0.59070558385E+02  0.00000000000E+00 0.  1.
         13    1    4    4    0    0 -0.62341337623E+02  0.37794172052E+02  0.24608310220E+03  0.25665489477E+03  0.00000000000E+00 0. -1.
         21    1    1    2  502  501 -0.10873225232E+02 -0.25188033219E+02  0.25359382671E+00  0.27435895360E+02  0.00000000000E+00 0.  1.
<scales pt_clust_5="13000.00000" pt_clust_6="13000.00000" pt_clust_7="13000.00000" pt_clust_8="13000.00000" pt_clust_9="27.43472"></scales>
<clustering>
<clus scale="   27.435">  2  9  1 -1</clus>
<clus scale="   92.558">  7  8 -1 -1</clus>
<clus scale="   92.697">  5  6 -1 -1</clus>
<clus scale="  105.298">  1  7  2 -1</clus>
<clus scale="  105.298">  1  5  2 -1</clus>
</clustering>
</event>
<event>
 9    1  0.1612788E-005  0.1033266E+03  0.7546771E-02  0.1273842E+00
         -2   -1    0    0    0  501 -0.00000000000E+00  0.00000000000E+00  0.24647072170E+02  0.24647072170E+02  0.00000000000E+00 0.  1.
          2   -1    0    0  502    0  0.00000000000E+00 -0.00000000000E+00 -0.79008860771E+03  0.79008860771E+03  0.00000000000E+00 0. -1.
         23    2    1    2    0    0  0.38352889901E+02  0.56088431819E+02 -0.18251169802E+03  0.21497073863E+03  0.91022207225E+02 0.  0.
         23    2    1    2    0    0 -0.21216329430E+02 -0.35454924137E+02 -0.53867797454E+03  0.54801911319E+03  0.91890172947E+02 0.  0.
        -13    1    4    4    0    0  0.11778246219E+02 -0.59016806573E+02 -0.31552832808E+03  0.32121618322E+03  0.00000000000E+00 0.  1.
         13    1    4    4    0    0 -0.32994575649E+02  0.23561882436E+02 -0.22314964647E+03  0.22680292997E+03  0.00000000000E+00 0. -1.
        -13    1    3    3    0    0  0.41244073872E+02  0.14915184749E+02 -0.16394923127E+03  0.16971413259E+03  0.00000000000E+00 0. -1.
         13    1    3    3    0    0 -0.28911839713E+01  0.41173247069E+02 -0.18562466743E+02  0.45256606044E+02  0.00000000000E+00 0.  1.
         21    1    1    2  502  501 -0.17136560471E+02 -0.20633507682E+02 -0.44251862987E+02  0.51745828062E+02  0.00000000000E+00 0. -1.
<scales pt_clust_5="13000.00000" pt_clust_6="13000.00000" pt_clust_7="13000.00000" pt_clust_8="13000.00000" pt_clust_9="26.82170"></scales>
<clustering>
<clus scale="   26.822">  1  9  2 -1</clus>
<clus scale="   91.022">  7  8 -1 -1</clus>
<clus scale="   91.890">  5  6 -1 -1</clus>
<clus scale="  102.555">  1  7  2 -1</clus>
<clus scale="  103.327">  2  5  1 -1</clus>
</clustering>
</event>
<event>
 9    1  0.1612788E-005  0.1060921E+03  0.7546771E-02  0.1268364E+00
         -1   -1    0    0    0  501 -0.00000000000E+00  0.00000000000E+00  0.16439848456E+03  0.16439848456E+03  0.00000000000E+00 0.  1.
          1   -1    0    0  502    0  0.00000000000E+00 -0.00000000000E+00 -0.24138823200E+03  0.24138823200E+03  0.00000000000E+00 0. -1.
         23    2    1    2    0    0  0.53416868938E+02  0.20394083010E+02  0.60210979694E+02  0.12570588252E+03  0.94378632731E+02 0.  0.
         23    2    1    2    0    0 -0.47619976703E+02 -0.85121744934E+00 -0.19354659475E+03  0.22016101801E+03  0.93499747376E+02 0.  0.
        -11    1    3    3    0    0  0.45192111186E+02 -0.24419980145E+02  0.61493083167E+02  0.80125287027E+02  0.00000000000E+00 0.  1.
         11    1    3    3    0    0  0.82247577517E+01  0.44814063155E+02 -0.12821034727E+01  0.45580595496E+02  0.00000000000E+00 0. -1.
        -13    1    4    4    0    0  0.12463483898E+02  0.32835115499E+02 -0.52081510593E+02  0.62816932322E+02  0.00000000000E+00 0.  1.
         13    1    4    4    0    0 -0.60083460601E+02 -0.33686332948E+02 -0.14146508416E+03  0.15734408569E+03  0.00000000000E+00 0. -1.
         21    1    1    2  502  501 -0.57968922348E+01 -0.19542865560E+02  0.56345867621E+02  0.59919816020E+02  0.00000000000E+00 0.  1.
<scales pt_clust_5="13000.00000" pt_clust_6="13000.00000" pt_clust_7="13000.00000" pt_clust_8="13000.00000" pt_clust_9="20.38449"></scales>
<clustering>
<clus scale="   20.384">  1  9  2 -1</clus>
<clus scale="   93.500">  7  8 -1 -1</clus>
<clus scale="   94.379">  5  6 -1 -1</clus>
<clus scale="  105.311">  2  7  1 -1</clus>
<clus scale="  105.311">  2  5  1 -1</clus>
</clustering>
</event>
<event>
 9    1  0.1612788E-005  0.9770102E+02  0.7546771E-02  0.1286353E+00
          3   -1    0    0  502    0  0.00000000000E+00  0.00000000000E+00  0.69678881687E+02  0.69678881687E+02  0.00000000000E+00 0. -1.
         -3   -1    0    0    0  501 -0.00000000000E+00 -0.00000000000E+00 -0.26035433375E+03  0.26035433375E+03  0.00000000000E+00 0.  1.
         23    2    1    2    0    0  0.40410265912E+02  0.25209973878E+02 -0.84164673243E+02  0.13335879182E+03  0.91827788607E+02 0.  0.
         23    2    1    2    0    0 -0.14209938750E+02 -0.80206982127E+01 -0.10863149132E+02  0.96024548272E+02  0.94002403706E+02 0.  0.
        -11    1    3    3    0    0  0.47775571735E+02  0.61299586921E+00 -0.94332632410E+02  0.10574273760E+03  0.00000000000E+00 0. -1.
         11    1    3    3    0    0 -0.73653058228E+01  0.24596978009E+02  0.10167959167E+02  0.27616054220E+02  0.00000000000E+00 0.  1.
        -13    1    4    4    0    0  0.40355937573E+02 -0.58052097574E+01 -0.57513096111E+01  0.41174989010E+02  0.00000000000E+00 0. -1.
         13    1    4    4    0    0 -0.54565876323E+02 -0.22154884554E+01 -0.51118395208E+01  0.54849559262E+02  0.00000000000E+00 0.  1.
         21    1    1    2  502  501 -0.26200327162E+02 -0.17189275666E+02 -0.95647629693E+02  0.10064987535E+03  0.00000000000E+00 0.  1.
<scales pt_clust_5="13000.00000" pt_clust_6="13000.00000" pt_clust_7="13000.00000" pt_clust_8="13000.00000" pt_clust_9="31.33574"></scales>
<clustering>
<clus scale="   31.336">  2  9  1 -1</clus>
<clus scale="   91.828">  5  6 -1 -1</clus>
<clus scale="   94.002">  7  8 -1 -1</clus>
<clus scale="   95.611">  2  5  1 -1</clus>
<clus scale="   97.701">  1  5  2 -1</clus>
</clustering>
</event>
<event>
 9    1  0.1612788E-005  0.1488901E+03  0.7546771E-02  0.1202235E+00
          1   -1    0    0  502    0  0.00000000000E+00  0.00000000000E+00  0.66983049597E+03  0.66983049597E+03  0.00000000000E+00 0. -1.
         -1   -1    0    0    0  501 -0.00000000000E+00 -0.00000000000E+00 -0.53243323230E+02  0.53243323230E+02  0.00000000000E+00 0.  1.
         23    2    1    2    0    0  0.71262995196E+02  0.49059297987E+02  0.13702556590E+03  0.18636919100E+03  0.92044774092E+02 0.  0.
         23    2    1    2    0    0 -0.10969937535E+03 -0.72726166810E+02  0.45980729380E+03  0.48743284233E+03  0.94047754142E+02 0.  0.
        -11    1    4    4    0    0 -0.11817642971E+03 -0.43955382939E+02  0.31015090191E+03  0.33480042740E+03  0.00000000000E+00 0.  1.
         11    1    4    4    0    0  0.84770543597E+01 -0.28770783871E+02  0.14965639189E+03  0.15263241494E+03  0.00000000000E+00 0. -1.
        -11    1    3    3    0    0 -0.13617774175E+02  0.31470382729E+02  0.65711247173E+02  0.74120150888E+02  0.00000000000E+00 0.  1.
         11    1    3    3    0    0  0.84880769371E+02  0.17588915257E+02  0.71314318732E+02  0.11224904011E+03  0.00000000000E+00 0. -1.
         21    1    1    2  502  501  0.38436380158E+02  0.23666868823E+02  0.19754313033E+02  0.49271785872E+02  0.00000000000E+00 0. -1.
<scales pt_clust_5="13000.00000" pt_clust_6="13000.00000" pt_clust_7="13000.00000" pt_clust_8="13000.00000" pt_clust_9="45.13841"></scales>
<clustering>
<clus scale="   45.138">  2  9  1 -1</clus>
<clus scale="   92.045">  7  8 -1 -1</clus>
<clus scale="   94.048">  5  6 -1 -1</clus>
<clus scale="  147.633">  2  7  1 -1</clus>
<clus scale="  148.890">  1  5  2 -1</clus>
</clustering>
</event>
<event>
 9    1  0.1612788E-005  0.1156042E+03  0.7546771E-02  0.1252168E+00
          1   -1    0    0  502    0  0.00000000000E+00  0.00000000000E+00  0.15216094316E+03  0.15216094316E+03  0.00000000000E+00 0. -1.
         -1   -1    0    0    0  501 -0.00000000000E+00 -0.00000000000E+00 -0.11510475955E+03  0.11510475955E+03  0.00000000000E+00 0.  1.
         23    2    1    2    0    0  0.30629764149E+01  0.53542544702E+02  0.63294333940E+01  0.10415183722E+03  0.89058169479E+02 0.  0.
         23    2    1    2    0    0 -0.26188662874E+02 -0.78825310669E+02  0.30440390973E+02  0.12884875743E+03  0.93680890384E+02 0.  0.
        -11    1    4    4    0    0 -0.45470903376E+02 -0.86758763417E+02  0.40133220252E+02  0.10585537989E+03  0.00000000000E+00 0. -1.
         11    1    4    4    0    0  0.19282240502E+02  0.79334527477E+01 -0.96928292798E+01  0.22993377541E+02  0.00000000000E+00 0.  1.
        -13    1    3    3    0    0 -0.87914875791E+01  0.70989575747E+02 -0.16142978145E+02  0.73330797500E+02  0.00000000000E+00 0.  1.
         13    1    3    3    0    0  0.11854463994E+02 -0.17447031045E+02  0.22472411539E+02  0.30821039717E+02  0.00000000000E+00 0. -1.
         21    1    1    2  502  501  0.23125686459E+02  0.25282765967E+02  0.28635925072E+00  0.34265108066E+02  0.00000000000E+00 0.  1.
<scales pt_clust_5="13000.00000" pt_clust_6="13000.00000" pt_clust_7="13000.00000" pt_clust_8="13000.00000" pt_clust_9="34.26391"></scales>
<clustering>
<clus scale="   34.264">  2  9  1 -1</clus>
<clus scale="   89.058">  7  8 -1 -1</clus>
<clus scale="   93.681">  5  6 -1 -1</clus>
<clus scale="  111.891">  2  7  1 -1</clus>
<clus scale="  115.604">  1  5  2 -1</clus>
</clustering>
</event>
<event>
 9    1  0.1612788E-005  0.1339826E+03  0.7546771E-02  0.1222505E+00
         -1   -1    0    0    0  501 -0.00000000000E+00  0.00000000000E+00  0.62608506150E+02  0.62608506150E+02  0.00000000000E+00 0.  1.
          1   -1    0    0  502    0  0.00000000000E+00 -0.00000000000E+00 -0.51443478934E+03  0.51443478934E+03  0.00000000000E+00 0. -1.
         23    2    1    2    0    0  0.74244673569E+01  0.68325648071E+02 -0.62404930599E+02  0.12935623957E+03  0.90084096554E+02 0.  0.
         23    2    1    2    0    0  0.12760257191E+02 -0.10633167876E+03 -0.37698262083E+03  0.40289192759E+03  0.93470630880E+02 0.  0.
        -13    1    3    3    0    0 -0.40594460482E+02  0.24458216674E+02 -0.34304506764E+02  0.58505672964E+02  0.00000000000E+00 0.  1.
         13    1    3    3    0    0  0.48018927839E+02  0.43867431397E+02 -0.28100423835E+02  0.70850566602E+02  0.00000000000E+00 0. -1.
        -13    1    4    4    0    0 -0.27044536925E+02 -0.17646690336E+02 -0.36173361697E+02  0.48490460440E+02  0.00000000000E+00 0.  1.
         13    1    4    4    0    0  0.39804794115E+02 -0.88684988429E+02 -0.34080925914E+03  0.35440146715E+03  0.00000000000E+00 0. -1.
         21    1    1    2  502  501 -0.20184724547E+02  0.38006030694E+02 -0.12438731755E+02  0.44795128327E+02  0.00000000000E+00 0.  1.
<scales pt_clust_5="13000.00000" pt_clust_6="13000.00000" pt_clust_7="13000.00000" pt_clust_8="13000.00000" pt_clust_9="43.03349"></scales>
<clustering>
<clus scale="   43.033">  1  9  2 -1</clus>
<clus scale="   90.084">  5  6 -1 -1</clus>
<clus scale="   93.471">  7  8 -1 -1</clus>
<clus scale="  131.642">  1  5  2 -1</clus>
<clus scale="  133.983">  2  5  1 -1</clus>
</clustering>
</event>
<event>
 9    1  0.1612788E-005  0.9382430E+02  0.7546771E-02  0.1294028E+00
         -2   -1    0    0    0  501 -0.00000000000E+00  0.00000000000E+00  0.10226705601E+03  0.10226705601E+03  0.00000000000E+00 0.  1.
          2   -1    0    0  502    0  0.00000000000E+00 -0.00000000000E+00 -0.31760278015E+03  0.31760278015E+03  0.00000000000E+00 0. -1.
         23    2    1    2    0    0  0.18639608807E+02  0.18590955297E+02  0.47576551773E+02  0.10704319507E+03  0.92204439679E+02 0.  0.
         23    2    1    2    0    0  0.99501118549E-01  0.21262169762E+02 -0.24959482277E+03  0.26681815953E+03  0.91881798731E+02 0.  0.
        -13    1    4    4    0    0  0.44649143745E+02  0.12734560587E+02 -0.15681928417E+03  0.16354816709E+03  0.00000000000E+00 0. -1.
         13    1    4    4    0    0 -0.44549642626E+02  0.85276091748E+01 -0.92775538600E+02  0.10326999244E+03  0.00000000000E+00 0.  1.
        -13    1    3    3    0    0  0.11797721020E+02  0.56064421279E+02  0.33894846941E+02  0.66567756488E+02  0.00000000000E+00 0. -1.
         13    1    3    3    0    0  0.68418877869E+01 -0.37473465982E+02  0.13681704832E+02  0.40475438581E+02  0.00000000000E+00 0.  1.
         21    1    1    2  502  501 -0.18739109926E+02 -0.39853125059E+02 -0.13317453145E+02  0.46008481566E+02  0.00000000000E+00 0.  1.
<scales pt_clust_5="13000.00000" pt_clust_6="13000.00000" pt_clust_7="13000.00000" pt_clust_8="13000.00000" pt_clust_9="44.03891"></scales>
<clustering>
<clus scale="   44.039">  1  9  2 -1</clus>
<clus scale="   91.882">  5  6 -1 -1</clus>
<clus scale="   92.204">  7  8 -1 -1</clus>
<clus scale="   93.507">  2  5  1 -1</clus>
<clus scale="   93.507">  2  5  1 -1</clus>
</clustering>
</event>
<event>
 9    1  0.1612788E-005  0.1003737E+03  0.7546771E-02  0.1291690E+00
          1   -1    0    0  502    0  0.00000000000E+00  0.00000000000E+00  0.22666315198E+03  0.22666315198E+03  0.00000000000E+00 0. -1.
         -1   -1    0    0    0  501 -0.00000000000E+00 -0.00000000000E+00 -0.57965292228E+02  0.57965292228E+02  0.00000000000E+00 0.  1.
         23    2    1    2    0    0  0.34173732705E+02  0.17757565808E+02  0.13658151920E+02  0.80484313869E+02  0.69339775848E+02 0.  0.
         23    2    1    2    0    0 -0.42020287199E+02  0.77185484697E+01  0.14145963706E+03  0.17422725987E+03  0.92298584169E+02 0.  0.
        -11    1    4    4    0    0  0.28562260825E+02  0.11570631133E+02  0.48112220142E+02  0.57135522884E+02  0.00000000000E+00 0. -1.
         11    1    4    4    0    0 -0.70582548024E+02 -0.38520826629E+01  0.93347416915E+02  0.11709173699E+03  0.00000000000E+00 0.  1.
        -13    1    3    3    0    0  0.38720448764E+02 -0.12328363471E+02  0.25342399987E+02  0.47890488988E+02  0.00000000000E+00 0. -1.
         13    1    3    3    0    0 -0.45467160596E+01  0.30085929279E+02 -0.11684248067E+02  0.32593824881E+02  0.00000000000E+00 0.  1.
         21    1    1    2  502  501  0.78465544948E+01 -0.25476114277E+02  0.13580070770E+02  0.29916870462E+02  0.00000000000E+00 0. -1.
<scales pt_clust_5="13000.00000" pt_clust_6="13000.00000" pt_clust_7="13000.00000" pt_clust_8="13000.00000" pt_clust_9="26.65710"></scales>
<clustering>
<clus scale="   26.657">  2  9  1 -1</clus>
<clus scale="   69.340">  7  8 -1 -1</clus>
<clus scale="   79.774">  2  7  1 -1</clus>
<clus scale="   92.299">  5  6 -1 -1</clus>
<clus scale="  100.374">  1  5  2 -1</clus>
</clustering>
</event>
<event>
 9    1  0.1678981E-005  0.9930361E+02  0.7546771E-02  0.1284439E+00
         -1   -1    0    0    0  501 -0.00000000000E+00  0.00000000000E+00  0.47379913902E+02  0.47379913902E+02  0.00000000000E+00 0.  1.
          1   -1    0    0  502    0  0.00000000000E+00 -0.00000000000E+00 -0.42078618163E+03  0.42078618163E+03  0.00000000000E+00 0. -1.
         23    2    1    2    0    0  0.26355116037E+02  0.12181465359E+02 -0.39667727538E+02  0.10611562690E+03  0.94042636202E+02 0.  0.
         23    2    1    2    0    0 -0.39626150409E+01  0.10451010772E+01 -0.31442701645E+03  0.32965755105E+03  0.98959374165E+02 0.  0.
        -11    1    3    3    0    0  0.45261541860E+02  0.35455016040E+02 -0.14163673292E+01  0.57512358935E+02  0.00000000000E+00 0.  1.
         11    1    3    3    0    0 -0.18906425822E+02 -0.23273550680E+02 -0.38251360209E+02  0.48603267961E+02  0.00000000000E+00 0. -1.
        -13    1    4    4    0    0 -0.46963756075E+02 -0.12316053336E+02 -0.21644934923E+03  0.22182786195E+03  0.00000000000E+00 0. -1.
         13    1    4    4    0    0  0.43001141034E+02  0.13361154413E+02 -0.97977667214E+02  0.10782968909E+03  0.00000000000E+00 0.  1.
         21    1    1    2  502  501 -0.22392500996E+02 -0.13226566437E+02 -0.19311523737E+02  0.32392917584E+02  0.00000000000E+00 0. -1.
<scales pt_clust_5="13000.00000" pt_clust_6="13000.00000" pt_clust_7="13000.00000" pt_clust_8="13000.00000" pt_clust_9="26.00704"></scales>
<clustering>
<clus scale="   26.007">  1  9  2 -1</clus>
<clus scale="   94.043">  5  6 -1 -1</clus>
<clus scale="   94.405">  1  5  2 -1</clus>
<clus scale="   98.959">  7  8 -1 -1</clus>
<clus scale="   99.304">  2  5  1 -1</clus>
</clustering>
</event>
<event>
 9    1  0.1612788E-005  0.1188827E+03  0.7546771E-02  0.1247046E+00
          2   -1    0    0  502    0  0.00000000000E+00  0.00000000000E+00  0.62743585472E+03  0.62743585472E+03  0.00000000000E+00 0. -1.
         -2   -1    0    0    0  501 -0.00000000000E+00 -0.00000000000E+00 -0.63453850292E+02  0.63453850292E+02  0.00000000000E+00 0.  1.
         23    2    1    2    0    0  0.28528656347E+02 -0.73720935920E+02  0.11048611652E+03  0.16244737452E+03  0.89069113152E+02 0.  0.
         23    2    1    2    0    0 -0.34989401542E+01  0.69687223523E+02  0.47848763108E+03  0.49284254461E+03  0.95261791779E+02 0.  0.
        -11    1    3    3    0    0 -0.47793196688E+01 -0.47431939896E+02  0.11013879517E+03  0.12001327019E+03  0.00000000000E+00 0. -1.
         11    1    3    3    0    0  0.33307976016E+02 -0.26288996024E+02  0.34732134842E+00  0.42434104331E+02  0.00000000000E+00 0.  1.
        -13    1    4    4    0    0 -0.43973641134E+02  0.22588906212E+02  0.13457064382E+03  0.14336386566E+03  0.00000000000E+00 0. -1.
         13    1    4    4    0    0  0.40474700980E+02  0.47098317310E+02  0.34391698726E+03  0.34947867895E+03  0.00000000000E+00 0.  1.
         21    1    1    2  502  501 -0.25029716193E+02  0.40337123970E+01 -0.24991743173E+02  0.35599785888E+02  0.00000000000E+00 0.  1.
<scales pt_clust_5="13000.00000" pt_clust_6="13000.00000" pt_clust_7="13000.00000" pt_clust_8="13000.00000" pt_clust_9="25.35266"></scales>
<clustering>
<clus scale="   25.353">  2  9  1 -1</clus>
<clus scale="   89.069">  5  6 -1 -1</clus>
<clus scale="   95.262">  7  8 -1 -1</clus>
<clus scale="  113.981">  2  5  1 -1</clus>
<clus scale="  118.883">  1  5  2 -1</clus>
</clustering>
</event>
<event>
 9    1  0.1612788E-005  0.9708638E+02  0.7546771E-02  0.1286800E+00
          1   -1    0    0  502    0  0.00000000000E+00  0.00000000000E+00  0.10999704801E+03  0.10999704801E+03  0.00000000000E+00 0. -1.
         -1   -1    0    0    0  501 -0.00000000000E+00 -0.00000000000E+00 -0.12971309240E+03  0.12971309240E+03  0.00000000000E+00 0.  1.
         23    2    1    2    0    0 -0.20004334978E+01 -0.28377916662E+02 -0.48637681460E+02  0.10698323284E+03  0.90942180332E+02 0.  0.
         23    2    1    2    0    0  0.26455172191E+02  0.25637723078E+02  0.39162542597E+02  0.10607322018E+03  0.91436613649E+02 0.  0.
        -11    1    4    4    0    0 -0.16240130103E+02  0.47775114045E+02  0.18835157512E+02  0.53860621110E+02  0.00000000000E+00 0. -1.
         11    1    4    4    0    0  0.42695302294E+02 -0.22137390968E+02  0.20327385084E+02  0.52212599066E+02  0.00000000000E+00 0.  1.
        -11    1    3    3    0    0 -0.10860767200E+02 -0.59869704603E+02 -0.21683597612E+02  0.64595016827E+02  0.00000000000E+00 0.  1.
         11    1    3    3    0    0  0.88603337024E+01  0.31491787941E+02 -0.26954083847E+02  0.42388216017E+02  0.00000000000E+00 0. -1.
         21    1    1    2  502  501 -0.24454738693E+02  0.27401935844E+01 -0.10240905522E+02  0.26653687388E+02  0.00000000000E+00 0. -1.
<scales pt_clust_5="13000.00000" pt_clust_6="13000.00000" pt_clust_7="13000.00000" pt_clust_8="13000.00000" pt_clust_9="24.60778"></scales>
<clustering>
<clus scale="   24.608">  2  9  1 -1</clus>
<clus scale="   90.942">  7  8 -1 -1</clus>
<clus scale="   91.437">  5  6 -1 -1</clus>
<clus scale="   96.621">  2  7  1 -1</clus>
<clus scale="   97.086">  1  5  2 -1</clus>
</clustering>
</event>
<event>
 9    1  0.1612788E-005  0.1026407E+03  0.7546771E-02  0.1276925E+00
         -1   -1    0    0    0  501 -0.00000000000E+00  0.00000000000E+00  0.35421421698E+03  0.35421421698E+03  0.00000000000E+00 0.  1.
          1   -1    0    0  502    0  0.00000000000E+00 -0.00000000000E+00 -0.15284884749E+03  0.15284884749E+03  0.00000000000E+00 0. -1.
         23    2    1    2    0    0  0.68919487597E+02  0.47367072070E+02  0.25010816705E+03  0.27885931487E+03  0.90636013702E+02 0.  0.
         23    2    1    2    0    0 -0.42690415859E+02 -0.16854796417E+02 -0.11493700352E+03  0.15073997694E+03  0.86055041122E+02 0.  0.
        -11    1    4    4    0    0  0.20918083976E+02 -0.25638521572E+02 -0.44056346625E+02  0.55098654281E+02  0.00000000000E+00 0.  1.
         11    1    4    4    0    0 -0.63608499836E+02  0.87837251554E+01 -0.70880656895E+02  0.95641322664E+02  0.00000000000E+00 0. -1.
        -13    1    3    3    0    0 -0.69210637142E+01 -0.19222934080E+02  0.63514997354E+02  0.66720140936E+02  0.00000000000E+00 0.  1.
         13    1    3    3    0    0  0.75840551311E+02  0.66590006149E+02  0.18659316969E+03  0.21213917394E+03  0.00000000000E+00 0. -1.
         21    1    1    2  502  501 -0.26229071737E+02 -0.30512275653E+02  0.66194205966E+02  0.77463772650E+02  0.00000000000E+00 0.  1.
<scales pt_clust_5="13000.00000" pt_clust_6="13000.00000" pt_clust_7="13000.00000" pt_clust_8="13000.00000" pt_clust_9="40.23634"></scales>
<clustering>
<clus scale="   40.236">  1  9  2 -1</clus>
<clus scale="   86.055">  5  6 -1 -1</clus>
<clus scale="   90.636">  7  8 -1 -1</clus>
<clus scale="   98.619">  2  5  1 -1</clus>
<clus scale="   98.619">  2  5  1 -1</clus>
</clustering>
</event>
<event>
 9    1  0.1612788E-005  0.1598790E+03  0.7546771E-02  0.1209584E+00
         -1   -1    0    0    0  501 -0.00000000000E+00  0.00000000000E+00  0.16132212268E+03  0.16132212268E+03  0.00000000000E+00 0.  1.
          1   -1    0    0  502    0  0.00000000000E+00 -0.00000000000E+00 -0.28575678785E+03  0.28575678785E+03  0.00000000000E+00 0. -1.
         23    2    1    2    0    0 -0.96639257491E+02  0.19495100359E+02 -0.71118523317E+02  0.15606523193E+03  0.97873935407E+02 0.  0.
         23    2    1    2    0    0 -0.38116904944E+02  0.12228139536E+02 -0.10214375101E+03  0.14421544061E+03  0.93607273235E+02 0.  0.
        -11    1    4    4    0    0 -0.65471906609E+02  0.26874197982E+02 -0.70317835102E+02  0.99766682844E+02  0.00000000000E+00 0.  1.
         11    1    4    4    0    0  0.27355001665E+02 -0.14646058446E+02 -0.31825915903E+02  0.44448757768E+02  0.00000000000E+00 0. -1.
        -11    1    3    3    0    0 -0.34684484942E+02 -0.13785167562E+02 -0.76921827990E+02  0.85498607952E+02  0.00000000000E+00 0. -1.
         11    1    3    3    0    0 -0.61954772549E+02  0.33280267921E+02  0.58033046732E+01  0.70566623978E+02  0.00000000000E+00 0.  1.
         21    1    1    2  502  501  0.13475616243E+03 -0.31723239895E+02  0.48827609151E+02  0.14679823800E+03  0.00000000000E+00 0. -1.
<scales pt_clust_5="13000.00000" pt_clust_6="13000.00000" pt_clust_7="13000.00000" pt_clust_8="13000.00000" pt_clust_9="126.41994"></scales>
<clustering>
<clus scale="   93.607">  5  6 -1 -1</clus>
<clus scale="   97.874">  7  8 -1 -1</clus>
<clus scale="  101.807">  2  5  1 -1</clus>
<clus scale="  126.420">  1  9  2 -1</clus>
<clus scale="  101.807">  2  5  1 -1</clus>
</clustering>
</event>
<event>
 9    1  0.1612788E-005  0.1048749E+03  0.7546771E-02  0.1270635E+00
          1   -1    0    0  502    0  0.00000000000E+00  0.00000000000E+00  0.58082650484E+03  0.58082650484E+03  0.00000000000E+00 0. -1.
         -1   -1    0    0    0  501 -0.00000000000E+00 -0.00000000000E+00 -0.28075008754E+02  0.28075008754E+02  0.00000000000E+00 0.  1.
         23    2    1    2    0    0  0.45142872852E+02 -0.28933792745E+02  0.17580912460E+03  0.20482716294E+03  0.90389573817E+02 0.  0.
         23    2    1    2    0    0 -0.53506658458E+02  0.95803873157E+01  0.36512586744E+03  0.37990542475E+03  0.89757932010E+02 0.  0.
        -13    1    3    3    0    0  0.18258028004E+02  0.20686744077E+02  0.94644836724E+01  0.29169734628E+02  0.00000000000E+00 0.  1.
         13    1    3    3    0    0  0.26884844848E+02 -0.49620536822E+02  0.16634464092E+03  0.17565742831E+03  0.00000000000E+00 0. -1.
        -13    1    4    4    0    0  0.52207351691E-01 -0.33911140177E+02  0.87665491988E+02  0.93995779901E+02  0.00000000000E+00 0. -1.
         13    1    4    4    0    0 -0.53558865810E+02  0.43491527493E+02  0.27746037545E+03  0.28590964485E+03  0.00000000000E+00 0.  1.
         21    1    1    2  502  501  0.83637856062E+01  0.19353405429E+02  0.11816504044E+02  0.24168925900E+02  0.00000000000E+00 0.  1.
<scales pt_clust_5="13000.00000" pt_clust_6="13000.00000" pt_clust_7="13000.00000" pt_clust_8="13000.00000" pt_clust_9="21.08334"></scales>
<clustering>
<clus scale="   21.083">  2  9  1 -1</clus>
<clus scale="   89.758">  7  8 -1 -1</clus>
<clus scale="   90.390">  5  6 -1 -1</clus>
<clus scale="  104.331">  1  7  2 -1</clus>
<clus scale="  104.331">  1  5  2 -1</clus>
</clustering>
</event>
<event>
 9    1  0.1612788E-005  0.1006395E+03  0.7546771E-02  0.1278965E+00
          1   -1    0    0  502    0  0.00000000000E+00  0.00000000000E+00  0.48577145563E+03  0.48577145563E+03  0.00000000000E+00 0. -1.
         -1   -1    0    0    0  501 -0.00000000000E+00 -0.00000000000E+00 -0.49882814408E+02  0.49882814408E+02  0.00000000000E+00 0.  1.
         23    2    1    2    0    0 -0.42514567575E+02  0.32260742621E+00  0.10855390826E+03  0.14774892761E+03  0.90764541976E+02 0.  0.
         23    2    1    2    0    0  0.33335223002E+02  0.34107917974E+02  0.33594420325E+03  0.35124685877E+03  0.90781390919E+02 0.  0.
        -11    1    4    4    0    0 -0.23902247532E+02  0.24003577479E+02  0.56953220223E+02  0.66265816698E+02  0.00000000000E+00 0.  1.
         11    1    4    4    0    0  0.57237470534E+02  0.10104340494E+02  0.27899098302E+03  0.28498104207E+03  0.00000000000E+00 0. -1.
        -11    1    3    3    0    0 -0.63825164608E+02 -0.99288893713E+01  0.41820316966E+02  0.76949161090E+02  0.00000000000E+00 0.  1.
         11    1    3    3    0    0  0.21310597033E+02  0.10251496798E+02  0.66733591291E+02  0.70799766519E+02  0.00000000000E+00 0. -1.
         21    1    1    2  502  501  0.91793445725E+01 -0.34430525400E+02 -0.86094702801E+01  0.36658483665E+02  0.00000000000E+00 0.  1.
<scales pt_clust_5="13000.00000" pt_clust_6="13000.00000" pt_clust_7="13000.00000" pt_clust_8="13000.00000" pt_clust_9="35.63315"></scales>
<clustering>
<clus scale="   35.633">  2  9  1 -1</clus>
<clus scale="   90.765">  7  8 -1 -1</clus>
<clus scale="   90.781">  5  6 -1 -1</clus>
<clus scale="  100.624">  2  7  1 -1</clus>
<clus scale="  100.639">  1  5  2 -1</clus>
</clustering>
</event>
<event>
 9    1  0.1612788E-005  0.9397725E+02  0.7546771E-02  0.1295275E+00
         -1   -1    0    0    0  501 -0.00000000000E+00  0.00000000000E+00  0.16066515782E+03  0.16066515782E+03  0.00000000000E+00 0.  1.
          1   -1    0    0  502    0  0.00000000000E+00 -0.00000000000E+00 -0.87974914616E+02  0.87974914616E+02  0.00000000000E+00 0. -1.
         23    2    1    2    0    0  0.10754122628E+02 -0.86458179776E+01  0.21549120976E+02  0.92806046422E+02  0.89208723315E+02 0.  0.
         23    2    1    2    0    0  0.10132682126E+02  0.24832139262E+02 -0.23533002207E+01  0.96169054359E+02  0.92323575576E+02 0.  0.
        -11    1    3    3    0    0 -0.12156436774E+01  0.37707002308E+02  0.24264034195E+02  0.44855759586E+02  0.00000000000E+00 0.  1.
         11    1    3    3    0    0  0.11969766306E+02 -0.46352820286E+02 -0.27149132191E+01  0.47950286836E+02  0.00000000000E+00 0. -1.
        -13    1    4    4    0    0  0.50136118516E+02  0.11803654655E+02 -0.12262143173E+02  0.52946357743E+02  0.00000000000E+00 0. -1.
         13    1    4    4    0    0 -0.40003436390E+02  0.13028484607E+02  0.99088429521E+01  0.43222696616E+02  0.00000000000E+00 0.  1.
         21    1    1    2  502  501 -0.20886804755E+02 -0.16186321284E+02  0.53494422450E+02  0.59664971657E+02  0.00000000000E+00 0.  1.
<scales pt_clust_5="13000.00000" pt_clust_6="13000.00000" pt_clust_7="13000.00000" pt_clust_8="13000.00000" pt_clust_9="26.42453"></scales>
<clustering>
<clus scale="   26.425">  1  9  2 -1</clus>
<clus scale="   89.209">  5  6 -1 -1</clus>
<clus scale="   90.919">  1  5  2 -1</clus>
<clus scale="   92.324">  7  8 -1 -1</clus>
<clus scale="   93.977">  2  5  1 -1</clus>
</clustering>
</event>
<event>
 9    1  0.1612788E-005  0.9136906E+02  0.7546771E-02  0.1307778E+00
         -1   -1    0    0    0  501 -0.00000000000E+00  0.00000000000E+00  0.10712005449E+03  0.10712005449E+03  0.00000000000E+00 0.  1.
          1   -1    0    0  502    0  0.00000000000E+00 -0.00000000000E+00 -0.16743762330E+03  0.16743762330E+03  0.00000000000E+00 0. -1.
         23    2    1    2    0    0 -0.22112658106E+02  0.13090840289E+02  0.42990541153E+02  0.10319394252E+03  0.90224516601E+02 0.  0.
         23    2    1    2    0    0 -0.20832404967E+02  0.12280006376E+02 -0.87089978308E+02  0.11891389164E+03  0.77272644899E+02 0.  0.
        -11    1    3    3    0    0 -0.16055949939E+02 -0.32179511869E+02  0.44843515206E+02  0.57482652763E+02  0.00000000000E+00 0.  1.
         11    1    3    3    0    0 -0.60567081675E+01  0.45270352158E+02 -0.18529740531E+01  0.45711289756E+02  0.00000000000E+00 0. -1.
        -13    1    4    4    0    0 -0.16458230989E+02 -0.32083166100E+02 -0.33636167947E+02  0.49311202667E+02  0.00000000000E+00 0.  1.
         13    1    4    4    0    0 -0.43741739779E+01  0.44363172476E+02 -0.53453810361E+02  0.69602688972E+02  0.00000000000E+00 0. -1.
         21    1    1    2  502  501  0.42945063073E+02 -0.25370846665E+02 -0.16218131658E+02  0.52449843635E+02  0.00000000000E+00 0.  1.
<scales pt_clust_5="13000.00000" pt_clust_6="13000.00000" pt_clust_7="13000.00000" pt_clust_8="13000.00000" pt_clust_9="49.87944"></scales>
<clustering>
<clus scale="   49.879">  2  9  1 -1</clus>
<clus scale="   77.273">  7  8 -1 -1</clus>
<clus scale="   78.606">  2  7  1 -1</clus>
<clus scale="   90.225">  5  6 -1 -1</clus>
<clus scale="   49.879">  2  5  1 -1</clus>
</clustering>
</event>
<event>
 9    1  0.1612788E-005  0.1872810E+03  0.7546771E-02  0.1161247E+00
         -1   -1    0    0    0  501 -0.00000000000E+00  0.00000000000E+00  0.25131189347E+03  0.25131189347E+03  0.00000000000E+00 0.  1.
          1   -1    0    0  502    0  0.00000000000E+00 -0.00000000000E+00 -0.65406091434E+03  0.65406091434E+03  0.00000000000E+00 0. -1.
         23    2    1    2    0    0 -0.15677504954E+02 -0.16686473673E+03  0.18330721965E+03  0.26531089111E+03  0.93266862481E+02 0.  0.
         23    2    1    2    0    0  0.70519220539E+02  0.94498147838E+02 -0.46851766630E+03  0.49153631827E+03  0.90533353746E+02 0.  0.
        -11    1    4    4    0    0  0.79643682533E+02  0.32913905869E+02 -0.25857033302E+03  0.27255285448E+03  0.00000000000E+00 0.  1.
         11    1    4    4    0    0 -0.91244619942E+01  0.61584241969E+02 -0.20994733327E+03  0.21898346379E+03  0.00000000000E+00 0. -1.
        -13    1    3    3    0    0  0.60155805138E+01 -0.16226573457E+03  0.18077153271E+03  0.24299115799E+03  0.00000000000E+00 0.  1.
         13    1    3    3    0    0 -0.21693085468E+02 -0.45990021678E+01  0.25356869382E+01  0.22319733115E+02  0.00000000000E+00 0. -1.
         21    1    1    2  502  501 -0.54841715584E+02  0.72366588896E+02 -0.11753857423E+03  0.14852559843E+03  0.00000000000E+00 0.  1.
<scales pt_clust_5="13000.00000" pt_clust_6="13000.00000" pt_clust_7="13000.00000" pt_clust_8="13000.00000" pt_clust_9="90.79943"></scales>
<clustering>
<clus scale="   90.533">  5  6 -1 -1</clus>
<clus scale="   90.799">  2  9  1 -1</clus>
<clus scale="   93.267">  7  8 -1 -1</clus>
<clus scale="  185.935">  2  5  1 -1</clus>
<clus scale="   90.799">  2  5  1 -1</clus>
</clustering>
</event>
<event>
 9    1  0.1612788E-005  0.1051138E+03  0.7546771E-02  0.1272036E+00
         -2   -1    0    0    0  501 -0.00000000000E+00  0.00000000000E+00  0.23701706254E+03  0.23701706254E+03  0.00000000000E+00 0.  1.
          2   -1    0    0  502    0  0.00000000000E+00 -0.00000000000E+00 -0.15122971071E+03  0.15122971071E+03  0.00000000000E+00 0. -1.
         23    2    1    2    0    0  0.22073191918E+02  0.70624704418E+02 -0.17137151006E+02  0.11762710320E+03  0.89818588207E+02 0.  0.
         23    2    1    2    0    0  0.47398044344E+02 -0.20405738567E+02 -0.30554875223E+02  0.11198505351E+03  0.94573162346E+02 0.  0.
        -13    1    4    4    0    0  0.54229283535E+02 -0.44258706721E+02 -0.45057521347E+02  0.83245591735E+02  0.00000000000E+00 0. -1.
         13    1    4    4    0    0 -0.68312391910E+01  0.23852968154E+02  0.14502646124E+02  0.28739461777E+02  0.00000000000E+00 0.  1.
        -13    1    3    3    0    0  0.59088257567E+01  0.49085745695E+02  0.33882629576E+02  0.59936276488E+02  0.00000000000E+00 0.  1.
         13    1    3    3    0    0  0.16164366162E+02  0.21538958724E+02 -0.51019780583E+02  0.57690826715E+02  0.00000000000E+00 0. -1.
         21    1    1    2  502  501 -0.69471236262E+02 -0.50218965851E+02  0.13347937806E+03  0.15863461654E+03  0.00000000000E+00 0.  1.
<scales pt_clust_5="13000.00000" pt_clust_6="13000.00000" pt_clust_7="13000.00000" pt_clust_8="13000.00000" pt_clust_9="85.72163"></scales>
<clustering>
<clus scale="   85.722">  1  9  2 -1</clus>
<clus scale="   89.819">  7  8 -1 -1</clus>
<clus scale="   94.573">  5  6 -1 -1</clus>
<clus scale="  100.857">  1  7  2 -1</clus>
<clus scale="  105.114">  2  5  1 -1</clus>
</clustering>
</event>
<event>
 9    1  0.1612788E-005  0.9591608E+02  0.7546771E-02  0.1289186E+00
         -3   -1    0    0    0  501 -0.00000000000E+00  0.00000000000E+00  0.35890607448E+03  0.35890607448E+03  0.00000000000E+00 0.  1.
          3   -1    0    0  502    0  0.00000000000E+00 -0.00000000000E+00 -0.41180018938E+02  0.41180018938E+02  0.00000000000E+00 0. -1.
         23    2    1    2    0    0  0.17490778578E+02  0.40909048264E+02  0.17980557086E+03  0.20706909530E+03  0.92563974376E+02 0.  0.
         23    2    1    2    0    0 -0.17290775466E+02 -0.59820490738E+01  0.73323477899E+02  0.11958193456E+03  0.92675513676E+02 0.  0.
        -13    1    3    3    0    0 -0.35777008215E+02  0.22328960061E+02  0.49208513829E+02  0.64807828288E+02  0.00000000000E+00 0. -1.
         13    1    3    3    0    0  0.53267786793E+02  0.18580088203E+02  0.13059705703E+03  0.14226126701E+03  0.00000000000E+00 0.  1.
        -13    1    4    4    0    0  0.60663338732E+01 -0.38140054384E+02  0.69684276446E+02  0.79670336631E+02  0.00000000000E+00 0. -1.
         13    1    4    4    0    0 -0.23357109339E+02  0.32158005310E+02  0.36392014533E+01  0.39911597931E+02  0.00000000000E+00 0.  1.
         21    1    1    2  502  501 -0.20000311250E+00 -0.34926999191E+02  0.64597006790E+02  0.73435063559E+02  0.00000000000E+00 0. -1.
<scales pt_clust_5="13000.00000" pt_clust_6="13000.00000" pt_clust_7="13000.00000" pt_clust_8="13000.00000" pt_clust_9="34.92757"></scales>
<clustering>
<clus scale="   34.928">  1  9  2 -1</clus>
<clus scale="   92.564">  5  6 -1 -1</clus>
<clus scale="   92.676">  7  8 -1 -1</clus>
<clus scale="   95.808">  1  5  2 -1</clus>
<clus scale="   95.916">  2  5  1 -1</clus>
</clustering>
</event>
<event>
 9    1  0.1612788E-005  0.9511784E+02  0.7546771E-02  0.1292975E+00
          4   -1    0    0  502    0  0.00000000000E+00  0.00000000000E+00  0.16197618938E+03  0.16197618938E+03  0.00000000000E+00 0. -1.
         -4   -1    0    0    0  501 -0.00000000000E+00 -0.00000000000E+00 -0.19369643738E+03  0.19369643738E+03  0.00000000000E+00 0.  1.
         23    2    1    2    0    0 -0.36527822391E+02  0.10816069059E+02 -0.79792215408E+02  0.12798533992E+03  0.92532050866E+02 0.  0.
         23    2    1    2    0    0  0.47136594850E+01  0.24961200251E+02  0.11366590122E+03  0.14647941706E+03  0.88831314390E+02 0.  0.
        -11    1    3    3    0    0 -0.62457917662E+02 -0.13916998181E+02 -0.46814458143E+02  0.79285987464E+02  0.00000000000E+00 0.  1.
         11    1    3    3    0    0  0.25930095270E+02  0.24733067240E+02 -0.32977757265E+02  0.48699352460E+02  0.00000000000E+00 0. -1.
        -13    1    4    4    0    0  0.37193146410E+02 -0.38781266425E+01  0.18182601700E+02  0.41580969333E+02  0.00000000000E+00 0. -1.
         13    1    4    4    0    0 -0.32479486925E+02  0.28839326893E+02  0.95483299525E+02  0.10489844772E+03  0.00000000000E+00 0.  1.
         21    1    1    2  502  501  0.31814162906E+02 -0.35777269309E+02 -0.65593933821E+02  0.81207869783E+02  0.00000000000E+00 0.  1.
<scales pt_clust_5="13000.00000" pt_clust_6="13000.00000" pt_clust_7="13000.00000" pt_clust_8="13000.00000" pt_clust_9="47.87644"></scales>
<clustering>
<clus scale="   47.876">  2  9  1 -1</clus>
<clus scale="   88.831">  7  8 -1 -1</clus>
<clus scale="   91.522">  1  7  2 -1</clus>
<clus scale="   92.532">  5  6 -1 -1</clus>
<clus scale="   91.522">  1  5  2 -1</clus>
</clustering>
</event>
<event>
 9    1  0.1612788E-005  0.1489659E+03  0.7546771E-02  0.1211123E+00
         -1   -1    0    0    0  501 -0.00000000000E+00  0.00000000000E+00  0.41054475727E+03  0.41054475727E+03  0.00000000000E+00 0.  1.
          1   -1    0    0  502    0  0.00000000000E+00 -0.00000000000E+00 -0.23065672327E+03  0.23065672327E+03  0.00000000000E+00 0. -1.
         23    2    1    2    0    0  0.93101419923E+02 -0.59203174407E+02  0.15316884250E+03  0.20953612668E+03  0.90949457494E+02 0.  0.
         23    2    1    2    0    0 -0.49679817745E+02 -0.69811097532E+02 -0.15969532978E+03  0.20083968016E+03  0.86558102695E+02 0.  0.
        -11    1    3    3    0    0  0.27302796247E+02 -0.66150759609E+02  0.51243138234E+02  0.88018321365E+02  0.00000000000E+00 0.  1.
         11    1    3    3    0    0  0.65798623676E+02  0.69475852020E+01  0.10192570427E+03  0.12151780531E+03  0.00000000000E+00 0. -1.
        -13    1    4    4    0    0 -0.20745774638E+02 -0.21152569271E+02  0.18266451834E+01  0.29684254829E+02  0.00000000000E+00 0.  1.
         13    1    4    4    0    0 -0.28934043107E+02 -0.48658528261E+02 -0.16152197496E+03  0.17115542533E+03  0.00000000000E+00 0. -1.
         21    1    1    2  502  501 -0.43421602177E+02  0.12901427194E+03  0.18641452128E+03  0.23082567371E+03  0.00000000000E+00 0.  1.
<scales pt_clust_5="13000.00000" pt_clust_6="13000.00000" pt_clust_7="13000.00000" pt_clust_8="13000.00000" pt_clust_9="117.97891"></scales>
<clustering>
<clus scale="   86.558">  7  8 -1 -1</clus>
<clus scale="   90.949">  5  6 -1 -1</clus>
<clus scale="  121.795">  2  7  1 -1</clus>
<clus scale="  117.979">  1  9  2 -1</clus>
<clus scale="  121.795">  2  5  1 -1</clus>
</clustering>
</event>
<event>
 9    1  0.1612788E-005  0.1066328E+03  0.7546771E-02  0.1266966E+00
          1   -1    0    0  502    0  0.00000000000E+00  0.00000000000E+00  0.75915866261E+03  0.75915866261E+03  0.00000000000E+00 0. -1.
         -1   -1    0    0    0  501 -0.00000000000E+00 -0.00000000000E+00 -0.33635393191E+02  0.33635393191E+02  0.00000000000E+00 0.  1.
         23    2    1    2    0    0 -0.29426376546E+02  0.69144755982E+02  0.29347810746E+03  0.31665342198E+03  0.92157914361E+02 0.  0.
         23    2    1    2    0    0  0.16478177312E+02 -0.39197970822E+02  0.43172834739E+03  0.44351294349E+03  0.92229896773E+02 0.  0.
        -11    1    3    3    0    0 -0.35088425638E+02  0.21772817067E+02  0.35972969456E+02  0.54765935656E+02  0.00000000000E+00 0.  1.
         11    1    3    3    0    0  0.56620490925E+01  0.47371938915E+02  0.25750513800E+03  0.26188748633E+03  0.00000000000E+00 0. -1.
        -11    1    4    4    0    0 -0.38255631958E+02 -0.10352000635E+02  0.16129456901E+03  0.16609212891E+03  0.00000000000E+00 0.  1.
         11    1    4    4    0    0  0.54733809270E+02 -0.28845970187E+02  0.27043377837E+03  0.27742081457E+03  0.00000000000E+00 0. -1.
         21    1    1    2  502  501  0.12948199234E+02 -0.29946785160E+02  0.31681457226E+00  0.32627690330E+02  0.00000000000E+00 0.  1.
<scales pt_clust_5="13000.00000" pt_clust_6="13000.00000" pt_clust_7="13000.00000" pt_clust_8="13000.00000" pt_clust_9="32.62615"></scales>
<clustering>
<clus scale="   32.626">  2  9  1 -1</clus>
<clus scale="   92.158">  5  6 -1 -1</clus>
<clus scale="   92.230">  7  8 -1 -1</clus>
<clus scale="  106.571">  2  5  1 -1</clus>
<clus scale="  106.633">  1  5  2 -1</clus>
</clustering>
</event>
<event>
 9    1  0.1612788E-005  0.1297630E+03  0.7546771E-02  0.1228613E+00
          2   -1    0    0  502    0  0.00000000000E+00  0.00000000000E+00  0.66031090625E+03  0.66031090625E+03  0.00000000000E+00 0. -1.
         -2   -1    0    0    0  501 -0.00000000000E+00 -0.00000000000E+00 -0.49810915388E+02  0.49810915388E+02  0.00000000000E+00 0.  1.
         23    2    1    2    0    0 -0.86273500888E+02 -0.18735339417E+02  0.71941536459E+02  0.14727222628E+03  0.93377695762E+02 0.  0.
         23    2    1    2    0    0  0.90673379987E+02  0.43460392210E+02  0.48824434970E+03  0.50661618622E+03  0.90371165727E+02 0.  0.
        -13    1    3    3    0    0  0.18526224695E+02 -0.90812604002E+01  0.23924892240E+02  0.31592574453E+02  0.00000000000E+00 0. -1.
         13    1    3    3    0    0 -0.10479972558E+03 -0.96540790164E+01  0.48016644219E+02  0.11567965182E+03  0.00000000000E+00 0.  1.
        -13    1    4    4    0    0  0.27039906222E+02  0.53732957753E+02  0.33515852609E+03  0.34051376608E+03  0.00000000000E+00 0. -1.
         13    1    4    4    0    0  0.63633473766E+02 -0.10272565543E+02  0.15308582362E+03  0.16610242015E+03  0.00000000000E+00 0.  1.
         21    1    1    2  502  501 -0.43998790993E+01 -0.24725052793E+02  0.50314104693E+02  0.56233409134E+02  0.00000000000E+00 0.  1.
<scales pt_clust_5="13000.00000" pt_clust_6="13000.00000" pt_clust_7="13000.00000" pt_clust_8="13000.00000" pt_clust_9="25.11349"></scales>
<clustering>
<clus scale="   25.113">  1  9  2 -1</clus>
<clus scale="   90.371">  7  8 -1 -1</clus>
<clus scale="   93.378">  5  6 -1 -1</clus>
<clus scale="  127.617">  1  7  2 -1</clus>
<clus scale="   25.113">  1  5  2 -1</clus>
</clustering>
</event>
<event>
 9    1  0.1612788E-005  0.1474501E+03  0.7546771E-02  0.1204112E+00
          1   -1    0    0  502    0  0.00000000000E+00  0.00000000000E+00  0.35108301735E+03  0.35108301735E+03  0.00000000000E+00 0. -1.
         -1   -1    0    0    0  501 -0.00000000000E+00 -0.00000000000E+00 -0.80128603938E+02  0.80128603938E+02  0.00000000000E+00 0.  1.
         23    2    1    2    0    0  0.94010917980E+02 -0.26419583338E+02  0.79757682438E+02  0.15434803038E+03  0.89027970274E+02 0.  0.
         23    2    1    2    0    0 -0.12062089787E+03  0.51137801549E+02  0.17539574345E+03  0.23725610995E+03  0.91445716891E+02 0.  0.
        -11    1    3    3    0    0  0.22573466182E+02  0.79605639396E+01 -0.16925992696E+02  0.29315886178E+02  0.00000000000E+00 0.  1.
         11    1    3    3    0    0  0.71437451798E+02 -0.34380147278E+02  0.96683675134E+02  0.12503214420E+03  0.00000000000E+00 0. -1.
        -13    1    4    4    0    0 -0.89659416336E+02 -0.10898615320E+02  0.94685392787E+02  0.13085455422E+03  0.00000000000E+00 0. -1.
         13    1    4    4    0    0 -0.30961481532E+02  0.62036416870E+02  0.80710350668E+02  0.10640155573E+03  0.00000000000E+00 0.  1.
         21    1    1    2  502  501  0.26609979887E+02 -0.24718218211E+02  0.15800987519E+02  0.39607480956E+02  0.00000000000E+00 0. -1.
<scales pt_clust_5="13000.00000" pt_clust_6="13000.00000" pt_clust_7="13000.00000" pt_clust_8="13000.00000" pt_clust_9="36.31916"></scales>
<clustering>
<clus scale="   36.319">  2  9  1 -1</clus>
<clus scale="   89.028">  5  6 -1 -1</clus>
<clus scale="   91.446">  7  8 -1 -1</clus>
<clus scale="  145.963">  2  5  1 -1</clus>
<clus scale="  147.450">  1  5  2 -1</clus>
</clustering>
</event>
<event>
 9    1  0.1612788E-005  0.2059931E+03  0.7546771E-02  0.1145250E+00
         -1   -1    0    0    0  501 -0.00000000000E+00  0.00000000000E+00  0.71650422411E+02  0.71650422411E+02  0.00000000000E+00 0.  1.
          1   -1    0    0  502    0  0.00000000000E+00 -0.00000000000E+00 -0.73061880090E+03  0.73061880090E+03  0.00000000000E+00 0. -1.
         23    2    1    2    0    0  0.12324610618E+03  0.10969264431E+03 -0.17424420595E+03  0.25452976007E+03  0.84866227400E+02 0.  0.
         23    2    1    2    0    0 -0.15606009206E+03 -0.12200291450E+03 -0.44013528162E+03  0.49102553537E+03  0.90263762242E+02 0.  0.
        -11    1    4    4    0    0 -0.38366795223E+02  0.88046340488E+01 -0.11154716709E+03  0.11828906560E+03  0.00000000000E+00 0. -1.
         11    1    4    4    0    0 -0.11769329683E+03 -0.13080754855E+03 -0.32858811454E+03  0.37273646976E+03  0.00000000000E+00 0.  1.
        -13    1    3    3    0    0  0.71027041175E+02  0.97732249054E+01 -0.81456904683E+02  0.10851536216E+03  0.00000000000E+00 0.  1.
         13    1    3    3    0    0  0.52219065003E+02  0.99919419400E+02 -0.92787301268E+02  0.14601439792E+03  0.00000000000E+00 0. -1.
         21    1    1    2  502  501  0.32813985877E+02  0.12310270196E+02 -0.44588890921E+02  0.56713927875E+02  0.00000000000E+00 0.  1.
<scales pt_clust_5="13000.00000" pt_clust_6="13000.00000" pt_clust_7="13000.00000" pt_clust_8="13000.00000" pt_clust_9="35.04712"></scales>
<clustering>
<clus scale="   35.047">  1  9  2 -1</clus>
<clus scale="   84.866">  7  8 -1 -1</clus>
<clus scale="   90.264">  5  6 -1 -1</clus>
<clus scale="  203.686">  1  7  2 -1</clus>
<clus scale="  205.993">  2  5  1 -1</clus>
</clustering>
</event>
<event>
 9    1  0.1612788E-005  0.1798732E+03  0.7546771E-02  0.1168440E+00
         -2   -1    0    0    0  501 -0.00000000000E+00  0.00000000000E+00  0.26152866104E+03  0.26152866104E+03  0.00000000000E+00 0.  1.
          2   -1    0    0  502    0  0.00000000000E+00 -0.00000000000E+00 -0.15000299909E+03  0.15000299909E+03  0.00000000000E+00 0. -1.
         23    2    1    2    0    0 -0.81147886270E+02 -0.11108905222E+03  0.84078214779E+02  0.18545582017E+03  0.91645829503E+02 0.  0.
         23    2    1    2    0    0  0.11349621039E+03  0.11854257867E+03  0.14762882868E+02  0.19053899568E+03  0.95673577516E+02 0.  0.
        -11    1    3    3    0    0 -0.49728683506E+02 -0.98039879935E+01  0.92270891780E+00  0.50694294902E+02  0.00000000000E+00 0. -1.
         11    1    3    3    0    0 -0.31419202764E+02 -0.10128506422E+03  0.83155505862E+02  0.13476152527E+03  0.00000000000E+00 0.  1.
        -11    1    4    4    0    0  0.22274048068E+02 -0.35604974995E+01  0.29809534123E+02  0.37382063673E+02  0.00000000000E+00 0.  1.
         11    1    4    4    0    0  0.91222162321E+02  0.12210307617E+03 -0.15046651255E+02  0.15315693201E+03  0.00000000000E+00 0. -1.
         21    1    1    2  502  501 -0.32348324119E+02 -0.74535264556E+01  0.12684564300E+02  0.35536844280E+02  0.00000000000E+00 0. -1.
<scales pt_clust_5="13000.00000" pt_clust_6="13000.00000" pt_clust_7="13000.00000" pt_clust_8="13000.00000" pt_clust_9="33.19592"></scales>
<clustering>
<clus scale="   33.196">  1  9  2 -1</clus>
<clus scale="   91.646">  5  6 -1 -1</clus>
<clus scale="   95.674">  7  8 -1 -1</clus>
<clus scale="  177.764">  1  5  2 -1</clus>
<clus scale="  179.873">  2  5  1 -1</clus>
</clustering>
</event>
<event>
 9    1  0.1612788E-005  0.1147928E+03  0.7546771E-02  0.1252498E+00
         -1   -1    0    0    0  501 -0.00000000000E+00  0.00000000000E+00  0.13155168255E+03  0.13155168255E+03  0.00000000000E+00 0.  1.
          1   -1    0    0  502    0  0.00000000000E+00 -0.00000000000E+00 -0.14189394277E+03  0.14189394277E+03  0.00000000000E+00 0. -1.
         23    2    1    2    0    0 -0.49704069382E+02 -0.10242822416E+02  0.11256621667E+01  0.10375027482E+03  0.90484487538E+02 0.  0.
         23    2    1    2    0    0  0.84536442609E+02  0.11097028614E+02 -0.31677779726E+02  0.12941555126E+03  0.92061658728E+02 0.  0.
        -13    1    4    4    0    0  0.36163698542E+02 -0.31608881682E+02  0.14380379946E+02  0.50137110216E+02  0.00000000000E+00 0.  1.
         13    1    4    4    0    0  0.48372744067E+02  0.42705910296E+02 -0.46058159672E+02  0.79278441049E+02  0.00000000000E+00 0. -1.
        -13    1    3    3    0    0 -0.69507794951E+02  0.12930497422E+02  0.11335511575E+02  0.71603248147E+02  0.00000000000E+00 0.  1.
         13    1    3    3    0    0  0.19803725569E+02 -0.23173319838E+02 -0.10209849408E+02  0.32147026669E+02  0.00000000000E+00 0. -1.
         21    1    1    2  502  501 -0.34832373228E+02 -0.85420619843E+00  0.20209857338E+02  0.40279799236E+02  0.00000000000E+00 0.  1.
<scales pt_clust_5="13000.00000" pt_clust_6="13000.00000" pt_clust_7="13000.00000" pt_clust_8="13000.00000" pt_clust_9="34.84285"></scales>
<clustering>
<clus scale="   34.843">  1  9  2 -1</clus>
<clus scale="   90.484">  7  8 -1 -1</clus>
<clus scale="   92.062">  5  6 -1 -1</clus>
<clus scale="  113.532">  1  7  2 -1</clus>
<clus scale="  114.793">  2  5  1 -1</clus>
</clustering>
</event>
<event>
 9    1  0.1612788E-005  0.1465083E+03  0.7546771E-02  0.1205383E+00
         -2   -1    0    0    0  501 -0.00000000000E+00  0.00000000000E+00  0.51776287290E+02  0.51776287290E+02  0.00000000000E+00 0.  1.
          2   -1    0    0  502    0  0.00000000000E+00 -0.00000000000E+00 -0.50085778105E+03  0.50085778105E+03  0.00000000000E+00 0. -1.
         23    2    1    2    0    0  0.27309700235E+02 -0.12019342060E+03 -0.18724280500E+03  0.24141710322E+03  0.89610666895E+02 0.  0.
         23    2    1    2    0    0 -0.11308251285E+02  0.10685151664E+03 -0.24969598140E+03  0.28710269316E+03  0.92383711433E+02 0.  0.
        -11    1    4    4    0    0  0.26724898864E+02  0.99419844406E+02 -0.18074411278E+03  0.20800711523E+03  0.00000000000E+00 0.  1.
         11    1    4    4    0    0 -0.38033150149E+02  0.74316722335E+01 -0.68951868620E+02  0.79095577934E+02  0.00000000000E+00 0. -1.
        -11    1    3    3    0    0  0.21432205822E+02  0.73479981972E+01 -0.15655069471E+02  0.27539312338E+02  0.00000000000E+00 0.  1.
         11    1    3    3    0    0  0.58774944134E+01 -0.12754141880E+03 -0.17158773553E+03  0.21387779089E+03  0.00000000000E+00 0. -1.
         21    1    1    2  502  501 -0.16001448950E+02  0.13341903963E+02 -0.12142707359E+02  0.24114271954E+02  0.00000000000E+00 0.  1.
<scales pt_clust_5="13000.00000" pt_clust_6="13000.00000" pt_clust_7="13000.00000" pt_clust_8="13000.00000" pt_clust_9="20.83393"></scales>
<clustering>
<clus scale="   20.834">  1  9  2 -1</clus>
<clus scale="   89.611">  7  8 -1 -1</clus>
<clus scale="   92.384">  5  6 -1 -1</clus>
<clus scale="  144.776">  1  7  2 -1</clus>
<clus scale="  146.508">  2  5  1 -1</clus>
</clustering>
</event>
<event>
 9    1  0.1612788E-005  0.9142514E+02  0.7546771E-02  0.1299612E+00
         -2   -1    0    0    0  501 -0.00000000000E+00  0.00000000000E+00  0.21278044372E+02  0.21278044372E+02  0.00000000000E+00 0.  1.
          2   -1    0    0  502    0  0.00000000000E+00 -0.00000000000E+00 -0.70777226172E+03  0.70777226172E+03  0.00000000000E+00 0. -1.
         23    2    1    2    0    0 -0.17291371580E+02  0.26715037395E+01 -0.25488748702E+03  0.27134650247E+03  0.91406591115E+02 0.  0.
         23    2    1    2    0    0 -0.11199917028E+02 -0.12646669891E+01 -0.41427510201E+03  0.42432539659E+03  0.91110616930E+02 0.  0.
        -11    1    3    3    0    0 -0.47006991010E+02 -0.23904662246E+02 -0.13158065658E+03  0.14175527950E+03  0.00000000000E+00 0.  1.
         11    1    3    3    0    0  0.29715619430E+02  0.26576165985E+02 -0.12330683044E+03  0.12959122297E+03  0.00000000000E+00 0. -1.
        -13    1    4    4    0    0 -0.50350914198E+02 -0.63909180283E+01 -0.19341821014E+03  0.19996665324E+03  0.00000000000E+00 0.  1.
         13    1    4    4    0    0  0.39150997171E+02  0.51262510392E+01 -0.22085689187E+03  0.22435874335E+03  0.00000000000E+00 0. -1.
         21    1    1    2  502  501  0.28491288608E+02 -0.14068367504E+01 -0.17331628315E+02  0.33378407035E+02  0.00000000000E+00 0. -1.
<scales pt_clust_5="13000.00000" pt_clust_6="13000.00000" pt_clust_7="13000.00000" pt_clust_8="13000.00000" pt_clust_9="28.52600"></scales>
<clustering>
<clus scale="   28.526">  1  9  2 -1</clus>
<clus scale="   91.111">  7  8 -1 -1</clus>
<clus scale="   91.129">  2  7  1 -1</clus>
<clus scale="   91.407">  5  6 -1 -1</clus>
<clus scale="   91.129">  2  5  1 -1</clus>
</clustering>
</event>
<event>
 9    1  0.1612788E-005  0.1878115E+03  0.7546771E-02  0.1160573E+00
          2   -1    0    0  502    0  0.00000000000E+00  0.00000000000E+00  0.86876809380E+02  0.86876809380E+02  0.00000000000E+00 0. -1.
         -2   -1    0    0    0  501 -0.00000000000E+00 -0.00000000000E+00 -0.50423925119E+03  0.50423925119E+03  0.00000000000E+00 0.  1.
         23    2    1    2    0    0 -0.11976229467E+03  0.91368263031E+02 -0.27569641274E+03  0.32712832458E+03  0.91177091579E+02 0.  0.
         23    2    1    2    0    0  0.12798683432E+03 -0.11297886194E+03 -0.10501006715E+03  0.22064813999E+03  0.92269358264E+02 0.  0.
        -13    1    3    3    0    0 -0.12732320401E+03  0.54696923457E+02 -0.22058415024E+03  0.26050013254E+03  0.00000000000E+00 0. -1.
         13    1    3    3    0    0  0.75609093440E+01  0.36671339574E+02 -0.55112262502E+02  0.66628192039E+02  0.00000000000E+00 0.  1.
        -13    1    4    4    0    0  0.11864470143E+01 -0.40922610616E+02 -0.11766599049E-01  0.40939807701E+02  0.00000000000E+00 0. -1.
         13    1    4    4    0    0  0.12680038731E+03 -0.72056251320E+02 -0.10499830055E+03  0.17970833229E+03  0.00000000000E+00 0.  1.
         21    1    1    2  502  501 -0.82245396527E+01  0.21610598905E+02 -0.36655961920E+02  0.43339596004E+02  0.00000000000E+00 0.  1.
<scales pt_clust_5="13000.00000" pt_clust_6="13000.00000" pt_clust_7="13000.00000" pt_clust_8="13000.00000" pt_clust_9="23.12274"></scales>
<clustering>
<clus scale="   23.123">  2  9  1 -1</clus>
<clus scale="   91.177">  5  6 -1 -1</clus>
<clus scale="   92.269">  7  8 -1 -1</clus>
<clus scale="  187.277">  2  5  1 -1</clus>
<clus scale="  187.811">  1  5  2 -1</clus>
</clustering>
</event>
<event>
 9    1  0.1612788E-005  0.1849977E+03  0.7546771E-02  0.1163244E+00
          1   -1    0    0  502    0  0.00000000000E+00  0.00000000000E+00  0.99775817180E+02  0.99775817180E+02  0.00000000000E+00 0. -1.
         -1   -1    0    0    0  501 -0.00000000000E+00 -0.00000000000E+00 -0.44756187473E+03  0.44756187473E+03  0.00000000000E+00 0.  1.
         23    2    1    2    0    0  0.65856935894E+02  0.15865332869E+03 -0.12463688994E+03  0.23076805810E+03  0.90617479507E+02 0.  0.
         23    2    1    2    0    0 -0.70638109233E+02 -0.13404211201E+03 -0.12589468073E+03  0.21613554188E+03  0.88927338642E+02 0.  0.
        -11    1    3    3    0    0  0.57877867748E+02  0.42369806388E+02 -0.75902498670E+02  0.10443293242E+03  0.00000000000E+00 0. -1.
         11    1    3    3    0    0  0.79790681460E+01  0.11628352231E+03 -0.48734391270E+02  0.12633512568E+03  0.00000000000E+00 0.  1.
        -11    1    4    4    0    0 -0.37247822449E+02 -0.10017803299E+03 -0.13012440913E+03  0.16839061857E+03  0.00000000000E+00 0.  1.
         11    1    4    4    0    0 -0.33390286784E+02 -0.33864079022E+02  0.42297283970E+01  0.47744923310E+02  0.00000000000E+00 0. -1.
         21    1    1    2  502  501  0.47811733387E+01 -0.24611216682E+02 -0.97254486883E+02  0.10043409194E+03  0.00000000000E+00 0. -1.
<scales pt_clust_5="13000.00000" pt_clust_6="13000.00000" pt_clust_7="13000.00000" pt_clust_8="13000.00000" pt_clust_9="25.07133"></scales>
<clustering>
<clus scale="   25.071">  2  9  1 -1</clus>
<clus scale="   88.927">  7  8 -1 -1</clus>
<clus scale="   90.617">  5  6 -1 -1</clus>
<clus scale="  184.176">  1  7  2 -1</clus>
<clus scale="  184.176">  1  5  2 -1</clus>
</clustering>
</event>
<event>
 9    1  0.1612788E-005  0.1850810E+03  0.7546771E-02  0.1163081E+00
          2   -1    0    0  502    0  0.00000000000E+00  0.00000000000E+00  0.45908692177E+03  0.45908692177E+03  0.00000000000E+00 0. -1.
         -2   -1    0    0    0  501 -0.00000000000E+00 -0.00000000000E+00 -0.12715297061E+03  0.12715297061E+03  0.00000000000E+00 0.  1.
         23    2    1    2    0    0 -0.15582268215E+03 -0.48026229267E+02  0.55965236768E+02  0.19548160840E+03  0.92161404744E+02 0.  0.
         23    2    1    2    0    0  0.14421684553E+03  0.69404060853E+02  0.30286397227E+03  0.35449450008E+03  0.91237835856E+02 0.  0.
        -13    1    3    3    0    0 -0.89692580169E+02 -0.34886704565E+02 -0.15220302207E+02  0.97434586735E+02  0.00000000000E+00 0.  1.
         13    1    3    3    0    0 -0.66130101980E+02 -0.13139524702E+02  0.71185538975E+02  0.98047021661E+02  0.00000000000E+00 0. -1.
        -13    1    4    4    0    0  0.94171951815E+02  0.88319786091E+02  0.19164832954E+03  0.23107969045E+03  0.00000000000E+00 0.  1.
         13    1    4    4    0    0  0.50044893716E+02 -0.18915725238E+02  0.11121564273E+03  0.12341480963E+03  0.00000000000E+00 0. -1.
         21    1    1    2  502  501  0.11605836619E+02 -0.21377831586E+02 -0.26895257880E+02  0.36263783909E+02  0.00000000000E+00 0.  1.
<scales pt_clust_5="13000.00000" pt_clust_6="13000.00000" pt_clust_7="13000.00000" pt_clust_8="13000.00000" pt_clust_9="24.32503"></scales>
<clustering>
<clus scale="   24.325">  2  9  1 -1</clus>
<clus scale="   91.238">  7  8 -1 -1</clus>
<clus scale="   92.161">  5  6 -1 -1</clus>
<clus scale="  184.623">  1  7  2 -1</clus>
<clus scale="  184.623">  1  5  2 -1</clus>
</clustering>
</event>
<event>
 9    1  0.1632845E-005  0.1288892E+03  0.7546771E-02  0.1229931E+00
          2   -1    0    0  502    0  0.00000000000E+00  0.00000000000E+00  0.47053571616E+03  0.47053571616E+03  0.00000000000E+00 0. -1.
         -2   -1    0    0    0  501 -0.00000000000E+00 -0.00000000000E+00 -0.15885598769E+03  0.15885598769E+03  0.00000000000E+00 0.  1.
         23    2    1    2    0    0  0.86937820382E+00  0.12528055597E+03 -0.78113658536E+02  0.17355309490E+03  0.91230255817E+02 0.  0.
         23    2    1    2    0    0 -0.26555965025E+02 -0.81122113115E+02  0.38391576612E+03  0.40441570311E+03  0.94205779697E+02 0.  0.
        -13    1    3    3    0    0 -0.36617834429E+02  0.45732636535E+02 -0.59823314867E+02  0.83732722662E+02  0.00000000000E+00 0.  1.
         13    1    3    3    0    0  0.37487212632E+02  0.79547919432E+02 -0.18290343670E+02  0.89820372235E+02  0.00000000000E+00 0. -1.
        -13    1    4    4    0    0 -0.40971162204E+02 -0.19133924496E+01  0.78534424346E+02  0.88599960555E+02  0.00000000000E+00 0.  1.
         13    1    4    4    0    0  0.14415197179E+02 -0.79208720666E+02  0.30538134177E+03  0.31581574255E+03  0.00000000000E+00 0. -1.
         21    1    1    2  502  501  0.25686586821E+02 -0.44158442852E+02  0.58776208868E+01  0.51422905839E+02  0.00000000000E+00 0. -1.
<scales pt_clust_5="13000.00000" pt_clust_6="13000.00000" pt_clust_7="13000.00000" pt_clust_8="13000.00000" pt_clust_9="51.08590"></scales>
<clustering>
<clus scale="   51.086">  2  9  1 -1</clus>
<clus scale="   91.230">  5  6 -1 -1</clus>
<clus scale="   94.206">  7  8 -1 -1</clus>
<clus scale="  126.731">  2  5  1 -1</clus>
<clus scale="  128.889">  1  5  2 -1</clus>
</clustering>
</event>
<event>
 9    1  0.1612788E-005  0.1002249E+03  0.7546771E-02  0.1281281E+00
         -1   -1    0    0    0  501 -0.00000000000E+00  0.00000000000E+00  0.20785592667E+03  0.20785592667E+03  0.00000000000E+00 0.  1.
          1   -1    0    0  502    0  0.00000000000E+00 -0.00000000000E+00 -0.77000233665E+02  0.77000233665E+02  0.00000000000E+00 0. -1.
         23    2    1    2    0    0 -0.10106264062E+02 -0.36025894625E+02  0.74944281376E+02  0.12136402897E+03  0.87821299007E+02 0.  0.
         23    2    1    2    0    0  0.44417563966E+02  0.23141707548E+02  0.92455183594E+01  0.10415434263E+03  0.90852566621E+02 0.  0.
        -11    1    4    4    0    0  0.52210991449E+02 -0.97285218759E+01  0.33298094128E+02  0.62684885248E+02  0.00000000000E+00 0.  1.
         11    1    4    4    0    0 -0.77934274827E+01  0.32870229423E+02 -0.24052575769E+02  0.41469457380E+02  0.00000000000E+00 0. -1.
        -11    1    3    3    0    0  0.29145804797E+02 -0.30327274412E+02  0.69626745421E+02  0.81345591082E+02  0.00000000000E+00 0.  1.
         11    1    3    3    0    0 -0.39252068860E+02 -0.56986202136E+01  0.53175359543E+01  0.40018437885E+02  0.00000000000E+00 0. -1.
         21    1    1    2  502  501 -0.34311299904E+02  0.12884187078E+02  0.46665893266E+02  0.59337788736E+02  0.00000000000E+00 0.  1.
<scales pt_clust_5="13000.00000" pt_clust_6="13000.00000" pt_clust_7="13000.00000" pt_clust_8="13000.00000" pt_clust_9="36.65061"></scales>
<clustering>
<clus scale="   36.651">  1  9  2 -1</clus>
<clus scale="   87.821">  7  8 -1 -1</clus>
<clus scale="   90.853">  5  6 -1 -1</clus>
<clus scale="   97.486">  1  7  2 -1</clus>
<clus scale="  100.225">  2  5  1 -1</clus>
</clustering>
</event>
<event>
 9    1  0.1612788E-005  0.1141597E+03  0.7546771E-02  0.1253093E+00
          1   -1    0    0  502    0  0.00000000000E+00  0.00000000000E+00  0.49772867493E+03  0.49772867493E+03  0.00000000000E+00 0. -1.
         -1   -1    0    0    0  501 -0.00000000000E+00 -0.00000000000E+00 -0.43173579951E+02  0.43173579951E+02  0.00000000000E+00 0.  1.
         23    2    1    2    0    0  0.37116566917E+02 -0.20550772356E+02  0.15171441939E+03  0.18259289391E+03  0.92319694922E+02 0.  0.
         23    2    1    2    0    0 -0.77848306519E+02  0.46078460526E+02  0.27221959228E+03  0.30131472774E+03  0.92214290537E+02 0.  0.
        -11    1    3    3    0    0 -0.12203372204E+02 -0.37464375948E+02  0.10658577076E+03  0.11363550628E+03  0.00000000000E+00 0. -1.
         11    1    3    3    0    0  0.49319939121E+02  0.16913603592E+02  0.45128648623E+02  0.68957387624E+02  0.00000000000E+00 0.  1.
        -11    1    4    4    0    0 -0.22408375574E+02 -0.25986104215E+02  0.11148489827E+03  0.11664602630E+03  0.00000000000E+00 0.  1.
         11    1    4    4    0    0 -0.55439930945E+02  0.72064564742E+02  0.16073469401E+03  0.18466870144E+03  0.00000000000E+00 0. -1.
         21    1    1    2  502  501  0.40731739602E+02 -0.25527688170E+02  0.30621083304E+02  0.56994633230E+02  0.00000000000E+00 0.  1.
<scales pt_clust_5="13000.00000" pt_clust_6="13000.00000" pt_clust_7="13000.00000" pt_clust_8="13000.00000" pt_clust_9="48.07013"></scales>
<clustering>
<clus scale="   48.070">  2  9  1 -1</clus>
<clus scale="   92.214">  7  8 -1 -1</clus>
<clus scale="   92.320">  5  6 -1 -1</clus>
<clus scale="  114.074">  1  7  2 -1</clus>
<clus scale="  114.074">  1  5  2 -1</clus>
</clustering>
</event>
<event>
 9    1  0.1612788E-005  0.1258976E+03  0.7546771E-02  0.1234109E+00
         -1   -1    0    0    0  501 -0.00000000000E+00  0.00000000000E+00  0.25093561181E+03  0.25093561181E+03  0.00000000000E+00 0.  1.
          1   -1    0    0  502    0  0.00000000000E+00 -0.00000000000E+00 -0.10859392537E+03  0.10859392537E+03  0.00000000000E+00 0. -1.
         23    2    1    2    0    0 -0.91103548958E+02  0.25702957396E+02  0.12706645079E+03  0.18272951525E+03  0.91014801947E+02 0.  0.
         23    2    1    2    0    0  0.83167507149E+02 -0.13522381757E+00 -0.26469341869E+02  0.12720869696E+03  0.92544983616E+02 0.  0.
        -11    1    4    4    0    0  0.35745077387E+02  0.45985558747E+02 -0.11028664012E+02  0.59279116058E+02  0.00000000000E+00 0. -1.
         11    1    4    4    0    0  0.47422429762E+02 -0.46120782565E+02 -0.15440677857E+02  0.67929580903E+02  0.00000000000E+00 0.  1.
        -13    1    3    3    0    0 -0.12787323696E+02  0.47638338866E+02  0.57014770225E+02  0.75389727423E+02  0.00000000000E+00 0. -1.
         13    1    3    3    0    0 -0.78316225262E+02 -0.21935381469E+02  0.70051680566E+02  0.10733978782E+03  0.00000000000E+00 0.  1.
         21    1    1    2  502  501  0.79360418091E+01 -0.25567733579E+02  0.41744577526E+02  0.49591324975E+02  0.00000000000E+00 0.  1.
<scales pt_clust_5="13000.00000" pt_clust_6="13000.00000" pt_clust_7="13000.00000" pt_clust_8="13000.00000" pt_clust_9="26.77106"></scales>
<clustering>
<clus scale="   26.771">  1  9  2 -1</clus>
<clus scale="   91.015">  7  8 -1 -1</clus>
<clus scale="   92.545">  5  6 -1 -1</clus>
<clus scale="  124.777">  1  7  2 -1</clus>
<clus scale="  125.898">  2  5  1 -1</clus>
</clustering>
</event>
<event>
 9    1  0.1612788E-005  0.1117521E+03  0.7546771E-02  0.1259800E+00
         -1   -1    0    0    0  501 -0.00000000000E+00  0.00000000000E+00  0.34297739294E+03  0.34297739294E+03  0.00000000000E+00 0.  1.
          1   -1    0    0  502    0  0.00000000000E+00 -0.00000000000E+00 -0.45108484624E+02  0.45108484624E+02  0.00000000000E+00 0. -1.
         23    2    1    2    0    0  0.37952415274E+02  0.30938644320E+02  0.15521715739E+03  0.18650580510E+03  0.91073947154E+02 0.  0.
         23    2    1    2    0    0 -0.29047787895E+02 -0.54437901650E+02  0.10199689344E+03  0.15378546062E+03  0.97156278798E+02 0.  0.
        -11    1    4    4    0    0  0.32746778204E+02 -0.24938130058E+00  0.25488928869E+02  0.41498182715E+02  0.00000000000E+00 0. -1.
         11    1    4    4    0    0 -0.61794566099E+02 -0.54188520350E+02  0.76507964571E+02  0.11228727791E+03  0.00000000000E+00 0.  1.
        -11    1    3    3    0    0  0.11229806931E+02  0.37989135325E+02  0.15381378956E+03  0.15883313516E+03  0.00000000000E+00 0.  1.
         11    1    3    3    0    0  0.26722608343E+02 -0.70504910054E+01  0.14033678265E+01  0.27672669935E+02  0.00000000000E+00 0. -1.
         21    1    1    2  502  501 -0.89046273791E+01  0.23499257330E+02  0.40654857483E+02  0.47794611839E+02  0.00000000000E+00 0. -1.
<scales pt_clust_5="13000.00000" pt_clust_6="13000.00000" pt_clust_7="13000.00000" pt_clust_8="13000.00000" pt_clust_9="25.12981"></scales>
<clustering>
<clus scale="   25.130">  1  9  2 -1</clus>
<clus scale="   91.074">  7  8 -1 -1</clus>
<clus scale="   97.156">  5  6 -1 -1</clus>
<clus scale="  106.507">  1  7  2 -1</clus>
<clus scale="  111.752">  2  5  1 -1</clus>
</clustering>
</event>
<event>
 9    1  0.1612788E-005  0.9277270E+02  0.7546771E-02  0.1296494E+00
         -1   -1    0    0    0  501 -0.00000000000E+00  0.00000000000E+00  0.17647742226E+03  0.17647742226E+03  0.00000000000E+00 0.  1.
          1   -1    0    0  502    0  0.00000000000E+00 -0.00000000000E+00 -0.19707761618E+03  0.19707761618E+03  0.00000000000E+00 0. -1.
         23    2    1    2    0    0 -0.32056861942E+02 -0.19152538979E+02  0.12716402710E+03  0.16009373115E+03  0.89804514468E+02 0.  0.
         23    2    1    2    0    0  0.19343551800E+02 -0.98586439113E+01 -0.15530270958E+03  0.18090204137E+03  0.90195626912E+02 0.  0.
        -11    1    4    4    0    0  0.26916825614E+02  0.23174239991E+02 -0.18664717716E+02  0.40123965254E+02  0.00000000000E+00 0.  1.
         11    1    4    4    0    0 -0.75732738138E+01 -0.33032883903E+02 -0.13663799187E+03  0.14077807612E+03  0.00000000000E+00 0. -1.
        -13    1    3    3    0    0  0.39835140168E+01 -0.21914870336E+02 -0.52084951921E+01  0.22874840938E+02  0.00000000000E+00 0.  1.
         13    1    3    3    0    0 -0.36040375959E+02  0.27623313567E+01  0.13237252229E+03  0.13721889021E+03  0.00000000000E+00 0. -1.
         21    1    1    2  502  501  0.12713310142E+02  0.29011182890E+02  0.75384885697E+01  0.32559265922E+02  0.00000000000E+00 0.  1.
<scales pt_clust_5="13000.00000" pt_clust_6="13000.00000" pt_clust_7="13000.00000" pt_clust_8="13000.00000" pt_clust_9="31.67455"></scales>
<clustering>
<clus scale="   31.675">  1  9  2 -1</clus>
<clus scale="   89.805">  7  8 -1 -1</clus>
<clus scale="   90.196">  5  6 -1 -1</clus>
<clus scale="   92.392">  1  7  2 -1</clus>
<clus scale="   92.773">  2  5  1 -1</clus>
</clustering>
</event>
<event>
 9    1  0.1612788E-005  0.1973163E+03  0.7546771E-02  0.1152241E+00
          1   -1    0    0  502    0  0.00000000000E+00  0.00000000000E+00  0.10174230990E+03  0.10174230990E+03  0.00000000000E+00 0. -1.
         -1   -1    0    0    0  501 -0.00000000000E+00 -0.00000000000E+00 -0.53664625486E+03  0.53664625486E+03  0.00000000000E+00 0.  1.
         23    2    1    2    0    0 -0.15422520750E+03  0.33147549819E+02 -0.25827463433E+03  0.31729488299E+03  0.95320938672E+02 0.  0.
         23    2    1    2    0    0  0.19427876494E+03 -0.51468147843E+02 -0.13814617427E+03  0.26260536191E+03  0.97385840279E+02 0.  0.
        -11    1    4    4    0    0  0.15314609228E+03 -0.17741480174E+02 -0.14156138677E+03  0.20930387461E+03  0.00000000000E+00 0.  1.
         11    1    4    4    0    0  0.41132672659E+02 -0.33726667668E+02  0.34152125009E+01  0.53301487301E+02  0.00000000000E+00 0. -1.
        -11    1    3    3    0    0 -0.21289837741E+02  0.30866294063E+01 -0.12441514656E+03  0.12626128926E+03  0.00000000000E+00 0. -1.
         11    1    3    3    0    0 -0.13293536975E+03  0.30060920413E+02 -0.13385948776E+03  0.19103359373E+03  0.00000000000E+00 0.  1.
         21    1    1    2  502  501 -0.40053557446E+02  0.18320598023E+02 -0.38483136365E+02  0.58488319864E+02  0.00000000000E+00 0.  1.
<scales pt_clust_5="13000.00000" pt_clust_6="13000.00000" pt_clust_7="13000.00000" pt_clust_8="13000.00000" pt_clust_9="44.04466"></scales>
<clustering>
<clus scale="   44.045">  1  9  2 -1</clus>
<clus scale="   95.321">  7  8 -1 -1</clus>
<clus scale="   97.386">  5  6 -1 -1</clus>
<clus scale="  196.305">  2  7  1 -1</clus>
<clus scale="   44.045">  1  5  2 -1</clus>
</clustering>
</event>
<event>
 9    1  0.1612788E-005  0.2923860E+03  0.7546771E-02  0.1089193E+00
         -1   -1    0    0    0  501 -0.00000000000E+00  0.00000000000E+00  0.31808151140E+03  0.31808151140E+03  0.00000000000E+00 0.  1.
          1   -1    0    0  502    0  0.00000000000E+00 -0.00000000000E+00 -0.57632566528E+03  0.57632566528E+03  0.00000000000E+00 0. -1.
         23    2    1    2    0    0  0.23751722874E+03  0.14105096692E+03 -0.40387013548E+02  0.29340877566E+03  0.90265107066E+02 0.  0.
         23    2    1    2    0    0 -0.25007822719E+03 -0.12188111443E+03 -0.35590006357E+03  0.46106587949E+03  0.92318818315E+02 0.  0.
        -11    1    3    3    0    0  0.13437489282E+03  0.30677673357E+02 -0.33643909712E+01  0.13787331355E+03  0.00000000000E+00 0.  1.
         11    1    3    3    0    0  0.10314233592E+03  0.11037329356E+03 -0.37022622577E+02  0.15553546211E+03  0.00000000000E+00 0. -1.
        -13    1    4    4    0    0 -0.65434167552E+01 -0.33145733300E+02 -0.45607671707E+02  0.56758397241E+02  0.00000000000E+00 0.  1.
         13    1    4    4    0    0 -0.24353481043E+03 -0.88735381126E+02 -0.31029239186E+03  0.40430748225E+03  0.00000000000E+00 0. -1.
         21    1    1    2  502  501  0.12560998450E+02 -0.19169852493E+02  0.13804292324E+03  0.13993252153E+03  0.00000000000E+00 0.  1.
<scales pt_clust_5="13000.00000" pt_clust_6="13000.00000" pt_clust_7="13000.00000" pt_clust_8="13000.00000" pt_clust_9="22.91859"></scales>
<clustering>
<clus scale="   22.919">  1  9  2 -1</clus>
<clus scale="   90.265">  5  6 -1 -1</clus>
<clus scale="   92.319">  7  8 -1 -1</clus>
<clus scale="  291.744">  1  5  2 -1</clus>
<clus scale="  292.386">  2  5  1 -1</clus>
</clustering>
</event>
<event>
 9    1  0.1612788E-005  0.1658531E+03  0.7546771E-02  0.1182368E+00
         -1   -1    0    0    0  501 -0.00000000000E+00  0.00000000000E+00  0.83250034387E+02  0.83250034387E+02  0.00000000000E+00 0.  1.
          1   -1    0    0  502    0  0.00000000000E+00 -0.00000000000E+00 -0.60450274834E+03  0.60450274834E+03  0.00000000000E+00 0. -1.
         23    2    1    2    0    0  0.11496818973E+03 -0.57679538101E+01 -0.78955462449E+02  0.16691263687E+03  0.91514530831E+02 0.  0.
         23    2    1    2    0    0 -0.13196123874E+03  0.76265738332E+02 -0.39835721393E+03  0.43604964970E+03  0.90667501015E+02 0.  0.
        -11    1    4    4    0    0 -0.45680981285E+02  0.68186352994E+02 -0.26137487500E+03  0.27395794580E+03  0.00000000000E+00 0.  1.
         11    1    4    4    0    0 -0.86280257460E+02  0.80793853380E+01 -0.13698233893E+03  0.16209170390E+03  0.00000000000E+00 0. -1.
        -11    1    3    3    0    0  0.75837020765E+02 -0.20200011160E+02 -0.98431462258E+00  0.78487343213E+02  0.00000000000E+00 0.  1.
         11    1    3    3    0    0  0.39131168968E+02  0.14432057349E+02 -0.77971147826E+02  0.88425293652E+02  0.00000000000E+00 0. -1.
         21    1    1    2  502  501  0.16993049011E+02 -0.70497784522E+02 -0.43940037576E+02  0.84790496162E+02  0.00000000000E+00 0. -1.
<scales pt_clust_5="13000.00000" pt_clust_6="13000.00000" pt_clust_7="13000.00000" pt_clust_8="13000.00000" pt_clust_9="72.51690"></scales>
<clustering>
<clus scale="   72.517">  1  9  2 -1</clus>
<clus scale="   90.668">  5  6 -1 -1</clus>
<clus scale="   91.515">  7  8 -1 -1</clus>
<clus scale="  165.387">  2  5  1 -1</clus>
<clus scale="  165.387">  2  5  1 -1</clus>
</clustering>
</event>
<event>
 9    1  0.1612788E-005  0.1018583E+03  0.7546771E-02  0.1277131E+00
          1   -1    0    0  502    0  0.00000000000E+00  0.00000000000E+00  0.39106703608E+03  0.39106703608E+03  0.00000000000E+00 0. -1.
         -1   -1    0    0    0  501 -0.00000000000E+00 -0.00000000000E+00 -0.37925068708E+02  0.37925068708E+02  0.00000000000E+00 0.  1.
         23    2    1    2    0    0 -0.43367453999E+02 -0.28995525480E+02  0.15080827990E+03  0.18374210469E+03  0.91085384042E+02 0.  0.
         23    2    1    2    0    0  0.22622953358E+02  0.28744131524E+02  0.20119999177E+03  0.22447302313E+03  0.92567155667E+02 0.  0.
        -13    1    4    4    0    0 -0.28077893049E+01 -0.24589636958E+02  0.14584825568E+02  0.28727183352E+02  0.00000000000E+00 0.  1.
         13    1    4    4    0    0  0.25430742662E+02  0.53333768482E+02  0.18661516620E+03  0.19574583978E+03  0.00000000000E+00 0. -1.
        -13    1    3    3    0    0 -0.65228411671E+02 -0.13627245821E+02  0.62066589088E+02  0.91064312433E+02  0.00000000000E+00 0.  1.
         13    1    3    3    0    0  0.21860957671E+02 -0.15368279658E+02  0.88741690813E+02  0.92677792261E+02  0.00000000000E+00 0. -1.
         21    1    1    2  502  501  0.20744500642E+02  0.25139395535E+00  0.11336956978E+01  0.20776976963E+02  0.00000000000E+00 0.  1.
<scales pt_clust_5="13000.00000" pt_clust_6="13000.00000" pt_clust_7="13000.00000" pt_clust_8="13000.00000" pt_clust_9="20.74602"></scales>
<clustering>
<clus scale="   20.746">  2  9  1 -1</clus>
<clus scale="   91.085">  7  8 -1 -1</clus>
<clus scale="   92.567">  5  6 -1 -1</clus>
<clus scale="  100.514">  2  7  1 -1</clus>
<clus scale="  101.858">  1  5  2 -1</clus>
</clustering>
</event>
<event>
 9    1  0.1612788E-005  0.2529602E+03  0.7546771E-02  0.1111537E+00
         -2   -1    0    0    0  501 -0.00000000000E+00  0.00000000000E+00  0.83112502744E+02  0.83112502744E+02  0.00000000000E+00 0.  1.
          2   -1    0    0  502    0  0.00000000000E+00 -0.00000000000E+00 -0.10047397688E+04  0.10047397688E+04  0.00000000000E+00 0. -1.
         23    2    1    2    0    0 -0.11789693576E+03  0.19710987085E+03 -0.43887567949E+03  0.50348369515E+03  0.90177494897E+02 0.  0.
         23    2    1    2    0    0  0.14469143480E+03 -0.19439907877E+03 -0.49185725902E+03  0.55593959747E+03  0.91753254172E+02 0.  0.
        -13    1    3    3    0    0 -0.12052792464E+03  0.12179984246E+03 -0.30079158129E+03  0.34617590560E+03  0.00000000000E+00 0. -1.
         13    1    3    3    0    0  0.26309888770E+01  0.75310028387E+02 -0.13808409820E+03  0.15730778955E+03  0.00000000000E+00 0.  1.
        -13    1    4    4    0    0  0.48775561673E+02 -0.76525884874E+02 -0.96918137733E+02  0.13277195447E+03  0.00000000000E+00 0.  1.
         13    1    4    4    0    0  0.95915873129E+02 -0.11787319389E+03 -0.39493912129E+03  0.42316764300E+03  0.00000000000E+00 0. -1.
         21    1    1    2  502  501 -0.26794499042E+02 -0.27107920821E+01  0.91056724463E+01  0.28428978936E+02  0.00000000000E+00 0.  1.
<scales pt_clust_5="13000.00000" pt_clust_6="13000.00000" pt_clust_7="13000.00000" pt_clust_8="13000.00000" pt_clust_9="26.93127"></scales>
<clustering>
<clus scale="   26.931">  1  9  2 -1</clus>
<clus scale="   90.177">  5  6 -1 -1</clus>
<clus scale="   91.753">  7  8 -1 -1</clus>
<clus scale="  252.393">  1  5  2 -1</clus>
<clus scale="  252.960">  2  5  1 -1</clus>
</clustering>
</event>
<event>
 9    1  0.1612788E-005  0.9345218E+02  0.7546771E-02  0.1294833E+00
          1   -1    0    0  502    0  0.00000000000E+00  0.00000000000E+00  0.13148721974E+03  0.13148721974E+03  0.00000000000E+00 0. -1.
         -1   -1    0    0    0  501 -0.00000000000E+00 -0.00000000000E+00 -0.24802776248E+03  0.24802776248E+03  0.00000000000E+00 0.  1.
         23    2    1    2    0    0  0.43031025864E+02 -0.55630064285E+02 -0.90932160457E+02  0.14716434261E+03  0.91882058590E+02 0.  0.
         23    2    1    2    0    0 -0.10168793810E+02 -0.91260033836E+01  0.66959862758E+02  0.11469795335E+03  0.92115736852E+02 0.  0.
        -11    1    4    4    0    0 -0.49031698092E+02 -0.14536368987E+02  0.23925757417E+02  0.56461095535E+02  0.00000000000E+00 0.  1.
         11    1    4    4    0    0  0.38862904281E+02  0.54103656033E+01  0.43034105341E+02  0.58236857810E+02  0.00000000000E+00 0. -1.
        -13    1    3    3    0    0  0.43412118673E+02 -0.78793567605E+02 -0.83747359594E+02  0.12290914768E+03  0.00000000000E+00 0. -1.
         13    1    3    3    0    0 -0.38109280838E+00  0.23163503320E+02 -0.71848008627E+01  0.24255194932E+02  0.00000000000E+00 0.  1.
         21    1    1    2  502  501 -0.32862232054E+02  0.64756067669E+02 -0.92568245043E+02  0.11765268627E+03  0.00000000000E+00 0.  1.
<scales pt_clust_5="13000.00000" pt_clust_6="13000.00000" pt_clust_7="13000.00000" pt_clust_8="13000.00000" pt_clust_9="72.61732"></scales>
<clustering>
<clus scale="   72.617">  2  9  1 -1</clus>
<clus scale="   91.882">  7  8 -1 -1</clus>
<clus scale="   92.116">  5  6 -1 -1</clus>
<clus scale="   93.222">  2  7  1 -1</clus>
<clus scale="   93.452">  1  5  2 -1</clus>
</clustering>
</event>
<event>
 9    1  0.1612788E-005  0.1214174E+03  0.7546771E-02  0.1240889E+00
         -1   -1    0    0    0  501 -0.00000000000E+00  0.00000000000E+00  0.23512189841E+03  0.23512189841E+03  0.00000000000E+00 0.  1.
          1   -1    0    0  502    0  0.00000000000E+00 -0.00000000000E+00 -0.38840823394E+03  0.38840823394E+03  0.00000000000E+00 0. -1.
         23    2    1    2    0    0 -0.45466436500E+02 -0.75843528794E+01 -0.54739825707E+02  0.11601763217E+03  0.91317704748E+02 0.  0.
         23    2    1    2    0    0  0.72073613447E+02 -0.81712363990E+02 -0.27403346002E+03  0.30882300574E+03  0.91683125398E+02 0.  0.
        -11    1    4    4    0    0  0.48872191056E+02 -0.80851427939E+02 -0.26894316555E+03  0.28505415407E+03  0.00000000000E+00 0. -1.
         11    1    4    4    0    0  0.23201422391E+02 -0.86093605081E+00 -0.50902944650E+01  0.23768851667E+02  0.00000000000E+00 0.  1.
        -13    1    3    3    0    0 -0.31018259633E+02  0.39051994805E+02 -0.12393499123E+02  0.51388613033E+02  0.00000000000E+00 0.  1.
         13    1    3    3    0    0 -0.14448176866E+02 -0.46636347684E+02 -0.42346326584E+02  0.64629019142E+02  0.00000000000E+00 0. -1.
         21    1    1    2  502  501 -0.26607176947E+02  0.89296716870E+02  0.17548695020E+03  0.19868949443E+03  0.00000000000E+00 0.  1.
<scales pt_clust_5="13000.00000" pt_clust_6="13000.00000" pt_clust_7="13000.00000" pt_clust_8="13000.00000" pt_clust_9="93.17642"></scales>
<clustering>
<clus scale="   91.318">  7  8 -1 -1</clus>
<clus scale="   91.683">  5  6 -1 -1</clus>
<clus scale="   93.176">  1  9  2 -1</clus>
<clus scale="  121.142">  1  7  2 -1</clus>
<clus scale="  121.417">  2  5  1 -1</clus>
</clustering>
</event>
<event>
 9    1  0.1612788E-005  0.1123594E+03  0.7546771E-02  0.1260427E+00
         -1   -1    0    0    0  501 -0.00000000000E+00  0.00000000000E+00  0.21245856195E+03  0.21245856195E+03  0.00000000000E+00 0.  1.
          1   -1    0    0  502    0  0.00000000000E+00 -0.00000000000E+00 -0.24021507963E+03  0.24021507963E+03  0.00000000000E+00 0. -1.
         23    2    1    2    0    0 -0.23689236179E+02  0.68693145402E+02  0.14064286960E+03  0.17928727514E+03  0.84164019163E+02 0.  0.
         23    2    1    2    0    0  0.62648061597E+02 -0.71712903964E+01 -0.16499693767E+03  0.20048708397E+03  0.94841311527E+02 0.  0.
        -11    1    3    3    0    0 -0.52308066868E+02  0.23707459377E+02  0.64913144786E+02  0.86671182382E+02  0.00000000000E+00 0.  1.
         11    1    3    3    0    0  0.28618830689E+02  0.44985686026E+02  0.75729724812E+02  0.92616092756E+02  0.00000000000E+00 0. -1.
        -11    1    4    4    0    0  0.22466433673E+02 -0.39534281557E+02 -0.13108053593E+03  0.13874367358E+03  0.00000000000E+00 0. -1.
         11    1    4    4    0    0  0.40181627924E+02  0.32362991161E+02 -0.33916401740E+02  0.61743410389E+02  0.00000000000E+00 0.  1.
         21    1    1    2  502  501 -0.38958825418E+02 -0.61521855006E+02 -0.34024496077E+01  0.72899282470E+02  0.00000000000E+00 0. -1.
<scales pt_clust_5="13000.00000" pt_clust_6="13000.00000" pt_clust_7="13000.00000" pt_clust_8="13000.00000" pt_clust_9="72.81984"></scales>
<clustering>
<clus scale="   72.820">  1  9  2 -1</clus>
<clus scale="   84.164">  5  6 -1 -1</clus>
<clus scale="   94.841">  7  8 -1 -1</clus>
<clus scale="  103.505">  1  5  2 -1</clus>
<clus scale="  112.359">  2  5  1 -1</clus>
</clustering>
</event>
<event>
 9    1  0.1612788E-005  0.1397182E+03  0.7546771E-02  0.1214470E+00
          4   -1    0    0  502    0  0.00000000000E+00  0.00000000000E+00  0.58380018712E+03  0.58380018712E+03  0.00000000000E+00 0. -1.
         -4   -1    0    0    0  501 -0.00000000000E+00 -0.00000000000E+00 -0.59027659907E+02  0.59027659907E+02  0.00000000000E+00 0.  1.
         23    2    1    2    0    0 -0.10931655397E+03 -0.46875587653E+02  0.18281451869E+03  0.23597120294E+03  0.90076804379E+02 0.  0.
         23    2    1    2    0    0  0.45752833034E+02  0.94301193782E+02  0.23394378799E+03  0.27285438077E+03  0.93454696438E+02 0.  0.
        -11    1    3    3    0    0 -0.12374481916E+03 -0.30641623470E+02  0.15590757537E+03  0.20139230724E+03  0.00000000000E+00 0.  1.
         11    1    3    3    0    0  0.14428265191E+02 -0.16233964183E+02  0.26906943319E+02  0.34578895707E+02  0.00000000000E+00 0. -1.
        -11    1    4    4    0    0 -0.25010644284E+02  0.60998233053E+01  0.61156367685E+02  0.66353910813E+02  0.00000000000E+00 0.  1.
         11    1    4    4    0    0  0.70763477318E+02  0.88201370477E+02  0.17278742030E+03  0.20650046996E+03  0.00000000000E+00 0. -1.
         21    1    1    2  502  501  0.63563720933E+02 -0.47425606130E+02  0.10801422054E+03  0.13400226332E+03  0.00000000000E+00 0. -1.
<scales pt_clust_5="13000.00000" pt_clust_6="13000.00000" pt_clust_7="13000.00000" pt_clust_8="13000.00000" pt_clust_9="79.30659"></scales>
<clustering>
<clus scale="   79.307">  2  9  1 -1</clus>
<clus scale="   90.077">  5  6 -1 -1</clus>
<clus scale="   93.455">  7  8 -1 -1</clus>
<clus scale="  137.482">  2  5  1 -1</clus>
<clus scale="  139.718">  1  5  2 -1</clus>
</clustering>
</event>
<event>
 9    1  0.1612788E-005  0.1116970E+03  0.7546771E-02  0.1257893E+00
         -2   -1    0    0    0  501 -0.00000000000E+00  0.00000000000E+00  0.44786283507E+02  0.44786283507E+02  0.00000000000E+00 0.  1.
          2   -1    0    0  502    0  0.00000000000E+00 -0.00000000000E+00 -0.50008545637E+03  0.50008545637E+03  0.00000000000E+00 0. -1.
         23    2    1    2    0    0  0.30461462317E+02  0.19066995420E+02 -0.70429087253E+02  0.11935332521E+03  0.89406425417E+02 0.  0.
         23    2    1    2    0    0 -0.57805523555E+02 -0.51262363403E+02 -0.35319478011E+03  0.37272102474E+03  0.90582013302E+02 0.  0.
        -11    1    4    4    0    0  0.46853942320E+01 -0.28723021419E+02 -0.26564102294E+02  0.39403253790E+02  0.00000000000E+00 0.  1.
         11    1    4    4    0    0 -0.62490917787E+02 -0.22539341984E+02 -0.32663067782E+03  0.33331777095E+03  0.00000000000E+00 0. -1.
        -11    1    3    3    0    0 -0.10847274148E+02  0.45336663718E+02 -0.41981735574E+02  0.62733902759E+02  0.00000000000E+00 0.  1.
         11    1    3    3    0    0  0.41308736465E+02 -0.26269668298E+02 -0.28447351678E+02  0.56619422448E+02  0.00000000000E+00 0. -1.
         21    1    1    2  502  501  0.27344061238E+02  0.32195367983E+02 -0.31675305501E+02  0.52797389927E+02  0.00000000000E+00 0.  1.
<scales pt_clust_5="13000.00000" pt_clust_6="13000.00000" pt_clust_7="13000.00000" pt_clust_8="13000.00000" pt_clust_9="42.24026"></scales>
<clustering>
<clus scale="   42.240">  1  9  2 -1</clus>
<clus scale="   89.406">  7  8 -1 -1</clus>
<clus scale="   90.582">  5  6 -1 -1</clus>
<clus scale="  110.746">  1  7  2 -1</clus>
<clus scale="  111.697">  2  5  1 -1</clus>
</clustering>
</event>
<event>
 9    1  0.1612788E-005  0.1134852E+03  0.7546771E-02  0.1255841E+00
          1   -1    0    0  502    0  0.00000000000E+00  0.00000000000E+00  0.16025534599E+03  0.16025534599E+03  0.00000000000E+00 0. -1.
         -1   -1    0    0    0  501 -0.00000000000E+00 -0.00000000000E+00 -0.11860830619E+03  0.11860830619E+03  0.00000000000E+00 0.  1.
         23    2    1    2    0    0  0.71340013073E+02 -0.15372440039E+02  0.37524705285E+02  0.12487184913E+03  0.94123141788E+02 0.  0.
         23    2    1    2    0    0 -0.56100569524E+02 -0.14220605103E+02  0.30927174907E+02  0.11125436713E+03  0.89841775069E+02 0.  0.
        -13    1    4    4    0    0 -0.17417551446E+02 -0.50367663151E+02  0.94740839567E+01  0.54129759435E+02  0.00000000000E+00 0. -1.
         13    1    4    4    0    0 -0.38683018078E+02  0.36147058047E+02  0.21453090950E+02  0.57124607696E+02  0.00000000000E+00 0.  1.
        -13    1    3    3    0    0 -0.21855775266E+02 -0.22237107689E+00 -0.31155358260E+01  0.22077837867E+02  0.00000000000E+00 0.  1.
         13    1    3    3    0    0  0.93195788339E+02 -0.15150068962E+02  0.40640241111E+02  0.10279401126E+03  0.00000000000E+00 0. -1.
         21    1    1    2  502  501 -0.15239443549E+02  0.29593045143E+02 -0.26804840392E+02  0.42737435919E+02  0.00000000000E+00 0.  1.
<scales pt_clust_5="13000.00000" pt_clust_6="13000.00000" pt_clust_7="13000.00000" pt_clust_8="13000.00000" pt_clust_9="33.28647"></scales>
<clustering>
<clus scale="   33.286">  2  9  1 -1</clus>
<clus scale="   89.842">  5  6 -1 -1</clus>
<clus scale="   94.123">  7  8 -1 -1</clus>
<clus scale="  109.960">  1  5  2 -1</clus>
<clus scale="  109.960">  1  5  2 -1</clus>
</clustering>
</event>
<event>
 9    1  0.1612788E-005  0.1455104E+03  0.7546771E-02  0.1206191E+00
         -1   -1    0    0    0  501 -0.00000000000E+00  0.00000000000E+00  0.21024416440E+03  0.21024416440E+03  0.00000000000E+00 0.  1.
          1   -1    0    0  502    0  0.00000000000E+00 -0.00000000000E+00 -0.27432594521E+03  0.27432594521E+03  0.00000000000E+00 0. -1.
         23    2    1    2    0    0 -0.12939464635E+03  0.89360150414E+02 -0.11057627169E+03  0.21290216959E+03  0.91498693809E+02 0.  0.
         23    2    1    2    0    0  0.50090278516E+02 -0.64420803454E+02 -0.59812785096E+02  0.13671464917E+03  0.91946996238E+02 0.  0.
        -11    1    4    4    0    0 -0.26485447612E+02 -0.76753416835E+01 -0.11782136650E+02  0.29986806252E+02  0.00000000000E+00 0.  1.
         11    1    4    4    0    0  0.76575726129E+02 -0.56745461771E+02 -0.48030648447E+02  0.10672784292E+03  0.00000000000E+00 0. -1.
        -13    1    3    3    0    0 -0.10774875243E+03  0.10687842675E+03 -0.80051363728E+02  0.17158383546E+03  0.00000000000E+00 0.  1.
         13    1    3    3    0    0 -0.21645893922E+02 -0.17518276337E+02 -0.30524907964E+02  0.41318334135E+02  0.00000000000E+00 0. -1.
         21    1    1    2  502  501  0.79304367836E+02 -0.24939346959E+02  0.10630727597E+03  0.13495329084E+03  0.00000000000E+00 0. -1.
<scales pt_clust_5="13000.00000" pt_clust_6="13000.00000" pt_clust_7="13000.00000" pt_clust_8="13000.00000" pt_clust_9="83.13335"></scales>
<clustering>
<clus scale="   83.133">  1  9  2 -1</clus>
<clus scale="   91.499">  7  8 -1 -1</clus>
<clus scale="   91.947">  5  6 -1 -1</clus>
<clus scale="  145.228">  1  7  2 -1</clus>
<clus scale="  145.510">  2  5  1 -1</clus>
</clustering>
</event>
<event>
 9    1  0.1612788E-005  0.1088014E+03  0.7546771E-02  0.1265606E+00
         -1   -1    0    0    0  501 -0.00000000000E+00  0.00000000000E+00  0.27292947094E+03  0.27292947094E+03  0.00000000000E+00 0.  1.
          1   -1    0    0  502    0  0.00000000000E+00 -0.00000000000E+00 -0.54194892694E+02  0.54194892694E+02  0.00000000000E+00 0. -1.
         23    2    1    2    0    0 -0.51497968831E+02 -0.76079920767E+01  0.13466428459E+03  0.17238340667E+03  0.94189420914E+02 0.  0.
         23    2    1    2    0    0  0.55555377847E+02 -0.14166435899E+02  0.54843833723E+02  0.11806979334E+03  0.87438790527E+02 0.  0.
        -13    1    3    3    0    0 -0.26012158417E+02 -0.29606539905E+02  0.13295507558E+03  0.13867311099E+03  0.00000000000E+00 0.  1.
         13    1    3    3    0    0 -0.25485810414E+02  0.21998547828E+02  0.17092090156E+01  0.33710295674E+02  0.00000000000E+00 0. -1.
        -13    1    4    4    0    0  0.71537255585E+02  0.12489261759E+02  0.45161745708E+02  0.85516921549E+02  0.00000000000E+00 0. -1.
         13    1    4    4    0    0 -0.15981877738E+02 -0.26655697658E+02  0.96820880152E+01  0.32552871794E+02  0.00000000000E+00 0.  1.
         21    1    1    2  502  501 -0.40574090156E+01  0.21774427976E+02  0.29226459932E+02  0.36671163627E+02  0.00000000000E+00 0.  1.
<scales pt_clust_5="13000.00000" pt_clust_6="13000.00000" pt_clust_7="13000.00000" pt_clust_8="13000.00000" pt_clust_9="22.14923"></scales>
<clustering>
<clus scale="   22.149">  1  9  2 -1</clus>
<clus scale="   87.439">  7  8 -1 -1</clus>
<clus scale="   94.189">  5  6 -1 -1</clus>
<clus scale="  103.013">  2  7  1 -1</clus>
<clus scale="  103.013">  2  5  1 -1</clus>
</clustering>
</event>
<event>
 9    1  0.1612788E-005  0.1681402E+03  0.7546771E-02  0.1195103E+00
          1   -1    0    0  502    0  0.00000000000E+00  0.00000000000E+00  0.79867623090E+03  0.79867623090E+03  0.00000000000E+00 0. -1.
         -1   -1    0    0    0  501 -0.00000000000E+00 -0.00000000000E+00 -0.89849413748E+02  0.89849413748E+02  0.00000000000E+00 0.  1.
         23    2    1    2    0    0  0.46165203631E+02 -0.65202994965E+02  0.98257321562E+01  0.12012956111E+03  0.89173481822E+02 0.  0.
         23    2    1    2    0    0 -0.16661805112E+03  0.43644596337E+02  0.44087520616E+03  0.48273435642E+03  0.94842425691E+02 0.  0.
        -11    1    3    3    0    0  0.24651158860E+02 -0.49624143607E+02  0.48212673047E+02  0.73448601785E+02  0.00000000000E+00 0. -1.
         11    1    3    3    0    0  0.21514044771E+02 -0.15578851358E+02 -0.38386940891E+02  0.46680959320E+02  0.00000000000E+00 0.  1.
        -13    1    4    4    0    0 -0.15445232003E+03  0.82332831937E+01  0.39011720212E+03  0.41966026439E+03  0.00000000000E+00 0. -1.
         13    1    4    4    0    0 -0.12165731095E+02  0.35411313143E+02  0.50758004035E+02  0.63074092029E+02  0.00000000000E+00 0.  1.
         21    1    1    2  502  501  0.12045284749E+03  0.21558398628E+02  0.25812587884E+03  0.28566172713E+03  0.00000000000E+00 0. -1.
<scales pt_clust_5="13000.00000" pt_clust_6="13000.00000" pt_clust_7="13000.00000" pt_clust_8="13000.00000" pt_clust_9="138.83818"></scales>
<clustering>
<clus scale="   89.173">  5  6 -1 -1</clus>
<clus scale="   94.842">  7  8 -1 -1</clus>
<clus scale="  119.727">  2  5  1 -1</clus>
<clus scale="  138.838">  1  9  2 -1</clus>
<clus scale="  138.838">  1  5  2 -1</clus>
</clustering>
</event>
<event>
 9    1  0.1612788E-005  0.9917183E+02  0.7546771E-02  0.1284921E+00
          3   -1    0    0  502    0  0.00000000000E+00  0.00000000000E+00  0.47040591099E+03  0.47040591099E+03  0.00000000000E+00 0. -1.
         -3   -1    0    0    0  501 -0.00000000000E+00 -0.00000000000E+00 -0.80111952037E+02  0.80111952037E+02  0.00000000000E+00 0.  1.
         23    2    1    2    0    0  0.57976351508E+00 -0.27708443639E+02  0.13901403174E+03  0.17099615919E+03  0.95638336782E+02 0.  0.
         23    2    1    2    0    0 -0.27458429392E+02  0.13642445043E+02  0.30406755685E+03  0.31863780747E+03  0.90182545792E+02 0.  0.
        -11    1    3    3    0    0  0.37768028282E+02  0.16781814299E+02  0.63981258318E+02  0.76168593708E+02  0.00000000000E+00 0. -1.
         11    1    3    3    0    0 -0.37188264767E+02 -0.44490257938E+02  0.75032773417E+02  0.94827565478E+02  0.00000000000E+00 0.  1.
        -11    1    4    4    0    0  0.12887538473E+02  0.43271042751E+02  0.14916243196E+03  0.15584576637E+03  0.00000000000E+00 0. -1.
         11    1    4    4    0    0 -0.40345967865E+02 -0.29628597707E+02  0.15490512489E+03  0.16279204109E+03  0.00000000000E+00 0.  1.
         21    1    1    2  502  501  0.26878665877E+02  0.14065998596E+02 -0.52787629632E+02  0.60883896376E+02  0.00000000000E+00 0.  1.
<scales pt_clust_5="13000.00000" pt_clust_6="13000.00000" pt_clust_7="13000.00000" pt_clust_8="13000.00000" pt_clust_9="30.33669"></scales>
<clustering>
<clus scale="   30.337">  2  9  1 -1</clus>
<clus scale="   90.183">  7  8 -1 -1</clus>
<clus scale="   93.922">  1  7  2 -1</clus>
<clus scale="   95.638">  5  6 -1 -1</clus>
<clus scale="   93.922">  1  5  2 -1</clus>
</clustering>
</event>
<event>
 9    1  0.1612788E-005  0.1153376E+03  0.7546771E-02  0.1251153E+00
          2   -1    0    0  502    0  0.00000000000E+00  0.00000000000E+00  0.23814161947E+03  0.23814161947E+03  0.00000000000E+00 0. -1.
         -2   -1    0    0    0  501 -0.00000000000E+00 -0.00000000000E+00 -0.16167427062E+03  0.16167427062E+03  0.00000000000E+00 0.  1.
         23    2    1    2    0    0  0.10637112801E+02 -0.51649478415E+02 -0.49591400226E+02  0.11626637576E+03  0.90982121136E+02 0.  0.
         23    2    1    2    0    0 -0.41179760468E+02  0.63094363485E+02  0.18317974776E+03  0.21777225981E+03  0.90516660221E+02 0.  0.
        -13    1    3    3    0    0 -0.36082791674E+02 -0.32096685596E+02 -0.43966331749E+02  0.65308524778E+02  0.00000000000E+00 0. -1.
         13    1    3    3    0    0  0.46719904475E+02 -0.19552792820E+02 -0.56250684765E+01  0.50957850981E+02  0.00000000000E+00 0.  1.
        -13    1    4    4    0    0 -0.11256419406E+02  0.30753974774E+02  0.16801245857E+03  0.17117447291E+03  0.00000000000E+00 0. -1.
         13    1    4    4    0    0 -0.29923341063E+02  0.32340388711E+02  0.15167289190E+02  0.46597786898E+02  0.00000000000E+00 0.  1.
         21    1    1    2  502  501  0.30542647667E+02 -0.11444885070E+02 -0.57120998690E+02  0.65777254519E+02  0.00000000000E+00 0.  1.
<scales pt_clust_5="13000.00000" pt_clust_6="13000.00000" pt_clust_7="13000.00000" pt_clust_8="13000.00000" pt_clust_9="32.61654"></scales>
<clustering>
<clus scale="   32.617">  2  9  1 -1</clus>
<clus scale="   90.517">  7  8 -1 -1</clus>
<clus scale="   90.982">  5  6 -1 -1</clus>
<clus scale="  114.971">  1  7  2 -1</clus>
<clus scale="  114.971">  1  5  2 -1</clus>
</clustering>
</event>
<event>
 9    1  0.1612788E-005  0.2020961E+03  0.7546771E-02  0.1150021E+00
         -1   -1    0    0    0  501 -0.00000000000E+00  0.00000000000E+00  0.45375848720E+02  0.45375848720E+02  0.00000000000E+00 0.  1.
          1   -1    0    0  502    0  0.00000000000E+00 -0.00000000000E+00 -0.12583736790E+04  0.12583736790E+04  0.00000000000E+00 0. -1.
         23    2    1    2    0    0  0.19973588746E+03 -0.64167806343E+01 -0.64498909240E+03  0.67851086147E+03  0.66561700715E+02 0.  0.
         23    2    1    2    0    0 -0.15614949265E+03  0.52288907679E+02 -0.48995976898E+03  0.52476146785E+03  0.90538549768E+02 0.  0.
        -11    1    4    4    0    0 -0.12130552693E+03  0.77088270605E+02 -0.40279356586E+03  0.42766843352E+03  0.00000000000E+00 0.  1.
         11    1    4    4    0    0 -0.34843965719E+02 -0.24799362926E+02 -0.87166203125E+02  0.97093034331E+02  0.00000000000E+00 0. -1.
        -13    1    3    3    0    0  0.11005491458E+03  0.22472772778E+02 -0.28341654266E+03  0.30486398015E+03  0.00000000000E+00 0.  1.
         13    1    3    3    0    0  0.89680972878E+02 -0.28889553412E+02 -0.36157254975E+03  0.37364688132E+03  0.00000000000E+00 0. -1.
         21    1    1    2  502  501 -0.43586394806E+02 -0.45872127045E+02 -0.78048968866E+02  0.10047719837E+03  0.00000000000E+00 0. -1.
<scales pt_clust_5="13000.00000" pt_clust_6="13000.00000" pt_clust_7="13000.00000" pt_clust_8="13000.00000" pt_clust_9="63.27737"></scales>
<clustering>
<clus scale="   63.277">  1  9  2 -1</clus>
<clus scale="   66.562">  7  8 -1 -1</clus>
<clus scale="   90.539">  5  6 -1 -1</clus>
<clus scale="  192.551">  1  7  2 -1</clus>
<clus scale="  202.096">  2  5  1 -1</clus>
</clustering>
</event>
<event>
 9    1  0.1612788E-005  0.9428663E+02  0.7546771E-02  0.1295418E+00
          1   -1    0    0  502    0  0.00000000000E+00  0.00000000000E+00  0.54306660949E+03  0.54306660949E+03  0.00000000000E+00 0. -1.
         -1   -1    0    0    0  501 -0.00000000000E+00 -0.00000000000E+00 -0.39699484918E+02  0.39699484918E+02  0.00000000000E+00 0.  1.
         23    2    1    2    0    0 -0.35278348277E+01  0.30994517582E+01  0.37663415075E+02  0.10154085190E+03  0.94180462677E+02 0.  0.
         23    2    1    2    0    0 -0.21737108992E+02 -0.12190807757E+02  0.38820687278E+03  0.39920859882E+03  0.89676148433E+02 0.  0.
        -13    1    4    4    0    0 -0.56484434123E+02 -0.36145950918E+01  0.21362497695E+03  0.22099589899E+03  0.00000000000E+00 0.  1.
         13    1    4    4    0    0  0.34747325131E+02 -0.85762126656E+01  0.17458189583E+03  0.17821269982E+03  0.00000000000E+00 0. -1.
        -13    1    3    3    0    0  0.28414014427E+02 -0.92452538546E+01  0.55423497625E+02  0.62965030165E+02  0.00000000000E+00 0. -1.
         13    1    3    3    0    0 -0.31941849255E+02  0.12344705613E+02 -0.17760082550E+02  0.38575821737E+02  0.00000000000E+00 0.  1.
         21    1    1    2  502  501  0.25264943820E+02  0.90913559991E+01  0.77496836714E+02  0.82016643682E+02  0.00000000000E+00 0. -1.
<scales pt_clust_5="13000.00000" pt_clust_6="13000.00000" pt_clust_7="13000.00000" pt_clust_8="13000.00000" pt_clust_9="26.85089"></scales>
<clustering>
<clus scale="   26.851">  1  9  2 -1</clus>
<clus scale="   89.676">  5  6 -1 -1</clus>
<clus scale="   89.788">  1  5  2 -1</clus>
<clus scale="   94.180">  7  8 -1 -1</clus>
<clus scale="   26.851">  1  5  2 -1</clus>
</clustering>
</event>
<event>
 9    1  0.1612788E-005  0.1576659E+03  0.7546771E-02  0.1191452E+00
          2   -1    0    0  502    0  0.00000000000E+00  0.00000000000E+00  0.68100807027E+03  0.68100807027E+03  0.00000000000E+00 0. -1.
         -2   -1    0    0    0  501 -0.00000000000E+00 -0.00000000000E+00 -0.75707296102E+02  0.75707296102E+02  0.00000000000E+00 0.  1.
         23    2    1    2    0    0  0.10223054954E+03 -0.42221886952E+02  0.35183464226E+02  0.14856370528E+03  0.92733625915E+02 0.  0.
         23    2    1    2    0    0 -0.12862638897E+03  0.26349263621E+02  0.54586298610E+03  0.56894767232E+03  0.92173871652E+02 0.  0.
        -11    1    4    4    0    0 -0.70505754095E+02  0.37433292389E+02  0.44423649980E+03  0.45135172593E+03  0.00000000000E+00 0. -1.
         11    1    4    4    0    0 -0.58120634872E+02 -0.11084028768E+02  0.10162648629E+03  0.11759594639E+03  0.00000000000E+00 0.  1.
        -11    1    3    3    0    0  0.94164192367E+02  0.66900543095E+01  0.28048166125E+02  0.98480209046E+02  0.00000000000E+00 0.  1.
         11    1    3    3    0    0  0.80663571688E+01 -0.48911941262E+02  0.71352981014E+01  0.50083496234E+02  0.00000000000E+00 0. -1.
         21    1    1    2  502  501  0.26395839431E+02  0.15872623332E+02  0.24254323849E+02  0.39203988777E+02  0.00000000000E+00 0. -1.
<scales pt_clust_5="13000.00000" pt_clust_6="13000.00000" pt_clust_7="13000.00000" pt_clust_8="13000.00000" pt_clust_9="30.80066"></scales>
<clustering>
<clus scale="   30.801">  2  9  1 -1</clus>
<clus scale="   92.174">  5  6 -1 -1</clus>
<clus scale="   92.734">  7  8 -1 -1</clus>
<clus scale="  157.337">  1  5  2 -1</clus>
<clus scale="  157.337">  1  5  2 -1</clus>
</clustering>
</event>
<event>
 9    1  0.1612788E-005  0.1157648E+03  0.7546771E-02  0.1262597E+00
         -2   -1    0    0    0  501 -0.00000000000E+00  0.00000000000E+00  0.91235570961E+02  0.91235570961E+02  0.00000000000E+00 0.  1.
          2   -1    0    0  502    0  0.00000000000E+00 -0.00000000000E+00 -0.22235303059E+03  0.22235303059E+03  0.00000000000E+00 0. -1.
         23    2    1    2    0    0 -0.10551766947E+02 -0.97201559435E+01  0.21258606922E+02  0.11747437277E+03  0.11464065017E+03 0.  0.
         23    2    1    2    0    0  0.29685646864E+02 -0.11563948483E+02 -0.11974642739E+03  0.15271132780E+03  0.89255701394E+02 0.  0.
        -11    1    4    4    0    0 -0.49681065897E+01 -0.34915689383E+02 -0.12176975450E+02  0.37310403097E+02  0.00000000000E+00 0.  1.
         11    1    4    4    0    0  0.34653753454E+02  0.23351740900E+02 -0.10756945194E+03  0.11540092470E+03  0.00000000000E+00 0. -1.
        -13    1    3    3    0    0  0.57832607375E+01  0.51015717057E+02  0.84205406420E+00  0.51349377276E+02  0.00000000000E+00 0. -1.
         13    1    3    3    0    0 -0.16335027685E+02 -0.60735873000E+02  0.20416552858E+02  0.66124995495E+02  0.00000000000E+00 0.  1.
         21    1    1    2  502  501 -0.19133879917E+02  0.21284104427E+02 -0.32629639163E+02  0.43402900984E+02  0.00000000000E+00 0. -1.
<scales pt_clust_5="13000.00000" pt_clust_6="13000.00000" pt_clust_7="13000.00000" pt_clust_8="13000.00000" pt_clust_9="28.62025"></scales>
<clustering>
<clus scale="   28.620">  2  9  1 -1</clus>
<clus scale="   89.256">  5  6 -1 -1</clus>
<clus scale="   90.695">  2  5  1 -1</clus>
<clus scale="  114.641">  7  8 -1 -1</clus>
<clus scale="   28.620">  2  5  1 -1</clus>
</clustering>
</event>
<event>
 9    1  0.1612788E-005  0.1053607E+03  0.7546771E-02  0.1276266E+00
          3   -1    0    0  502    0  0.00000000000E+00  0.00000000000E+00  0.53244834473E+02  0.53244834473E+02  0.00000000000E+00 0. -1.
         -3   -1    0    0    0  501 -0.00000000000E+00 -0.00000000000E+00 -0.29452232031E+03  0.29452232031E+03  0.00000000000E+00 0.  1.
         23    2    1    2    0    0  0.12051252944E+02 -0.57074127750E+02 -0.10682876392E+03  0.14316102491E+03  0.75365811202E+02 0.  0.
         23    2    1    2    0    0  0.91983857174E+01  0.50912514568E+02 -0.47416312026E+02  0.11480550074E+03  0.90858692014E+02 0.  0.
        -11    1    4    4    0    0  0.32738217662E+02 -0.13478996847E+02 -0.10446084635E+02  0.36913343602E+02  0.00000000000E+00 0. -1.
         11    1    4    4    0    0 -0.23539831944E+02  0.64391511414E+02 -0.36970227391E+02  0.77892157137E+02  0.00000000000E+00 0.  1.
        -13    1    3    3    0    0 -0.21802169968E+02 -0.57407662742E+02 -0.70831871178E+02  0.93745017635E+02  0.00000000000E+00 0.  1.
         13    1    3    3    0    0  0.33853422911E+02  0.33353499206E+00 -0.35996892738E+02  0.49416007277E+02  0.00000000000E+00 0. -1.
         21    1    1    2  502  501 -0.21249638661E+02  0.61616131820E+01 -0.87032409897E+02  0.89800629133E+02  0.00000000000E+00 0. -1.
<scales pt_clust_5="13000.00000" pt_clust_6="13000.00000" pt_clust_7="13000.00000" pt_clust_8="13000.00000" pt_clust_9="22.12493"></scales>
<clustering>
<clus scale="   22.125">  2  9  1 -1</clus>
<clus scale="   75.366">  7  8 -1 -1</clus>
<clus scale="   90.859">  5  6 -1 -1</clus>
<clus scale="   92.334">  2  7  1 -1</clus>
<clus scale="  105.361">  1  5  2 -1</clus>
</clustering>
</event>
<event>
 9    1  0.1612788E-005  0.1270382E+03  0.7546771E-02  0.1232633E+00
          1   -1    0    0  502    0  0.00000000000E+00  0.00000000000E+00  0.13469824593E+03  0.13469824593E+03  0.00000000000E+00 0. -1.
         -1   -1    0    0    0  501 -0.00000000000E+00 -0.00000000000E+00 -0.37252387913E+03  0.37252387913E+03  0.00000000000E+00 0.  1.
         23    2    1    2    0    0 -0.64122587501E+02  0.61781374540E+02 -0.30949539183E+03  0.33517317779E+03  0.92870970034E+02 0.  0.
         23    2    1    2    0    0  0.58864061474E+02 -0.33765201007E+02  0.84214278480E+02  0.14090535959E+03  0.90317269280E+02 0.  0.
        -11    1    3    3    0    0 -0.48302422229E+02  0.16149565642E+02 -0.50534940460E+02  0.71747562125E+02  0.00000000000E+00 0. -1.
         11    1    3    3    0    0 -0.15820165273E+02  0.45631808898E+02 -0.25896045137E+03  0.26342561566E+03  0.00000000000E+00 0.  1.
        -11    1    4    4    0    0  0.41616293061E+02 -0.57206370763E+02  0.86463440174E+02  0.11171576071E+03  0.00000000000E+00 0. -1.
         11    1    4    4    0    0  0.17247768414E+02  0.23441169756E+02 -0.22491616932E+01  0.29189598886E+02  0.00000000000E+00 0.  1.
         21    1    1    2  502  501  0.52585260265E+01 -0.28016173534E+02 -0.12544519846E+02  0.31143587681E+02  0.00000000000E+00 0. -1.
<scales pt_clust_5="13000.00000" pt_clust_6="13000.00000" pt_clust_7="13000.00000" pt_clust_8="13000.00000" pt_clust_9="28.50540"></scales>
<clustering>
<clus scale="   28.505">  1  9  2 -1</clus>
<clus scale="   90.317">  7  8 -1 -1</clus>
<clus scale="   92.871">  5  6 -1 -1</clus>
<clus scale="  125.183">  1  7  2 -1</clus>
<clus scale="   28.505">  1  5  2 -1</clus>
</clustering>
</event>
<event>
 9    1  0.1612788E-005  0.1040719E+03  0.7546771E-02  0.1271998E+00
         -1   -1    0    0    0  501 -0.00000000000E+00  0.00000000000E+00  0.14341920101E+03  0.14341920101E+03  0.00000000000E+00 0.  1.
          1   -1    0    0  502    0  0.00000000000E+00 -0.00000000000E+00 -0.13822179628E+03  0.13822179628E+03  0.00000000000E+00 0. -1.
         23    2    1    2    0    0  0.67837331849E+02  0.82418834493E+00  0.32944044754E+02  0.11967498471E+03  0.92920444482E+02 0.  0.
         23    2    1    2    0    0 -0.19348063435E+02  0.28012855668E+02  0.48586925302E+00  0.98879890187E+02  0.92832801170E+02 0.  0.
        -11    1    4    4    0    0  0.18486868040E+02  0.51144646554E+02  0.29712110880E+01  0.54464366850E+02  0.00000000000E+00 0. -1.
         11    1    4    4    0    0 -0.37834931474E+02 -0.23131790886E+02 -0.24853418349E+01  0.44415523337E+02  0.00000000000E+00 0.  1.
        -11    1    3    3    0    0  0.54529461161E+02 -0.34289757866E+02  0.46830103793E+02  0.79638610298E+02  0.00000000000E+00 0.  1.
         11    1    3    3    0    0  0.13307870688E+02  0.35113946211E+02 -0.13886059039E+02  0.40036374416E+02  0.00000000000E+00 0. -1.
         21    1    1    2  502  501 -0.48489268414E+02 -0.28837044013E+02 -0.28232509279E+02  0.63086122396E+02  0.00000000000E+00 0.  1.
<scales pt_clust_5="13000.00000" pt_clust_6="13000.00000" pt_clust_7="13000.00000" pt_clust_8="13000.00000" pt_clust_9="56.41617"></scales>
<clustering>
<clus scale="   56.416">  2  9  1 -1</clus>
<clus scale="   92.833">  5  6 -1 -1</clus>
<clus scale="   92.920">  7  8 -1 -1</clus>
<clus scale="  103.994">  2  5  1 -1</clus>
<clus scale="   56.416">  2  5  1 -1</clus>
</clustering>
</event>
<event>
 9    1  0.1612788E-005  0.2023705E+03  0.7546771E-02  0.1147808E+00
         -2   -1    0    0    0  501 -0.00000000000E+00  0.00000000000E+00  0.88775536437E+02  0.88775536437E+02  0.00000000000E+00 0.  1.
          2   -1    0    0  502    0  0.00000000000E+00 -0.00000000000E+00 -0.88242193942E+03  0.88242193942E+03  0.00000000000E+00 0. -1.
         23    2    1    2    0    0 -0.15136196683E+03  0.47154689586E+02 -0.92614366795E+02  0.20455762811E+03  0.90179778942E+02 0.  0.
         23    2    1    2    0    0  0.18237638119E+03 -0.41211433459E+02 -0.70482876982E+03  0.73483369459E+03  0.90760328799E+02 0.  0.
        -11    1    4    4    0    0  0.10052124757E+03 -0.56241238563E+02 -0.29603355890E+03  0.31765305936E+03  0.00000000000E+00 0. -1.
         11    1    4    4    0    0  0.81855133621E+02  0.15029805104E+02 -0.40879521092E+03  0.41718063523E+03  0.00000000000E+00 0.  1.
        -11    1    3    3    0    0 -0.12900095748E+03  0.11884283617E+02 -0.36466462875E+02  0.13458189381E+03  0.00000000000E+00 0.  1.
         11    1    3    3    0    0 -0.22361009351E+02  0.35270405969E+02 -0.56147903920E+02  0.69975734302E+02  0.00000000000E+00 0. -1.
         21    1    1    2  502  501 -0.31014414366E+02 -0.59432561272E+01  0.37967336311E+01  0.31806153148E+02  0.00000000000E+00 0.  1.
<scales pt_clust_5="13000.00000" pt_clust_6="13000.00000" pt_clust_7="13000.00000" pt_clust_8="13000.00000" pt_clust_9="31.57873"></scales>
<clustering>
<clus scale="   31.579">  1  9  2 -1</clus>
<clus scale="   90.180">  7  8 -1 -1</clus>
<clus scale="   90.760">  5  6 -1 -1</clus>
<clus scale="  202.111">  1  7  2 -1</clus>
<clus scale="  202.370">  2  5  1 -1</clus>
</clustering>
</event>
<event>
 9    1  0.1612788E-005  0.1811463E+03  0.7546771E-02  0.1166907E+00
         -1   -1    0    0    0  501 -0.00000000000E+00  0.00000000000E+00  0.18461224328E+03  0.18461224328E+03  0.00000000000E+00 0.  1.
          1   -1    0    0  502    0  0.00000000000E+00 -0.00000000000E+00 -0.27651772148E+03  0.27651772148E+03  0.00000000000E+00 0. -1.
         23    2    1    2    0    0 -0.47884359070E+02  0.13323417604E+03  0.26345777579E+02  0.17121354148E+03  0.92605179554E+02 0.  0.
         23    2    1    2    0    0  0.42132572005E+02 -0.15490246269E+03 -0.15806798014E+03  0.24422212122E+03  0.94281660873E+02 0.  0.
        -11    1    3    3    0    0  0.28066539076E+02  0.40700842881E+02  0.89766234697E+01  0.50248074549E+02  0.00000000000E+00 0.  1.
         11    1    3    3    0    0 -0.75950898146E+02  0.92533333157E+02  0.17369154110E+02  0.12096546693E+03  0.00000000000E+00 0. -1.
        -11    1    4    4    0    0  0.57057095844E+02 -0.67430380873E+02 -0.41155849964E+02  0.97448306487E+02  0.00000000000E+00 0.  1.
         11    1    4    4    0    0 -0.14924523839E+02 -0.87472081819E+02 -0.11691213018E+03  0.14677381474E+03  0.00000000000E+00 0. -1.
         21    1    1    2  502  501  0.57517870651E+01  0.21668286654E+02  0.39816724364E+02  0.45694302053E+02  0.00000000000E+00 0.  1.
<scales pt_clust_5="13000.00000" pt_clust_6="13000.00000" pt_clust_7="13000.00000" pt_clust_8="13000.00000" pt_clust_9="22.41869"></scales>
<clustering>
<clus scale="   22.419">  1  9  2 -1</clus>
<clus scale="   92.605">  5  6 -1 -1</clus>
<clus scale="   94.282">  7  8 -1 -1</clus>
<clus scale="  180.279">  1  5  2 -1</clus>
<clus scale="  181.146">  2  5  1 -1</clus>
</clustering>
</event>
<event>
 9    1  0.1612788E-005  0.1022877E+03  0.7546771E-02  0.1278782E+00
          1   -1    0    0  502    0  0.00000000000E+00  0.00000000000E+00  0.83801682374E+02  0.83801682374E+02  0.00000000000E+00 0. -1.
         -1   -1    0    0    0  501 -0.00000000000E+00 -0.00000000000E+00 -0.23486481405E+03  0.23486481405E+03  0.00000000000E+00 0.  1.
         23    2    1    2    0    0 -0.23225476003E+01  0.49937021192E+02 -0.81108741319E+02  0.13230503978E+03  0.91798122633E+02 0.  0.
         23    2    1    2    0    0  0.29340917223E+02 -0.53214934785E+01 -0.45638550235E+01  0.10271661388E+03  0.98186894635E+02 0.  0.
        -11    1    4    4    0    0 -0.15197498847E+02  0.13382371340E+02 -0.38623701350E+02  0.43610115110E+02  0.00000000000E+00 0. -1.
         11    1    4    4    0    0  0.44538416070E+02 -0.18703864819E+02  0.34059846327E+02  0.59106498771E+02  0.00000000000E+00 0.  1.
        -11    1    3    3    0    0  0.12801051986E+02  0.36587560268E+02 -0.98385061485E+02  0.10574562318E+03  0.00000000000E+00 0.  1.
         11    1    3    3    0    0 -0.15123599586E+02  0.13349460925E+02  0.17276320166E+02  0.26559416596E+02  0.00000000000E+00 0. -1.
         21    1    1    2  502  501 -0.27018369623E+02 -0.44615527714E+02 -0.65390535334E+02  0.83644842767E+02  0.00000000000E+00 0. -1.
<scales pt_clust_5="13000.00000" pt_clust_6="13000.00000" pt_clust_7="13000.00000" pt_clust_8="13000.00000" pt_clust_9="52.15877"></scales>
<clustering>
<clus scale="   52.159">  2  9  1 -1</clus>
<clus scale="   91.798">  7  8 -1 -1</clus>
<clus scale="   96.172">  2  7  1 -1</clus>
<clus scale="   98.187">  5  6 -1 -1</clus>
<clus scale="  102.288">  1  5  2 -1</clus>
</clustering>
</event>
<event>
 9    1  0.1612788E-005  0.1486026E+03  0.7546771E-02  0.1202306E+00
         -3   -1    0    0    0  501 -0.00000000000E+00  0.00000000000E+00  0.70138338753E+03  0.70138338753E+03  0.00000000000E+00 0.  1.
          3   -1    0    0  502    0  0.00000000000E+00 -0.00000000000E+00 -0.39681397851E+02  0.39681397851E+02  0.00000000000E+00 0. -1.
         23    2    1    2    0    0 -0.12044098131E+03  0.50369503696E+02  0.32447756458E+03  0.36188188405E+03  0.92896131276E+02 0.  0.
         23    2    1    2    0    0  0.95350685720E+02 -0.44704955077E+02  0.23326481183E+03  0.27208849795E+03  0.92354707529E+02 0.  0.
        -11    1    3    3    0    0 -0.13043010614E+03  0.25223890283E+02  0.27777215371E+03  0.30790522342E+03  0.00000000000E+00 0. -1.
         11    1    3    3    0    0  0.99891248305E+01  0.25145613413E+02  0.46705410865E+02  0.53976660630E+02  0.00000000000E+00 0.  1.
        -13    1    4    4    0    0  0.74568161189E+02  0.11215422867E+02  0.93460785774E+02  0.12008794632E+03  0.00000000000E+00 0. -1.
         13    1    4    4    0    0  0.20782524532E+02 -0.55920377944E+02  0.13980402606E+03  0.15200055163E+03  0.00000000000E+00 0.  1.
         21    1    1    2  502  501  0.25090295594E+02 -0.56645486192E+01  0.10395961328E+03  0.10709440339E+03  0.00000000000E+00 0.  1.
<scales pt_clust_5="13000.00000" pt_clust_6="13000.00000" pt_clust_7="13000.00000" pt_clust_8="13000.00000" pt_clust_9="25.72178"></scales>
<clustering>
<clus scale="   25.722">  1  9  2 -1</clus>
<clus scale="   92.355">  7  8 -1 -1</clus>
<clus scale="   92.896">  5  6 -1 -1</clus>
<clus scale="  148.265">  2  7  1 -1</clus>
<clus scale="  148.265">  2  5  1 -1</clus>
</clustering>
</event>
<event>
 9    1  0.1612788E-005  0.1297903E+03  0.7546771E-02  0.1228210E+00
         -2   -1    0    0    0  501 -0.00000000000E+00  0.00000000000E+00  0.71982856993E+02  0.71982856993E+02  0.00000000000E+00 0.  1.
          2   -1    0    0  502    0  0.00000000000E+00 -0.00000000000E+00 -0.33507734093E+03  0.33507734093E+03  0.00000000000E+00 0. -1.
         23    2    1    2    0    0 -0.96503952397E+02 -0.25265762034E+02 -0.74551840105E+02  0.15409771810E+03  0.90756588200E+02 0.  0.
         23    2    1    2    0    0  0.80343569971E+02  0.40934451485E+02 -0.19213650693E+03  0.23016814628E+03  0.89051781093E+02 0.  0.
        -11    1    4    4    0    0  0.97303495017E+02  0.21220644118E+02 -0.16386605551E+03  0.19175601693E+03  0.00000000000E+00 0. -1.
         11    1    4    4    0    0 -0.16959925045E+02  0.19713807367E+02 -0.28270451416E+02  0.38412129357E+02  0.00000000000E+00 0.  1.
        -11    1    3    3    0    0 -0.74976314820E+02 -0.43750546326E+02 -0.87190463096E+02  0.12303550277E+03  0.00000000000E+00 0. -1.
         11    1    3    3    0    0 -0.21527637577E+02  0.18484784292E+02  0.12638622992E+02  0.31062215328E+02  0.00000000000E+00 0.  1.
         21    1    1    2  502  501  0.16160382426E+02 -0.15668689451E+02  0.35938630972E+01  0.22794333534E+02  0.00000000000E+00 0.  1.
<scales pt_clust_5="13000.00000" pt_clust_6="13000.00000" pt_clust_7="13000.00000" pt_clust_8="13000.00000" pt_clust_9="22.50924"></scales>
<clustering>
<clus scale="   22.509">  1  9  2 -1</clus>
<clus scale="   89.052">  5  6 -1 -1</clus>
<clus scale="   90.757">  7  8 -1 -1</clus>
<clus scale="  128.604">  2  5  1 -1</clus>
<clus scale="  128.604">  2  5  1 -1</clus>
</clustering>
</event>
<event>
 9    1  0.1612788E-005  0.9466913E+02  0.7546771E-02  0.1293519E+00
          2   -1    0    0  502    0  0.00000000000E+00  0.00000000000E+00  0.23555447667E+03  0.23555447667E+03  0.00000000000E+00 0. -1.
         -2   -1    0    0    0  501 -0.00000000000E+00 -0.00000000000E+00 -0.81050506821E+02  0.81050506821E+02  0.00000000000E+00 0.  1.
         23    2    1    2    0    0 -0.18615426516E+02  0.63167660514E+02  0.86156209274E+02  0.13862991935E+03  0.86363619099E+02 0.  0.
         23    2    1    2    0    0  0.56273648714E+01 -0.14817585111E+01  0.71946667144E+02  0.11483401268E+03  0.89312175602E+02 0.  0.
        -13    1    4    4    0    0  0.32224916695E+02  0.22534065582E+02  0.68303527635E+02  0.78813712354E+02  0.00000000000E+00 0. -1.
         13    1    4    4    0    0 -0.26597551823E+02 -0.24015824093E+02  0.36431395090E+01  0.36020300323E+02  0.00000000000E+00 0.  1.
        -13    1    3    3    0    0  0.15885410424E+02  0.41881188638E+02  0.87249804008E+02  0.98076034410E+02  0.00000000000E+00 0.  1.
         13    1    3    3    0    0 -0.34500836940E+02  0.21286471876E+02 -0.10935947340E+01  0.40553884943E+02  0.00000000000E+00 0. -1.
         21    1    1    2  502  501  0.12988061644E+02 -0.61685902003E+02 -0.35989065690E+01  0.63141051462E+02  0.00000000000E+00 0.  1.
<scales pt_clust_5="13000.00000" pt_clust_6="13000.00000" pt_clust_7="13000.00000" pt_clust_8="13000.00000" pt_clust_9="63.03840"></scales>
<clustering>
<clus scale="   63.038">  2  9  1 -1</clus>
<clus scale="   86.364">  7  8 -1 -1</clus>
<clus scale="   89.312">  5  6 -1 -1</clus>
<clus scale="   91.893">  2  7  1 -1</clus>
<clus scale="   94.669">  1  5  2 -1</clus>
</clustering>
</event>
<event>
 9    1  0.1612788E-005  0.1038650E+03  0.7546771E-02  0.1273009E+00
         -3   -1    0    0    0  501 -0.00000000000E+00  0.00000000000E+00  0.35411739737E+03  0.35411739737E+03  0.00000000000E+00 0.  1.
          3   -1    0    0  502    0  0.00000000000E+00 -0.00000000000E+00 -0.13502394209E+03  0.13502394209E+03  0.00000000000E+00 0. -1.
         23    2    1    2    0    0  0.56025399976E+02 -0.47500550987E+02  0.22328072515E+03  0.25286943236E+03  0.93239046603E+02 0.  0.
         23    2    1    2    0    0 -0.44699165177E+02 -0.70490777267E+01 -0.88427527227E+02  0.13527504305E+03  0.91827037607E+02 0.  0.
        -13    1    4    4    0    0 -0.67862433485E+02  0.13823381784E+02 -0.72498330190E+02  0.10026167584E+03  0.00000000000E+00 0. -1.
         13    1    4    4    0    0  0.23163268308E+02 -0.20872459511E+02 -0.15929197036E+02  0.35013367204E+02  0.00000000000E+00 0.  1.
        -13    1    3    3    0    0 -0.14297251799E+02 -0.28104233487E+02  0.21124354311E+02  0.37953889049E+02  0.00000000000E+00 0. -1.
         13    1    3    3    0    0  0.70322651775E+02 -0.19396317500E+02  0.20215637084E+03  0.21491554331E+03  0.00000000000E+00 0.  1.
         21    1    1    2  502  501 -0.11326234798E+02  0.54549628713E+02  0.84240257351E+02  0.10099686404E+03  0.00000000000E+00 0.  1.
<scales pt_clust_5="13000.00000" pt_clust_6="13000.00000" pt_clust_7="13000.00000" pt_clust_8="13000.00000" pt_clust_9="55.71306"></scales>
<clustering>
<clus scale="   55.713">  1  9  2 -1</clus>
<clus scale="   91.827">  5  6 -1 -1</clus>
<clus scale="   93.239">  7  8 -1 -1</clus>
<clus scale="  102.599">  2  5  1 -1</clus>
<clus scale="  102.599">  2  5  1 -1</clus>
</clustering>
</event>
<event>
 9    1  0.1612788E-005  0.1512374E+03  0.7546771E-02  0.1199041E+00
         -2   -1    0    0    0  501 -0.00000000000E+00  0.00000000000E+00  0.14312514737E+03  0.14312514737E+03  0.00000000000E+00 0. -1.
          2   -1    0    0  502    0  0.00000000000E+00 -0.00000000000E+00 -0.33644896280E+03  0.33644896280E+03  0.00000000000E+00 0.  1.
         23    2    1    2    0    0 -0.14482739665E+03 -0.28638882058E+02  0.31985545639E+02  0.17625758243E+03  0.90821252176E+02 0.  0.
         23    2    1    2    0    0  0.11351628786E+03  0.20817810626E+02 -0.22786325127E+03  0.27094250966E+03  0.90381709491E+02 0.  0.
        -13    1    3    3    0    0 -0.42304304178E+02  0.97376239086E+01 -0.27776929235E+02  0.51536717679E+02  0.00000000000E+00 0.  1.
         13    1    3    3    0    0 -0.10252309247E+03 -0.38376505966E+02  0.59762474874E+02  0.12472086475E+03  0.00000000000E+00 0. -1.
        -13    1    4    4    0    0  0.94431932801E+02 -0.15581959008E+02 -0.10839154712E+03  0.14459915237E+03  0.00000000000E+00 0.  1.
         13    1    4    4    0    0  0.19084355059E+02  0.36399769635E+02 -0.11947170416E+03  0.12634335729E+03  0.00000000000E+00 0. -1.
         21    1    1    2  502  501  0.31311108790E+02  0.78210714312E+01  0.25538902018E+01  0.32374018088E+02  0.00000000000E+00 0. -1.
<scales pt_clust_5="13000.00000" pt_clust_6="13000.00000" pt_clust_7="13000.00000" pt_clust_8="13000.00000" pt_clust_9="32.27313"></scales>
<clustering>
<clus scale="   32.273">  1  9  2 -1</clus>
<clus scale="   90.382">  7  8 -1 -1</clus>
<clus scale="   90.821">  5  6 -1 -1</clus>
<clus scale="  150.974">  2  7  1 -1</clus>
<clus scale="  150.974">  2  5  1 -1</clus>
</clustering>
</event>
<event>
 9    1  0.1612788E-005  0.1099601E+03  0.7546771E-02  0.1261119E+00
         -3   -1    0    0    0  501 -0.00000000000E+00  0.00000000000E+00  0.16535060160E+03  0.16535060160E+03  0.00000000000E+00 0.  1.
          3   -1    0    0  502    0  0.00000000000E+00 -0.00000000000E+00 -0.13630251107E+03  0.13630251107E+03  0.00000000000E+00 0. -1.
         23    2    1    2    0    0 -0.62907787594E+02 -0.25228386526E+02 -0.96446102650E+00  0.11490922671E+03  0.92786523655E+02 0.  0.
         23    2    1    2    0    0  0.56002325155E+02 -0.95242643458E+01 -0.34492121879E+02  0.11314847137E+03  0.91574549229E+02 0.  0.
        -11    1    3    3    0    0 -0.39985212128E+02  0.22194203716E+02  0.29153861796E+02  0.54234191477E+02  0.00000000000E+00 0.  1.
         11    1    3    3    0    0 -0.22922575465E+02 -0.47422590241E+02 -0.30118322823E+02  0.60675035235E+02  0.00000000000E+00 0. -1.
        -13    1    4    4    0    0  0.47436315055E+02 -0.47825049416E+02 -0.29673532066E+02  0.73606778511E+02  0.00000000000E+00 0. -1.
         13    1    4    4    0    0  0.85660101005E+01  0.38300785070E+02 -0.48185898134E+01  0.39541692854E+02  0.00000000000E+00 0.  1.
         21    1    1    2  502  501  0.69054624388E+01  0.34752650871E+02  0.64504673437E+02  0.73595414594E+02  0.00000000000E+00 0.  1.
<scales pt_clust_5="13000.00000" pt_clust_6="13000.00000" pt_clust_7="13000.00000" pt_clust_8="13000.00000" pt_clust_9="35.43208"></scales>
<clustering>
<clus scale="   35.432">  1  9  2 -1</clus>
<clus scale="   91.575">  7  8 -1 -1</clus>
<clus scale="   92.787">  5  6 -1 -1</clus>
<clus scale="  108.939">  2  7  1 -1</clus>
<clus scale="  108.939">  2  5  1 -1</clus>
</clustering>
</event>
<event>
 9    1  0.1612788E-005  0.1777641E+03  0.7546771E-02  0.1176250E+00
          1   -1    0    0  502    0  0.00000000000E+00  0.00000000000E+00  0.14971888934E+04  0.14971888934E+04  0.00000000000E+00 0. -1.
         -1   -1    0    0    0  501 -0.00000000000E+00 -0.00000000000E+00 -0.46524015368E+02  0.46524015368E+02  0.00000000000E+00 0.  1.
         23    2    1    2    0    0 -0.69882029958E+02 -0.10146975259E+03  0.27897004272E+03  0.31872709682E+03  0.92644852594E+02 0.  0.
         23    2    1    2    0    0 -0.99034646122E+02  0.12669466478E+03  0.51259114801E+03  0.54411371656E+03  0.86317161212E+02 0.  0.
        -11    1    4    4    0    0 -0.59399421067E+02  0.11733682705E+03  0.45466925276E+03  0.47330788247E+03  0.00000000000E+00 0. -1.
         11    1    4    4    0    0 -0.39635225055E+02  0.93578377298E+01  0.57921895248E+02  0.70805834090E+02  0.00000000000E+00 0.  1.
        -11    1    3    3    0    0 -0.21620764611E+02  0.15157836799E+02  0.67119895554E+02  0.72126956528E+02  0.00000000000E+00 0. -1.
         11    1    3    3    0    0 -0.48261265347E+02 -0.11662758939E+03  0.21185014716E+03  0.24660014029E+03  0.00000000000E+00 0.  1.
         21    1    1    2  502  501  0.16891667608E+03 -0.25224912196E+02  0.65910368732E+03  0.68087209539E+03  0.00000000000E+00 0.  1.
<scales pt_clust_5="13000.00000" pt_clust_6="13000.00000" pt_clust_7="13000.00000" pt_clust_8="13000.00000" pt_clust_9="155.40079"></scales>
<clustering>
<clus scale="   86.317">  5  6 -1 -1</clus>
<clus scale="   92.645">  7  8 -1 -1</clus>
<clus scale="  154.151">  2  7  1 -1</clus>
<clus scale="  155.401">  1  9  2 -1</clus>
<clus scale="  155.401">  1  5  2 -1</clus>
</clustering>
</event>
<event>
 9    1  0.1612788E-005  0.2151594E+03  0.7546771E-02  0.1137778E+00
          2   -1    0    0  502    0  0.00000000000E+00  0.00000000000E+00  0.20391015085E+03  0.20391015085E+03  0.00000000000E+00 0. -1.
         -2   -1    0    0    0  501 -0.00000000000E+00 -0.00000000000E+00 -0.64971023997E+03  0.64971023997E+03  0.00000000000E+00 0.  1.
         23    2    1    2    0    0 -0.14485634995E+03 -0.12197873862E+03 -0.28674772818E+03  0.35682220063E+03  0.96102281179E+02 0.  0.
         23    2    1    2    0    0  0.87644630188E+02  0.17350196239E+03  0.90174087872E+02  0.23595025315E+03  0.98775724162E+02 0.  0.
        -11    1    3    3    0    0 -0.12605119776E+03 -0.13361614505E+03 -0.22054315366E+03  0.28702170876E+03  0.00000000000E+00 0.  1.
         11    1    3    3    0    0 -0.18805152196E+02  0.11637406430E+02 -0.66204574519E+02  0.69800491866E+02  0.00000000000E+00 0. -1.
        -13    1    4    4    0    0 -0.10187229861E+02  0.20983782033E+02 -0.13738026517E+02  0.27070872413E+02  0.00000000000E+00 0.  1.
         13    1    4    4    0    0  0.97831860049E+02  0.15251818036E+03  0.10391211439E+03  0.20887938074E+03  0.00000000000E+00 0. -1.
         21    1    1    2  502  501  0.57211719767E+02 -0.51523223772E+02 -0.24922644882E+03  0.26084793704E+03  0.00000000000E+00 0.  1.
<scales pt_clust_5="13000.00000" pt_clust_6="13000.00000" pt_clust_7="13000.00000" pt_clust_8="13000.00000" pt_clust_9="76.99236"></scales>
<clustering>
<clus scale="   76.992">  2  9  1 -1</clus>
<clus scale="   96.102">  5  6 -1 -1</clus>
<clus scale="   98.776">  7  8 -1 -1</clus>
<clus scale="  213.945">  2  5  1 -1</clus>
<clus scale="  215.159">  1  5  2 -1</clus>
</clustering>
</event>
<event>
 9    1  0.1612788E-005  0.1227793E+03  0.7546771E-02  0.1259647E+00
         -1   -1    0    0    0  501 -0.00000000000E+00  0.00000000000E+00  0.12819336431E+03  0.12819336431E+03  0.00000000000E+00 0.  1.
          1   -1    0    0  502    0  0.00000000000E+00 -0.00000000000E+00 -0.44444705749E+03  0.44444705749E+03  0.00000000000E+00 0. -1.
         23    2    1    2    0    0  0.57359106438E+02  0.39822356783E+02 -0.84603322853E+01  0.11464279625E+03  0.90529035770E+02 0.  0.
         23    2    1    2    0    0  0.21767398148E+02  0.12148003215E+01 -0.35016043913E+03  0.35930607927E+03  0.77545019870E+02 0.  0.
        -11    1    3    3    0    0  0.59400905195E+02  0.17045332611E+02  0.30921765078E+02  0.69102579238E+02  0.00000000000E+00 0.  1.
         11    1    3    3    0    0 -0.20417987568E+01  0.22777024173E+02 -0.39382097363E+02  0.45540217007E+02  0.00000000000E+00 0. -1.
        -11    1    4    4    0    0 -0.81867742156E+01 -0.33600023855E+02 -0.15610881235E+03  0.15989354637E+03  0.00000000000E+00 0.  1.
         11    1    4    4    0    0  0.29954172363E+02  0.34814824177E+02 -0.19405162677E+03  0.19941253290E+03  0.00000000000E+00 0. -1.
         21    1    1    2  502  501 -0.79126504586E+02 -0.41037157105E+02  0.42367078237E+02  0.98691546293E+02  0.00000000000E+00 0.  1.
<scales pt_clust_5="13000.00000" pt_clust_6="13000.00000" pt_clust_7="13000.00000" pt_clust_8="13000.00000" pt_clust_9="82.94118"></scales>
<clustering>
<clus scale="   77.545">  7  8 -1 -1</clus>
<clus scale="   80.551">  2  7  1 -1</clus>
<clus scale="   82.941">  1  9  2 -1</clus>
<clus scale="   90.529">  5  6 -1 -1</clus>
<clus scale="   80.551">  2  5  1 -1</clus>
</clustering>
</event>
<event>
 9    1  0.1612788E-005  0.1139515E+03  0.7546771E-02  0.1253810E+00
          2   -1    0    0  502    0  0.00000000000E+00  0.00000000000E+00  0.27184194922E+03  0.27184194922E+03  0.00000000000E+00 0. -1.
         -2   -1    0    0    0  501 -0.00000000000E+00 -0.00000000000E+00 -0.91731017761E+02  0.91731017761E+02  0.00000000000E+00 0.  1.
         23    2    1    2    0    0  0.13063606163E+02  0.77056720266E+02 -0.16316049713E+02  0.12132432885E+03  0.91350880390E+02 0.  0.
         23    2    1    2    0    0 -0.24077587675E+02 -0.59708313287E+02  0.18970764821E+03  0.22062863700E+03  0.92429382617E+02 0.  0.
        -11    1    4    4    0    0  0.30340324946E+02 -0.43986837540E+02  0.11559825343E+03  0.12735122061E+03  0.00000000000E+00 0.  1.
         11    1    4    4    0    0 -0.54417912621E+02 -0.15721475747E+02  0.74109394780E+02  0.93277416389E+02  0.00000000000E+00 0. -1.
        -13    1    3    3    0    0  0.35880792032E+02  0.14182257577E+02 -0.34771074239E+02  0.51938379552E+02  0.00000000000E+00 0.  1.
         13    1    3    3    0    0 -0.22817185868E+02  0.62874462690E+02  0.18455024526E+02  0.69385949296E+02  0.00000000000E+00 0. -1.
         21    1    1    2  502  501  0.11013981511E+02 -0.17348406979E+02  0.67193329599E+01  0.21620001130E+02  0.00000000000E+00 0.  1.
<scales pt_clust_5="13000.00000" pt_clust_6="13000.00000" pt_clust_7="13000.00000" pt_clust_8="13000.00000" pt_clust_9="20.54933"></scales>
<clustering>
<clus scale="   20.549">  2  9  1 -1</clus>
<clus scale="   91.351">  7  8 -1 -1</clus>
<clus scale="   92.429">  5  6 -1 -1</clus>
<clus scale="  113.078">  2  7  1 -1</clus>
<clus scale="  113.952">  1  5  2 -1</clus>
</clustering>
</event>
<event>
 9    1  0.1612788E-005  0.1008843E+03  0.7546771E-02  0.1279427E+00
          1   -1    0    0  502    0  0.00000000000E+00  0.00000000000E+00  0.71425076509E+03  0.71425076509E+03  0.00000000000E+00 0. -1.
         -1   -1    0    0    0  501 -0.00000000000E+00 -0.00000000000E+00 -0.23297527430E+02  0.23297527430E+02  0.00000000000E+00 0.  1.
         23    2    1    2    0    0 -0.14367953807E+02 -0.58249984684E+01  0.16049367433E+03  0.18529520366E+03  0.91300187816E+02 0.  0.
         23    2    1    2    0    0  0.47385216621E+02  0.11919005631E+02  0.48149398506E+03  0.49288218334E+03  0.93321849293E+02 0.  0.
        -11    1    4    4    0    0  0.75604353218E+02  0.27012027635E+01  0.34525381369E+03  0.35344520168E+03  0.00000000000E+00 0. -1.
         11    1    4    4    0    0 -0.28219136597E+02  0.92178028672E+01  0.13624017137E+03  0.13943698166E+03  0.00000000000E+00 0.  1.
        -13    1    3    3    0    0 -0.36235049184E+02 -0.19334545303E+02  0.26544301269E+02  0.48901977070E+02  0.00000000000E+00 0.  1.
         13    1    3    3    0    0  0.21867095378E+02  0.13509546835E+02  0.13394937306E+03  0.13639322659E+03  0.00000000000E+00 0. -1.
         21    1    1    2  502  501 -0.33017262815E+02 -0.60940071622E+01  0.48965578266E+02  0.59370905518E+02  0.00000000000E+00 0.  1.
<scales pt_clust_5="13000.00000" pt_clust_6="13000.00000" pt_clust_7="13000.00000" pt_clust_8="13000.00000" pt_clust_9="33.57494"></scales>
<clustering>
<clus scale="   33.575">  2  9  1 -1</clus>
<clus scale="   91.300">  7  8 -1 -1</clus>
<clus scale="   93.322">  5  6 -1 -1</clus>
<clus scale="   99.017">  2  7  1 -1</clus>
<clus scale="  100.884">  1  5  2 -1</clus>
</clustering>
</event>
<event>
 9    1  0.1612788E-005  0.3902381E+03  0.7546771E-02  0.1047440E+00
         -1   -1    0    0    0  501 -0.00000000000E+00  0.00000000000E+00  0.34709938910E+03  0.34709938910E+03  0.00000000000E+00 0.  1.
          1   -1    0    0  502    0  0.00000000000E+00 -0.00000000000E+00 -0.93369638789E+03  0.93369638789E+03  0.00000000000E+00 0. -1.
         23    2    1    2    0    0  0.40165459895E+03  0.24962255912E+02 -0.36808645506E+03  0.55289380984E+03  0.90853703751E+02 0.  0.
         23    2    1    2    0    0 -0.35311624154E+03 -0.54549642791E+02 -0.39520491647E+03  0.54228869458E+03  0.10111062602E+03 0.  0.
        -11    1    3    3    0    0  0.38115357616E+03  0.32304169319E+02 -0.36845776173E+03  0.53111461113E+03  0.00000000000E+00 0.  1.
         11    1    3    3    0    0  0.20501022784E+02 -0.73419134074E+01  0.37130667387E+00  0.21779198707E+02  0.00000000000E+00 0. -1.
        -11    1    4    4    0    0 -0.39942750452E+02  0.68108571836E+01 -0.93896047654E+01  0.41592977375E+02  0.00000000000E+00 0.  1.
         11    1    4    4    0    0 -0.31317349109E+03 -0.61360499974E+02 -0.38581531170E+03  0.50069571720E+03  0.00000000000E+00 0. -1.
         21    1    1    2  502  501 -0.48538357404E+02  0.29587386879E+02  0.17669437273E+03  0.18561327257E+03  0.00000000000E+00 0. -1.
<scales pt_clust_5="13000.00000" pt_clust_6="13000.00000" pt_clust_7="13000.00000" pt_clust_8="13000.00000" pt_clust_9="56.84528"></scales>
<clustering>
<clus scale="   56.845">  1  9  2 -1</clus>
<clus scale="   90.854">  5  6 -1 -1</clus>
<clus scale="  101.111">  7  8 -1 -1</clus>
<clus scale="  387.707">  1  5  2 -1</clus>
<clus scale="  390.238">  2  5  1 -1</clus>
</clustering>
</event>
<event>
 9    1  0.1612788E-005  0.1026836E+03  0.7546771E-02  0.1276611E+00
         -1   -1    0    0    0  501 -0.00000000000E+00  0.00000000000E+00  0.49244824898E+02  0.49244824898E+02  0.00000000000E+00 0.  1.
          1   -1    0    0  502    0  0.00000000000E+00 -0.00000000000E+00 -0.35065954771E+03  0.35065954771E+03  0.00000000000E+00 0. -1.
         23    2    1    2    0    0  0.29082162182E+02  0.48772086274E+02 -0.92650827331E+02  0.14496808673E+03  0.95953539843E+02 0.  0.
         23    2    1    2    0    0 -0.29792558598E+02 -0.89345260319E+01 -0.18378618917E+03  0.20791053036E+03  0.92097790435E+02 0.  0.
        -11    1    4    4    0    0  0.29094695458E+02 -0.21557753065E+02 -0.56701443914E+02  0.67277721148E+02  0.00000000000E+00 0.  1.
         11    1    4    4    0    0 -0.58887254055E+02  0.12623227033E+02 -0.12708474526E+03  0.14063280922E+03  0.00000000000E+00 0. -1.
        -13    1    3    3    0    0  0.11294264166E+01  0.22891305315E+02 -0.10297896152E+03  0.10549859705E+03  0.00000000000E+00 0. -1.
         13    1    3    3    0    0  0.27952735766E+02  0.25880780959E+02  0.10328134191E+02  0.39469489682E+02  0.00000000000E+00 0.  1.
         21    1    1    2  502  501  0.71039641538E+00 -0.39837560242E+02 -0.24977706310E+02  0.47025755514E+02  0.00000000000E+00 0.  1.
<scales pt_clust_5="13000.00000" pt_clust_6="13000.00000" pt_clust_7="13000.00000" pt_clust_8="13000.00000" pt_clust_9="39.84389"></scales>
<clustering>
<clus scale="   39.844">  1  9  2 -1</clus>
<clus scale="   92.098">  5  6 -1 -1</clus>
<clus scale="   95.954">  7  8 -1 -1</clus>
<clus scale="   99.090">  2  5  1 -1</clus>
<clus scale="   99.090">  2  5  1 -1</clus>
</clustering>
</event>
<event>
 9    1  0.1612788E-005  0.9732923E+02  0.7546771E-02  0.1286076E+00
         -2   -1    0    0    0  501 -0.00000000000E+00  0.00000000000E+00  0.66442645539E+02  0.66442645539E+02  0.00000000000E+00 0.  1.
          2   -1    0    0  502    0  0.00000000000E+00 -0.00000000000E+00 -0.21514472643E+03  0.21514472643E+03  0.00000000000E+00 0. -1.
         23    2    1    2    0    0 -0.24711937536E+02  0.30505575279E+02 -0.33921744676E+02  0.10471526550E+03  0.90957858849E+02 0.  0.
         23    2    1    2    0    0 -0.23387886974E+01 -0.35724779324E+02 -0.11289308256E+03  0.14925791434E+03  0.90836925925E+02 0.  0.
        -11    1    4    4    0    0 -0.38740553693E+02 -0.28237106460E+02 -0.98234235832E+02  0.10930750098E+03  0.00000000000E+00 0. -1.
         11    1    4    4    0    0  0.36401764996E+02 -0.74876728643E+01 -0.14658846733E+02  0.39950413356E+02  0.00000000000E+00 0.  1.
        -13    1    3    3    0    0 -0.23509711547E+02 -0.26677275929E+02  0.44574747319E+01  0.35836471214E+02  0.00000000000E+00 0. -1.
         13    1    3    3    0    0 -0.12022259891E+01  0.57182851209E+02 -0.38379219408E+02  0.68878794284E+02  0.00000000000E+00 0.  1.
         21    1    1    2  502  501  0.27050726234E+02  0.52192040448E+01 -0.18872536482E+01  0.27614192130E+02  0.00000000000E+00 0. -1.
<scales pt_clust_5="13000.00000" pt_clust_6="13000.00000" pt_clust_7="13000.00000" pt_clust_8="13000.00000" pt_clust_9="27.54963"></scales>
<clustering>
<clus scale="   27.550">  1  9  2 -1</clus>
<clus scale="   90.837">  5  6 -1 -1</clus>
<clus scale="   90.958">  7  8 -1 -1</clus>
<clus scale="   97.216">  2  5  1 -1</clus>
<clus scale="   97.216">  2  5  1 -1</clus>
</clustering>
</event>
<event>
 9    1  0.1612788E-005  0.1454908E+03  0.7546771E-02  0.1213746E+00
          1   -1    0    0  502    0  0.00000000000E+00  0.00000000000E+00  0.71687307175E+03  0.71687307175E+03  0.00000000000E+00 0. -1.
         -1   -1    0    0    0  501 -0.00000000000E+00 -0.00000000000E+00 -0.87106671943E+02  0.87106671943E+02  0.00000000000E+00 0.  1.
         23    2    1    2    0    0 -0.87198943713E+02  0.58099991568E+02  0.13284693685E+03  0.19300126231E+03  0.92854261173E+02 0.  0.
         23    2    1    2    0    0 -0.36558555080E+02 -0.75213963725E+02  0.46620677686E+03  0.48232361114E+03  0.91069417385E+02 0.  0.
        -11    1    3    3    0    0 -0.54749098134E+01  0.57849324986E+02  0.50519598375E+02  0.76998369196E+02  0.00000000000E+00 0. -1.
         11    1    3    3    0    0 -0.81724033900E+02  0.25066658234E+00  0.82327338479E+02  0.11600289312E+03  0.00000000000E+00 0.  1.
        -13    1    4    4    0    0 -0.68007771364E+01 -0.86979205647E+02  0.39058481801E+03  0.40021011088E+03  0.00000000000E+00 0.  1.
         13    1    4    4    0    0 -0.29757777944E+02  0.11765241922E+02  0.75621958843E+02  0.82113500259E+02  0.00000000000E+00 0. -1.
         21    1    1    2  502  501  0.12375749879E+03  0.17113972157E+02  0.30712686096E+02  0.12865487024E+03  0.00000000000E+00 0. -1.
<scales pt_clust_5="13000.00000" pt_clust_6="13000.00000" pt_clust_7="13000.00000" pt_clust_8="13000.00000" pt_clust_9="112.00740"></scales>
<clustering>
<clus scale="   91.069">  7  8 -1 -1</clus>
<clus scale="   92.854">  5  6 -1 -1</clus>
<clus scale="  123.642">  1  7  2 -1</clus>
<clus scale="  112.007">  2  9  1 -1</clus>
<clus scale="  123.642">  1  5  2 -1</clus>
</clustering>
</event>
<event>
 9    1  0.1612788E-005  0.2151406E+03  0.7546771E-02  0.1137661E+00
          1   -1    0    0  502    0  0.00000000000E+00  0.00000000000E+00  0.70842323431E+03  0.70842323431E+03  0.00000000000E+00 0. -1.
         -1   -1    0    0    0  501 -0.00000000000E+00 -0.00000000000E+00 -0.79546860194E+02  0.79546860194E+02  0.00000000000E+00 0.  1.
         23    2    1    2    0    0 -0.94128643493E+02 -0.18645384912E+03  0.23691463963E+03  0.32907370285E+03  0.92388939047E+02 0.  0.
         23    2    1    2    0    0  0.68531457956E+02  0.17282268304E+03  0.36307036155E+03  0.41796063679E+03  0.91141461292E+02 0.  0.
        -11    1    3    3    0    0 -0.10746299691E+03 -0.15623759092E+03  0.22430781855E+03  0.29372176969E+03  0.00000000000E+00 0. -1.
         11    1    3    3    0    0  0.13334353420E+02 -0.30216258199E+02  0.12606821072E+02  0.35351933161E+02  0.00000000000E+00 0.  1.
        -13    1    4    4    0    0  0.35272591355E+02  0.13723521422E+03  0.18315008981E+03  0.23156341491E+03  0.00000000000E+00 0.  1.
         13    1    4    4    0    0  0.33258866601E+02  0.35587468819E+02  0.17992027174E+03  0.18639722189E+03  0.00000000000E+00 0. -1.
         21    1    1    2  502  501  0.25597185537E+02  0.13631166076E+02  0.28891372933E+02  0.40935754860E+02  0.00000000000E+00 0.  1.
<scales pt_clust_5="13000.00000" pt_clust_6="13000.00000" pt_clust_7="13000.00000" pt_clust_8="13000.00000" pt_clust_9="29.00042"></scales>
<clustering>
<clus scale="   29.000">  2  9  1 -1</clus>
<clus scale="   91.141">  7  8 -1 -1</clus>
<clus scale="   92.389">  5  6 -1 -1</clus>
<clus scale="  214.608">  1  7  2 -1</clus>
<clus scale="  214.608">  1  5  2 -1</clus>
</clustering>
</event>
<event>
 9    1  0.1612788E-005  0.1413588E+03  0.7546771E-02  0.1211791E+00
          2   -1    0    0  502    0  0.00000000000E+00  0.00000000000E+00  0.72842147335E+03  0.72842147335E+03  0.00000000000E+00 0. -1.
         -2   -1    0    0    0  501 -0.00000000000E+00 -0.00000000000E+00 -0.67672891497E+02  0.67672891497E+02  0.00000000000E+00 0.  1.
         23    2    1    2    0    0 -0.80978539931E+00  0.87091551928E+02  0.53709143135E+02  0.13720077134E+03  0.91399045014E+02 0.  0.
         23    2    1    2    0    0  0.12153193521E+02 -0.11007889353E+03  0.61525488986E+03  0.63197548772E+03  0.92678879320E+02 0.  0.
        -11    1    3    3    0    0 -0.18095482777E+02  0.99531395837E+02  0.30409482379E+02  0.10563466227E+03  0.00000000000E+00 0.  1.
         11    1    3    3    0    0  0.17285697377E+02 -0.12439843909E+02  0.23299660756E+02  0.31566109067E+02  0.00000000000E+00 0. -1.
        -13    1    4    4    0    0  0.50056644198E+02 -0.74264147512E+02  0.32704597595E+03  0.33908686442E+03  0.00000000000E+00 0. -1.
         13    1    4    4    0    0 -0.37903450677E+02 -0.35814746021E+02  0.28820891391E+03  0.29288862331E+03  0.00000000000E+00 0.  1.
         21    1    1    2  502  501 -0.11343408122E+02  0.22987341605E+02 -0.82154511400E+01  0.26918105790E+02  0.00000000000E+00 0.  1.
<scales pt_clust_5="13000.00000" pt_clust_6="13000.00000" pt_clust_7="13000.00000" pt_clust_8="13000.00000" pt_clust_9="25.63378"></scales>
<clustering>
<clus scale="   25.634">  2  9  1 -1</clus>
<clus scale="   91.399">  5  6 -1 -1</clus>
<clus scale="   92.679">  7  8 -1 -1</clus>
<clus scale="  140.523">  2  5  1 -1</clus>
<clus scale="  141.359">  1  5  2 -1</clus>
</clustering>
</event>
<event>
 9    1  0.1612788E-005  0.1361474E+03  0.7546771E-02  0.1218929E+00
         -1   -1    0    0    0  501 -0.00000000000E+00  0.00000000000E+00  0.10005319562E+03  0.10005319562E+03  0.00000000000E+00 0.  1.
          1   -1    0    0  502    0  0.00000000000E+00 -0.00000000000E+00 -0.27992347324E+03  0.27992347324E+03  0.00000000000E+00 0. -1.
         23    2    1    2    0    0  0.34402865463E+02  0.10472966438E+03 -0.30055005119E+01  0.14393857531E+03  0.92506327763E+02 0.  0.
         23    2    1    2    0    0 -0.14745286022E+02 -0.78464798593E+02 -0.12094427184E+03  0.17120471855E+03  0.91155859296E+02 0.  0.
        -13    1    4    4    0    0  0.26009358301E+02 -0.75763638881E+02 -0.84991259961E+02  0.11679096697E+03  0.00000000000E+00 0.  1.
         13    1    4    4    0    0 -0.40754644323E+02 -0.27011597113E+01 -0.35953011876E+02  0.54413751576E+02  0.00000000000E+00 0. -1.
        -13    1    3    3    0    0 -0.30499756960E+02  0.17562869693E+02  0.65809540712E+00  0.35201174072E+02  0.00000000000E+00 0.  1.
         13    1    3    3    0    0  0.64902622423E+02  0.87166794685E+02 -0.36635959190E+01  0.10873740124E+03  0.00000000000E+00 0. -1.
         21    1    1    2  502  501 -0.19657579441E+02 -0.26264865786E+02 -0.55920505277E+02  0.64833375006E+02  0.00000000000E+00 0.  1.
<scales pt_clust_5="13000.00000" pt_clust_6="13000.00000" pt_clust_7="13000.00000" pt_clust_8="13000.00000" pt_clust_9="32.80646"></scales>
<clustering>
<clus scale="   32.806">  2  9  1 -1</clus>
<clus scale="   91.156">  5  6 -1 -1</clus>
<clus scale="   92.506">  7  8 -1 -1</clus>
<clus scale="  135.233">  2  5  1 -1</clus>
<clus scale="   32.806">  2  5  1 -1</clus>
</clustering>
</event>
<event>
 9    1  0.1612788E-005  0.1090086E+03  0.7546771E-02  0.1265350E+00
         -2   -1    0    0    0  501 -0.00000000000E+00  0.00000000000E+00  0.15157982018E+03  0.15157982018E+03  0.00000000000E+00 0.  1.
          2   -1    0    0  502    0  0.00000000000E+00 -0.00000000000E+00 -0.10964585179E+03  0.10964585179E+03  0.00000000000E+00 0. -1.
         23    2    1    2    0    0  0.42836952714E+02  0.46310532982E+02  0.30749645164E+02  0.11517762472E+03  0.91327293709E+02 0.  0.
         23    2    1    2    0    0 -0.28369454602E+02 -0.25501277837E+02 -0.18639871554E+02  0.10690962373E+03  0.98117693148E+02 0.  0.
        -13    1    3    3    0    0  0.18535786152E+02  0.70505379902E+02  0.34553322280E+02  0.80675374458E+02  0.00000000000E+00 0.  1.
         13    1    3    3    0    0  0.24301166562E+02 -0.24194846920E+02 -0.38036771164E+01  0.34502250265E+02  0.00000000000E+00 0. -1.
        -13    1    4    4    0    0 -0.63222005866E+02 -0.70806502966E+01 -0.75640661948E+00  0.63621771316E+02  0.00000000000E+00 0. -1.
         13    1    4    4    0    0  0.34852551264E+02 -0.18420627540E+02 -0.17883464934E+02  0.43287852414E+02  0.00000000000E+00 0.  1.
         21    1    1    2  502  501 -0.14467498112E+02 -0.20809255145E+02  0.29824194783E+02  0.39138423522E+02  0.00000000000E+00 0. -1.
<scales pt_clust_5="13000.00000" pt_clust_6="13000.00000" pt_clust_7="13000.00000" pt_clust_8="13000.00000" pt_clust_9="25.34430"></scales>
<clustering>
<clus scale="   25.344">  1  9  2 -1</clus>
<clus scale="   91.327">  5  6 -1 -1</clus>
<clus scale="   98.118">  7  8 -1 -1</clus>
<clus scale="  102.939">  1  5  2 -1</clus>
<clus scale="  109.009">  2  5  1 -1</clus>
</clustering>
</event>
<event>
 9    1  0.1612788E-005  0.1025431E+03  0.7546771E-02  0.1279021E+00
         -1   -1    0    0    0  501 -0.00000000000E+00  0.00000000000E+00  0.81502239752E+02  0.81502239752E+02  0.00000000000E+00 0.  1.
          1   -1    0    0  502    0  0.00000000000E+00 -0.00000000000E+00 -0.23558190857E+03  0.23558190857E+03  0.00000000000E+00 0. -1.
         23    2    1    2    0    0 -0.20258736540E+02 -0.54792208059E+01 -0.47316229327E+02  0.10489196998E+03  0.91230814653E+02 0.  0.
         23    2    1    2    0    0  0.45452805174E+01 -0.46795312352E+02 -0.11276866630E+03  0.15727767874E+03  0.99040573996E+02 0.  0.
        -13    1    3    3    0    0 -0.39171293521E+02 -0.26029895641E+02  0.32310081611E+01  0.47142179806E+02  0.00000000000E+00 0. -1.
         13    1    3    3    0    0  0.18912556981E+02  0.20550674835E+02 -0.50547237488E+02  0.57749790176E+02  0.00000000000E+00 0.  1.
        -13    1    4    4    0    0 -0.45827003708E+02 -0.29621506622E+02 -0.42692270683E+02  0.69283316170E+02  0.00000000000E+00 0.  1.
         13    1    4    4    0    0  0.50372284226E+02 -0.17173805729E+02 -0.70076395614E+02  0.87994362567E+02  0.00000000000E+00 0. -1.
         21    1    1    2  502  501  0.15713456023E+02  0.52274533157E+02  0.60052268106E+01  0.54914499597E+02  0.00000000000E+00 0.  1.
<scales pt_clust_5="13000.00000" pt_clust_6="13000.00000" pt_clust_7="13000.00000" pt_clust_8="13000.00000" pt_clust_9="54.58516"></scales>
<clustering>
<clus scale="   54.585">  1  9  2 -1</clus>
<clus scale="   91.231">  5  6 -1 -1</clus>
<clus scale="   95.022">  1  5  2 -1</clus>
<clus scale="   99.041">  7  8 -1 -1</clus>
<clus scale="  102.543">  2  5  1 -1</clus>
</clustering>
</event>
<event>
 9    1  0.1612788E-005  0.1601434E+03  0.7546771E-02  0.1189007E+00
          2   -1    0    0  502    0  0.00000000000E+00  0.00000000000E+00  0.58420084917E+03  0.58420084917E+03  0.00000000000E+00 0. -1.
         -2   -1    0    0    0  501 -0.00000000000E+00 -0.00000000000E+00 -0.63509224873E+02  0.63509224873E+02  0.00000000000E+00 0.  1.
         23    2    1    2    0    0  0.11311850126E+03  0.17062369709E+02  0.17400206266E+03  0.22652831394E+03  0.89170843991E+02 0.  0.
         23    2    1    2    0    0 -0.14187838901E+03 -0.20505574561E+02  0.35260881376E+03  0.39161785730E+03  0.92095682647E+02 0.  0.
        -11    1    3    3    0    0  0.46594083759E+01  0.25493722061E+02  0.75313583240E+02  0.79647823394E+02  0.00000000000E+00 0.  1.
         11    1    3    3    0    0  0.10845909289E+03 -0.84313523524E+01  0.98688479420E+02  0.14688049055E+03  0.00000000000E+00 0. -1.
        -11    1    4    4    0    0 -0.86867515387E+02 -0.17898558287E+02  0.10262717745E+03  0.13564166458E+03  0.00000000000E+00 0.  1.
         11    1    4    4    0    0 -0.55010873623E+02 -0.26070162744E+01  0.24998163630E+03  0.25597619272E+03  0.00000000000E+00 0. -1.
         21    1    1    2  502  501  0.28759887746E+02  0.34432048526E+01 -0.59192521259E+01  0.29563902796E+02  0.00000000000E+00 0.  1.
<scales pt_clust_5="13000.00000" pt_clust_6="13000.00000" pt_clust_7="13000.00000" pt_clust_8="13000.00000" pt_clust_9="28.96527"></scales>
<clustering>
<clus scale="   28.965">  2  9  1 -1</clus>
<clus scale="   89.171">  5  6 -1 -1</clus>
<clus scale="   92.096">  7  8 -1 -1</clus>
<clus scale="  158.479">  2  5  1 -1</clus>
<clus scale="  160.143">  1  5  2 -1</clus>
</clustering>
</event>
<event>
 9    1  0.1612788E-005  0.1078487E+03  0.7546771E-02  0.1268947E+00
          2   -1    0    0  502    0  0.00000000000E+00  0.00000000000E+00  0.19920739895E+03  0.19920739895E+03  0.00000000000E+00 0. -1.
         -2   -1    0    0    0  501 -0.00000000000E+00 -0.00000000000E+00 -0.49013415163E+03  0.49013415163E+03  0.00000000000E+00 0.  1.
         23    2    1    2    0    0 -0.61373596748E+02 -0.11511911547E+02 -0.43544445649E+03  0.44910915288E+03  0.90487093174E+02 0.  0.
         23    2    1    2    0    0  0.39727528991E+02  0.35678365738E+00  0.17240212527E+03  0.20321172661E+03  0.99970541561E+02 0.  0.
        -13    1    3    3    0    0 -0.54534618834E+02 -0.47749290317E+02 -0.26607338577E+03  0.27576995121E+03  0.00000000000E+00 0.  1.
         13    1    3    3    0    0 -0.68389779140E+01  0.36237378769E+02 -0.16937107072E+03  0.17333920167E+03  0.00000000000E+00 0. -1.
        -13    1    4    4    0    0  0.43266773196E+02  0.37787423963E+02  0.53472376805E+02  0.78480559081E+02  0.00000000000E+00 0. -1.
         13    1    4    4    0    0 -0.35392442050E+01 -0.37430640305E+02  0.11892974847E+03  0.12473116753E+03  0.00000000000E+00 0.  1.
         21    1    1    2  502  501  0.21646067757E+02  0.11155127890E+02 -0.27884421459E+02  0.37020671086E+02  0.00000000000E+00 0.  1.
<scales pt_clust_5="13000.00000" pt_clust_6="13000.00000" pt_clust_7="13000.00000" pt_clust_8="13000.00000" pt_clust_9="24.35137"></scales>
<clustering>
<clus scale="   24.351">  2  9  1 -1</clus>
<clus scale="   90.487">  5  6 -1 -1</clus>
<clus scale="   99.122">  2  5  1 -1</clus>
<clus scale="   99.971">  7  8 -1 -1</clus>
<clus scale="  107.849">  1  5  2 -1</clus>
</clustering>
</event>
<event>
 9    1  0.1612788E-005  0.1176568E+03  0.7546771E-02  0.1247286E+00
          2   -1    0    0  502    0  0.00000000000E+00  0.00000000000E+00  0.62859763493E+03  0.62859763493E+03  0.00000000000E+00 0. -1.
         -2   -1    0    0    0  501 -0.00000000000E+00 -0.00000000000E+00 -0.99021865212E+02  0.99021865212E+02  0.00000000000E+00 0.  1.
         23    2    1    2    0    0 -0.60808138738E+02  0.59439712567E+02  0.76972682370E+02  0.14610162745E+03  0.90499627320E+02 0.  0.
         23    2    1    2    0    0  0.13462069408E+02 -0.73355668042E+02  0.49962703722E+03  0.51335222182E+03  0.91329327043E+02 0.  0.
        -11    1    3    3    0    0 -0.38477837575E+02 -0.89989574228E+01 -0.15843398616E+01  0.39547886820E+02  0.00000000000E+00 0.  1.
         11    1    3    3    0    0 -0.22330301163E+02  0.68438669989E+02  0.78557022232E+02  0.10655374063E+03  0.00000000000E+00 0. -1.
        -11    1    4    4    0    0 -0.50903147259E+01 -0.88273735019E+02  0.44597414884E+03  0.45465492963E+03  0.00000000000E+00 0. -1.
         11    1    4    4    0    0  0.18552384134E+02  0.14918066977E+02  0.53652888379E+02  0.58697292193E+02  0.00000000000E+00 0.  1.
         21    1    1    2  502  501  0.47346069330E+02  0.13915955475E+02 -0.47023949871E+02  0.68165650875E+02  0.00000000000E+00 0.  1.
<scales pt_clust_5="13000.00000" pt_clust_6="13000.00000" pt_clust_7="13000.00000" pt_clust_8="13000.00000" pt_clust_9="49.34880"></scales>
<clustering>
<clus scale="   49.349">  2  9  1 -1</clus>
<clus scale="   90.500">  5  6 -1 -1</clus>
<clus scale="   91.329">  7  8 -1 -1</clus>
<clus scale="  117.014">  2  5  1 -1</clus>
<clus scale="  117.657">  1  5  2 -1</clus>
</clustering>
</event>
<event>
 9    1  0.1612788E-005  0.1116101E+03  0.7546771E-02  0.1260006E+00
          1   -1    0    0  502    0  0.00000000000E+00  0.00000000000E+00  0.20277756289E+03  0.20277756289E+03  0.00000000000E+00 0. -1.
         -1   -1    0    0    0  501 -0.00000000000E+00 -0.00000000000E+00 -0.22102379122E+03  0.22102379122E+03  0.00000000000E+00 0.  1.
         23    2    1    2    0    0  0.11441094323E+01 -0.85215945152E+02 -0.13563604601E+03  0.18717832143E+03  0.96827272717E+02 0.  0.
         23    2    1    2    0    0 -0.29724372712E+01  0.52463585692E+02  0.15469556521E+03  0.18694629134E+03  0.90867677110E+02 0.  0.
        -11    1    3    3    0    0  0.25959002437E+02 -0.21289315491E+01  0.17322790372E+00  0.26046730409E+02  0.00000000000E+00 0. -1.
         11    1    3    3    0    0 -0.24814893005E+02 -0.83087013603E+02 -0.13580927391E+03  0.16113159102E+03  0.00000000000E+00 0.  1.
        -11    1    4    4    0    0  0.25498320926E+02  0.35330838899E+02  0.19514845338E+02  0.47741614300E+02  0.00000000000E+00 0.  1.
         11    1    4    4    0    0 -0.28470758198E+02  0.17132746792E+02  0.13518071987E+03  0.13920467704E+03  0.00000000000E+00 0. -1.
         21    1    1    2  502  501  0.18283278389E+01  0.32752359460E+02 -0.37305747520E+02  0.49676741348E+02  0.00000000000E+00 0.  1.
<scales pt_clust_5="13000.00000" pt_clust_6="13000.00000" pt_clust_7="13000.00000" pt_clust_8="13000.00000" pt_clust_9="32.80335"></scales>
<clustering>
<clus scale="   32.803">  2  9  1 -1</clus>
<clus scale="   90.868">  7  8 -1 -1</clus>
<clus scale="   96.827">  5  6 -1 -1</clus>
<clus scale="  106.481">  1  7  2 -1</clus>
<clus scale="  106.481">  1  5  2 -1</clus>
</clustering>
</event>
<event>
 9    1  0.1612788E-005  0.1045168E+03  0.7546771E-02  0.1271597E+00
          3   -1    0    0  502    0  0.00000000000E+00  0.00000000000E+00  0.18753507091E+03  0.18753507091E+03  0.00000000000E+00 0. -1.
         -3   -1    0    0    0  501 -0.00000000000E+00 -0.00000000000E+00 -0.13983745099E+03  0.13983745099E+03  0.00000000000E+00 0.  1.
         23    2    1    2    0    0  0.88781360895E+02  0.21467044551E+02  0.55755253314E+02  0.14023078158E+03  0.90625933305E+02 0.  0.
         23    2    1    2    0    0 -0.16984499936E+02 -0.92827525694E+01  0.37708253397E+02  0.10113149320E+03  0.91820606670E+02 0.  0.
        -11    1    3    3    0    0  0.11690847321E+02 -0.32446893955E+02  0.12424200384E+02  0.36658390494E+02  0.00000000000E+00 0.  1.
         11    1    3    3    0    0  0.77090513573E+02  0.53913938506E+02  0.43331052930E+02  0.10357239109E+03  0.00000000000E+00 0. -1.
        -11    1    4    4    0    0 -0.51750748199E+02 -0.48235482506E+01  0.40612310878E+02  0.65960339233E+02  0.00000000000E+00 0.  1.
         11    1    4    4    0    0  0.34766248264E+02 -0.44592043187E+01 -0.29040574812E+01  0.35171153967E+02  0.00000000000E+00 0. -1.
         21    1    1    2  502  501 -0.71796860959E+02 -0.12184291982E+02 -0.45765886789E+02  0.86010247112E+02  0.00000000000E+00 0.  1.
<scales pt_clust_5="13000.00000" pt_clust_6="13000.00000" pt_clust_7="13000.00000" pt_clust_8="13000.00000" pt_clust_9="72.82339"></scales>
<clustering>
<clus scale="   72.823">  2  9  1 -1</clus>
<clus scale="   90.626">  5  6 -1 -1</clus>
<clus scale="   91.821">  7  8 -1 -1</clus>
<clus scale="  103.469">  2  5  1 -1</clus>
<clus scale="  104.517">  1  5  2 -1</clus>
</clustering>
</event>
<event>
 9    1  0.1612788E-005  0.1001607E+03  0.7546771E-02  0.1281097E+00
          1   -1    0    0  502    0  0.00000000000E+00  0.00000000000E+00  0.29152439719E+03  0.29152439719E+03  0.00000000000E+00 0. -1.
         -1   -1    0    0    0  501 -0.00000000000E+00 -0.00000000000E+00 -0.49144113849E+02  0.49144113849E+02  0.00000000000E+00 0.  1.
         23    2    1    2    0    0 -0.26257017838E+02  0.57418248281E+01  0.93012200942E+02  0.13243083339E+03  0.90356275761E+02 0.  0.
         23    2    1    2    0    0  0.37766093695E+02 -0.31825922999E+02  0.14553878327E+03  0.17947133384E+03  0.92678233847E+02 0.  0.
        -13    1    3    3    0    0 -0.53448171007E+02 -0.95790061562E+01  0.29814409475E+02  0.61946455551E+02  0.00000000000E+00 0.  1.
         13    1    3    3    0    0  0.27191153169E+02  0.15320830984E+02  0.63197791467E+02  0.70484377836E+02  0.00000000000E+00 0. -1.
        -13    1    4    4    0    0  0.28682412807E+02 -0.64470955225E+02  0.10677862113E+03  0.12798772911E+03  0.00000000000E+00 0. -1.
         13    1    4    4    0    0  0.90836808880E+01  0.32645032226E+02  0.38760162131E+02  0.51483604730E+02  0.00000000000E+00 0.  1.
         21    1    1    2  502  501 -0.11509075857E+02  0.26084098170E+02  0.38292991367E+01  0.28766343812E+02  0.00000000000E+00 0.  1.
<scales pt_clust_5="13000.00000" pt_clust_6="13000.00000" pt_clust_7="13000.00000" pt_clust_8="13000.00000" pt_clust_9="28.51033"></scales>
<clustering>
<clus scale="   28.510">  2  9  1 -1</clus>
<clus scale="   90.356">  5  6 -1 -1</clus>
<clus scale="   92.678">  7  8 -1 -1</clus>
<clus scale="   98.016">  2  5  1 -1</clus>
<clus scale="  100.161">  1  5  2 -1</clus>
</clustering>
</event>
<event>
 9    1  0.1612788E-005  0.1638937E+03  0.7546771E-02  0.1184465E+00
          1   -1    0    0  502    0  0.00000000000E+00  0.00000000000E+00  0.10214314066E+04  0.10214314066E+04  0.00000000000E+00 0. -1.
         -1   -1    0    0    0  501 -0.00000000000E+00 -0.00000000000E+00 -0.53604957211E+02  0.53604957211E+02  0.00000000000E+00 0.  1.
         23    2    1    2    0    0 -0.11762438916E+03  0.80744123410E+02  0.15868144025E+03  0.23215865867E+03  0.91447979348E+02 0.  0.
         23    2    1    2    0    0  0.12832231533E+03 -0.82893464169E+01  0.62927018411E+03  0.64866366596E+03  0.90819915535E+02 0.  0.
        -11    1    4    4    0    0  0.10735269667E+03 -0.40531022228E+02  0.52825128736E+03  0.54057079817E+03  0.00000000000E+00 0. -1.
         11    1    4    4    0    0  0.20969618656E+02  0.32241675811E+02  0.10101889675E+03  0.10809286779E+03  0.00000000000E+00 0.  1.
        -13    1    3    3    0    0 -0.10835467276E+03  0.10037840650E+03  0.14013272391E+03  0.20360191529E+03  0.00000000000E+00 0.  1.
         13    1    3    3    0    0 -0.92697163977E+01 -0.19634283091E+02  0.18548716341E+02  0.28556743380E+02  0.00000000000E+00 0. -1.
         21    1    1    2  502  501 -0.10697926168E+02 -0.72454776994E+02  0.17987482505E+03  0.19421403920E+03  0.00000000000E+00 0. -1.
<scales pt_clust_5="13000.00000" pt_clust_6="13000.00000" pt_clust_7="13000.00000" pt_clust_8="13000.00000" pt_clust_9="73.24029"></scales>
<clustering>
<clus scale="   73.240">  1  9  2 -1</clus>
<clus scale="   90.820">  5  6 -1 -1</clus>
<clus scale="   91.448">  7  8 -1 -1</clus>
<clus scale="  163.544">  1  5  2 -1</clus>
<clus scale="   73.240">  1  5  2 -1</clus>
</clustering>
</event>
<event>
 9    1  0.1612788E-005  0.1005347E+03  0.7546771E-02  0.1281849E+00
          1   -1    0    0  502    0  0.00000000000E+00  0.00000000000E+00  0.78266798547E+02  0.78266798547E+02  0.00000000000E+00 0. -1.
         -1   -1    0    0    0  501 -0.00000000000E+00 -0.00000000000E+00 -0.24724660189E+03  0.24724660189E+03  0.00000000000E+00 0.  1.
         23    2    1    2    0    0  0.12120209978E+02  0.25160739795E+02 -0.94642965316E+02  0.13372039401E+03  0.90243507101E+02 0.  0.
         23    2    1    2    0    0 -0.33715202083E+02 -0.11055050664E+02  0.11159247895E+02  0.10249073961E+03  0.95503371125E+02 0.  0.
        -11    1    4    4    0    0 -0.56134793397E+02 -0.37223757010E+02  0.91383293780E+01  0.67972289791E+02  0.00000000000E+00 0.  1.
         11    1    4    4    0    0  0.22419591314E+02  0.26168706345E+02  0.20209185165E+01  0.34518449822E+02  0.00000000000E+00 0. -1.
        -11    1    3    3    0    0 -0.37880015944E+02  0.11166746433E+02 -0.24582573289E+02  0.46517682050E+02  0.00000000000E+00 0.  1.
         11    1    3    3    0    0  0.50000225922E+02  0.13993993362E+02 -0.70060392028E+02  0.87202711962E+02  0.00000000000E+00 0. -1.
         21    1    1    2  502  501  0.21594992106E+02 -0.14105689131E+02 -0.85496085922E+02  0.89302266813E+02  0.00000000000E+00 0. -1.
<scales pt_clust_5="13000.00000" pt_clust_6="13000.00000" pt_clust_7="13000.00000" pt_clust_8="13000.00000" pt_clust_9="25.79368"></scales>
<clustering>
<clus scale="   25.794">  2  9  1 -1</clus>
<clus scale="   90.244">  7  8 -1 -1</clus>
<clus scale="   95.503">  5  6 -1 -1</clus>
<clus scale="   95.552">  2  7  1 -1</clus>
<clus scale="  100.535">  1  5  2 -1</clus>
</clustering>
</event>
<event>
 9    1  0.1612788E-005  0.1243584E+03  0.7546771E-02  0.1236691E+00
         -1   -1    0    0    0  501 -0.00000000000E+00  0.00000000000E+00  0.83912669405E+02  0.83912669405E+02  0.00000000000E+00 0.  1.
          1   -1    0    0  502    0  0.00000000000E+00 -0.00000000000E+00 -0.26250120134E+03  0.26250120134E+03  0.00000000000E+00 0. -1.
         23    2    1    2    0    0  0.85382155775E+02 -0.11710405554E+02 -0.60971947785E+02  0.13840210025E+03  0.89500373255E+02 0.  0.
         23    2    1    2    0    0 -0.75380010083E+02  0.38423690551E+02 -0.12698923739E+03  0.17798696172E+03  0.91621865375E+02 0.  0.
        -13    1    3    3    0    0 -0.27973475952E+01  0.23083815806E+02 -0.31456063136E+02  0.39117408066E+02  0.00000000000E+00 0.  1.
         13    1    3    3    0    0  0.88179503370E+02 -0.34794221360E+02 -0.29515884648E+02  0.99284692180E+02  0.00000000000E+00 0. -1.
        -13    1    4    4    0    0 -0.92696347127E+02  0.12650913875E+02 -0.92108082418E+02  0.13128806968E+03  0.00000000000E+00 0.  1.
         13    1    4    4    0    0  0.17316337044E+02  0.25772776676E+02 -0.34881154967E+02  0.46698892043E+02  0.00000000000E+00 0. -1.
         21    1    1    2  502  501 -0.10002145692E+02 -0.26713284998E+02  0.93726532321E+01  0.30024808783E+02  0.00000000000E+00 0.  1.
<scales pt_clust_5="13000.00000" pt_clust_6="13000.00000" pt_clust_7="13000.00000" pt_clust_8="13000.00000" pt_clust_9="28.52442"></scales>
<clustering>
<clus scale="   28.524">  1  9  2 -1</clus>
<clus scale="   89.500">  5  6 -1 -1</clus>
<clus scale="   91.622">  7  8 -1 -1</clus>
<clus scale="  122.804">  1  5  2 -1</clus>
<clus scale="  124.358">  2  5  1 -1</clus>
</clustering>
</event>
<event>
 9    1  0.1612788E-005  0.1002446E+03  0.7546771E-02  0.1282204E+00
          4   -1    0    0  502    0  0.00000000000E+00  0.00000000000E+00  0.35036280393E+02  0.35036280393E+02  0.00000000000E+00 0. -1.
         -4   -1    0    0    0  501 -0.00000000000E+00 -0.00000000000E+00 -0.35995444425E+03  0.35995444425E+03  0.00000000000E+00 0.  1.
         23    2    1    2    0    0  0.20933752984E+02 -0.20566983510E+02 -0.16773186780E+03  0.19588072502E+03  0.96819709429E+02 0.  0.
         23    2    1    2    0    0 -0.10543829897E+01  0.26903385475E+02 -0.10180189657E+03  0.13992578680E+03  0.92144971606E+02 0.  0.
        -11    1    4    4    0    0 -0.42824005223E+02 -0.39092420239E+01 -0.35761796619E+02  0.55929274034E+02  0.00000000000E+00 0. -1.
         11    1    4    4    0    0  0.41769622233E+02  0.30812627499E+02 -0.66040099956E+02  0.83996512767E+02  0.00000000000E+00 0.  1.
        -13    1    3    3    0    0 -0.23587871366E+02  0.26176960076E+02 -0.44468743277E+02  0.56737025328E+02  0.00000000000E+00 0. -1.
         13    1    3    3    0    0  0.44521624351E+02 -0.46743943586E+02 -0.12326312452E+03  0.13914369969E+03  0.00000000000E+00 0.  1.
         21    1    1    2  502  501 -0.19879369994E+02 -0.63364019644E+01 -0.55384399480E+02  0.59184212819E+02  0.00000000000E+00 0.  1.
<scales pt_clust_5="13000.00000" pt_clust_6="13000.00000" pt_clust_7="13000.00000" pt_clust_8="13000.00000" pt_clust_9="20.86479"></scales>
<clustering>
<clus scale="   20.865">  2  9  1 -1</clus>
<clus scale="   92.145">  5  6 -1 -1</clus>
<clus scale="   95.737">  1  5  2 -1</clus>
<clus scale="   96.820">  7  8 -1 -1</clus>
<clus scale="   95.737">  1  5  2 -1</clus>
</clustering>
</event>
<event>
 9    1  0.1612788E-005  0.9964052E+02  0.7546771E-02  0.1281210E+00
         -2   -1    0    0    0  501 -0.00000000000E+00  0.00000000000E+00  0.49901664442E+02  0.49901664442E+02  0.00000000000E+00 0.  1.
          2   -1    0    0  502    0  0.00000000000E+00 -0.00000000000E+00 -0.31339680963E+03  0.31339680963E+03  0.00000000000E+00 0. -1.
         23    2    1    2    0    0 -0.27482214944E+02  0.25537506812E+02 -0.11370945441E+03  0.15059761113E+03  0.91336542872E+02 0.  0.
         23    2    1    2    0    0  0.11235190854E+02 -0.43120718424E+02 -0.15772916981E+03  0.18747718396E+03  0.91014161691E+02 0.  0.
        -11    1    4    4    0    0  0.10497169030E+02  0.19591002310E+02 -0.55899452268E+01  0.22918233283E+02  0.00000000000E+00 0.  1.
         11    1    4    4    0    0  0.73802182349E+00 -0.62711720734E+02 -0.15213922458E+03  0.16455895068E+03  0.00000000000E+00 0. -1.
        -13    1    3    3    0    0  0.17271459149E+02  0.45923792652E+02 -0.49231231783E+02  0.69505483348E+02  0.00000000000E+00 0.  1.
         13    1    3    3    0    0 -0.44753674093E+02 -0.20386285840E+02 -0.64478222623E+02  0.81092127780E+02  0.00000000000E+00 0. -1.
         21    1    1    2  502  501  0.16247024090E+02  0.17583211612E+02  0.79434790218E+01  0.25223678982E+02  0.00000000000E+00 0.  1.
<scales pt_clust_5="13000.00000" pt_clust_6="13000.00000" pt_clust_7="13000.00000" pt_clust_8="13000.00000" pt_clust_9="23.94024"></scales>
<clustering>
<clus scale="   23.940">  1  9  2 -1</clus>
<clus scale="   91.014">  5  6 -1 -1</clus>
<clus scale="   91.337">  7  8 -1 -1</clus>
<clus scale="   99.345">  2  5  1 -1</clus>
<clus scale="   99.345">  2  5  1 -1</clus>
</clustering>
</event>
<event>
 9    1  0.1612788E-005  0.1243316E+03  0.7546771E-02  0.1236563E+00
          1   -1    0    0  502    0  0.00000000000E+00  0.00000000000E+00  0.56309944736E+03  0.56309944736E+03  0.00000000000E+00 0. -1.
         -1   -1    0    0    0  501 -0.00000000000E+00 -0.00000000000E+00 -0.71225738737E+02  0.71225738737E+02  0.00000000000E+00 0.  1.
         23    2    1    2    0    0  0.11672751791E+02 -0.10461854925E+03  0.10912135923E+03  0.17718472409E+03  0.91682394322E+02 0.  0.
         23    2    1    2    0    0  0.93293333428E+01  0.78476728321E+02  0.40129629389E+03  0.41882127283E+03  0.90149374585E+02 0.  0.
        -11    1    4    4    0    0  0.17126823587E+02 -0.14031663292E+02  0.39273845132E+02  0.45084926222E+02  0.00000000000E+00 0.  1.
         11    1    4    4    0    0 -0.77974902446E+01  0.92508391613E+02  0.36202244876E+03  0.37373634661E+03  0.00000000000E+00 0. -1.
        -11    1    3    3    0    0  0.28294115670E+02  0.49843178748E+01  0.23316313462E+02  0.37000687557E+02  0.00000000000E+00 0. -1.
         11    1    3    3    0    0 -0.16621363879E+02 -0.10960286712E+03  0.85805045773E+02  0.14018403653E+03  0.00000000000E+00 0.  1.
         21    1    1    2  502  501 -0.21002085134E+02  0.26141820925E+02 -0.18543944503E+02  0.38319189175E+02  0.00000000000E+00 0.  1.
<scales pt_clust_5="13000.00000" pt_clust_6="13000.00000" pt_clust_7="13000.00000" pt_clust_8="13000.00000" pt_clust_9="33.53330"></scales>
<clustering>
<clus scale="   33.533">  2  9  1 -1</clus>
<clus scale="   90.149">  5  6 -1 -1</clus>
<clus scale="   91.682">  7  8 -1 -1</clus>
<clus scale="  123.205">  1  5  2 -1</clus>
<clus scale="  123.205">  1  5  2 -1</clus>
</clustering>
</event>
<event>
 9    1  0.1612788E-005  0.9331487E+02  0.7546771E-02  0.1297131E+00
         -2   -1    0    0    0  501 -0.00000000000E+00  0.00000000000E+00  0.17813322389E+03  0.17813322389E+03  0.00000000000E+00 0.  1.
          2   -1    0    0  502    0  0.00000000000E+00 -0.00000000000E+00 -0.14317681206E+03  0.14317681206E+03  0.00000000000E+00 0. -1.
         23    2    1    2    0    0  0.11070140047E+01 -0.22846218864E+02  0.11146464993E+03  0.14633099035E+03  0.92006604950E+02 0.  0.
         23    2    1    2    0    0 -0.16906827769E+02 -0.77820019359E+01 -0.98864696108E+02  0.13389944922E+03  0.88365343798E+02 0.  0.
        -11    1    3    3    0    0 -0.30713113894E+02  0.21683756525E+02  0.62275647260E+02  0.72744325578E+02  0.00000000000E+00 0. -1.
         11    1    3    3    0    0  0.31820127899E+02 -0.44529975389E+02  0.49189002673E+02  0.73586664767E+02  0.00000000000E+00 0.  1.
        -13    1    4    4    0    0 -0.23662172388E+02 -0.45775409532E+02 -0.60744339002E+02  0.79656520390E+02  0.00000000000E+00 0.  1.
         13    1    4    4    0    0  0.67553446193E+01  0.37993407596E+02 -0.38120357106E+02  0.54242928825E+02  0.00000000000E+00 0. -1.
         21    1    1    2  502  501  0.15799813764E+02  0.30628220800E+02  0.22356458004E+02  0.41079596381E+02  0.00000000000E+00 0. -1.
<scales pt_clust_5="13000.00000" pt_clust_6="13000.00000" pt_clust_7="13000.00000" pt_clust_8="13000.00000" pt_clust_9="34.46334"></scales>
<clustering>
<clus scale="   34.463">  1  9  2 -1</clus>
<clus scale="   88.365">  7  8 -1 -1</clus>
<clus scale="   89.727">  2  7  1 -1</clus>
<clus scale="   92.007">  5  6 -1 -1</clus>
<clus scale="   89.727">  2  5  1 -1</clus>
</clustering>
</event>
<event>
 9    1  0.1612788E-005  0.9777881E+02  0.7546771E-02  0.1285393E+00
          1   -1    0    0  502    0  0.00000000000E+00  0.00000000000E+00  0.50502941836E+03  0.50502941836E+03  0.00000000000E+00 0. -1.
         -1   -1    0    0    0  501 -0.00000000000E+00 -0.00000000000E+00 -0.23499532598E+03  0.23499532598E+03  0.00000000000E+00 0.  1.
         23    2    1    2    0    0  0.42059378536E+02  0.62456430310E+01 -0.12568205429E+03  0.16072499671E+03  0.90711335662E+02 0.  0.
         23    2    1    2    0    0  0.28141572978E+02 -0.23934701904E+02  0.46724156834E+03  0.47753058559E+03  0.91410934274E+02 0.  0.
        -11    1    4    4    0    0 -0.25072660334E+02 -0.33339698806E+02  0.14881595157E+03  0.15455213119E+03  0.00000000000E+00 0. -1.
         11    1    4    4    0    0  0.53214233312E+02  0.94049969024E+01  0.31842561677E+03  0.32297845440E+03  0.00000000000E+00 0.  1.
        -13    1    3    3    0    0  0.18287222804E+02 -0.29233597978E+02 -0.10992065161E+03  0.11520232384E+03  0.00000000000E+00 0.  1.
         13    1    3    3    0    0  0.23772155732E+02  0.35479241009E+02 -0.15761402684E+02  0.45522672871E+02  0.00000000000E+00 0. -1.
         21    1    1    2  502  501 -0.70200951514E+02  0.17689058873E+02 -0.71525421671E+02  0.10176916204E+03  0.00000000000E+00 0. -1.
<scales pt_clust_5="13000.00000" pt_clust_6="13000.00000" pt_clust_7="13000.00000" pt_clust_8="13000.00000" pt_clust_9="72.39528"></scales>
<clustering>
<clus scale="   72.395">  2  9  1 -1</clus>
<clus scale="   90.711">  7  8 -1 -1</clus>
<clus scale="   91.411">  5  6 -1 -1</clus>
<clus scale="   97.125">  2  7  1 -1</clus>
<clus scale="   97.779">  1  5  2 -1</clus>
</clustering>
</event>
<event>
 9    1  0.1612788E-005  0.1110357E+03  0.7546771E-02  0.1259411E+00
          3   -1    0    0  502    0  0.00000000000E+00  0.00000000000E+00  0.25358662738E+03  0.25358662738E+03  0.00000000000E+00 0. -1.
         -3   -1    0    0    0  501 -0.00000000000E+00 -0.00000000000E+00 -0.12814113152E+03  0.12814113152E+03  0.00000000000E+00 0.  1.
         23    2    1    2    0    0 -0.22549089708E+02  0.36309014458E+02 -0.19599460050E+02  0.10467194116E+03  0.93516150765E+02 0.  0.
         23    2    1    2    0    0  0.41698095616E+02 -0.48677769949E+02  0.19352076344E+03  0.22348740863E+03  0.91586458971E+02 0.  0.
        -11    1    4    4    0    0  0.13103705776E+02 -0.71775841618E+02  0.10728340834E+03  0.12974285433E+03  0.00000000000E+00 0. -1.
         11    1    4    4    0    0  0.28594389841E+02  0.23098071669E+02  0.86237355104E+02  0.93744554298E+02  0.00000000000E+00 0.  1.
        -13    1    3    3    0    0 -0.96307131729E+00  0.57578248243E+02 -0.38209555318E+02  0.69109712014E+02  0.00000000000E+00 0.  1.
         13    1    3    3    0    0 -0.21586018390E+02 -0.21269233785E+02  0.18610095268E+02  0.35562229143E+02  0.00000000000E+00 0. -1.
         21    1    1    2  502  501 -0.19149005909E+02  0.12368755491E+02 -0.48475807531E+02  0.53568409118E+02  0.00000000000E+00 0. -1.
<scales pt_clust_5="13000.00000" pt_clust_6="13000.00000" pt_clust_7="13000.00000" pt_clust_8="13000.00000" pt_clust_9="22.79628"></scales>
<clustering>
<clus scale="   22.796">  2  9  1 -1</clus>
<clus scale="   91.586">  5  6 -1 -1</clus>
<clus scale="   93.516">  7  8 -1 -1</clus>
<clus scale="  109.415">  1  5  2 -1</clus>
<clus scale="  109.415">  1  5  2 -1</clus>
</clustering>
</event>
<event>
 9    1  0.1612788E-005  0.1067339E+03  0.7546771E-02  0.1267561E+00
         -2   -1    0    0    0  501 -0.00000000000E+00  0.00000000000E+00  0.44195880116E+02  0.44195880116E+02  0.00000000000E+00 0.  1.
          2   -1    0    0  502    0  0.00000000000E+00 -0.00000000000E+00 -0.51037410214E+03  0.51037410214E+03  0.00000000000E+00 0. -1.
         23    2    1    2    0    0 -0.78336658892E+02 -0.40601131479E+01 -0.10255055839E+03  0.15761192911E+03  0.90397934296E+02 0.  0.
         23    2    1    2    0    0  0.46525193951E+02  0.31397258001E+01 -0.34478683207E+03  0.35997436285E+03  0.92353293326E+02 0.  0.
        -11    1    3    3    0    0 -0.79417153200E+02  0.28739596729E+02 -0.58752462603E+02  0.10288294564E+03  0.00000000000E+00 0.  1.
         11    1    3    3    0    0  0.10804943085E+01 -0.32799709877E+02 -0.43798095790E+02  0.54728983462E+02  0.00000000000E+00 0. -1.
        -11    1    4    4    0    0  0.70086634739E+02  0.19836580252E+02 -0.27417628989E+03  0.28368691232E+03  0.00000000000E+00 0. -1.
         11    1    4    4    0    0 -0.23561440788E+02 -0.16696854452E+02 -0.70610542180E+02  0.76287450525E+02  0.00000000000E+00 0.  1.
         21    1    1    2  502  501  0.31811464941E+02  0.92038734782E+00 -0.18840831566E+02  0.36983690306E+02  0.00000000000E+00 0.  1.
<scales pt_clust_5="13000.00000" pt_clust_6="13000.00000" pt_clust_7="13000.00000" pt_clust_8="13000.00000" pt_clust_9="31.82478"></scales>
<clustering>
<clus scale="   31.825">  1  9  2 -1</clus>
<clus scale="   90.398">  5  6 -1 -1</clus>
<clus scale="   92.353">  7  8 -1 -1</clus>
<clus scale="  105.047">  1  5  2 -1</clus>
<clus scale="  106.734">  2  5  1 -1</clus>
</clustering>
</event>
<event>
 9    1  0.1612788E-005  0.1989394E+03  0.7546771E-02  0.1152444E+00
         -1   -1    0    0    0  501 -0.00000000000E+00  0.00000000000E+00  0.87882695077E+03  0.87882695077E+03  0.00000000000E+00 0.  1.
          1   -1    0    0  502    0  0.00000000000E+00 -0.00000000000E+00 -0.11152022352E+03  0.11152022352E+03  0.00000000000E+00 0. -1.
         23    2    1    2    0    0 -0.42949945248E+02 -0.19006723635E+03  0.44921677454E+03  0.50118705429E+03  0.10687609989E+03 0.  0.
         23    2    1    2    0    0  0.10420417602E+03  0.12816717825E+03  0.33168585323E+02  0.19122743704E+03  0.90456850184E+02 0.  0.
        -11    1    3    3    0    0 -0.56233976618E+02 -0.14659605238E+03  0.23793887725E+03  0.28507467795E+03  0.00000000000E+00 0.  1.
         11    1    3    3    0    0  0.13284031369E+02 -0.43471183971E+02  0.21127789728E+03  0.21611237634E+03  0.00000000000E+00 0. -1.
        -13    1    4    4    0    0 -0.15505497863E+02  0.28485643676E+02  0.82924338314E+01  0.33475615281E+02  0.00000000000E+00 0.  1.
         13    1    4    4    0    0  0.11970967388E+03  0.99681534570E+02  0.24876151492E+02  0.15775182176E+03  0.00000000000E+00 0. -1.
         21    1    1    2  502  501 -0.61254230769E+02  0.61900058103E+02  0.28492136740E+03  0.29793268297E+03  0.00000000000E+00 0. -1.
<scales pt_clust_5="13000.00000" pt_clust_6="13000.00000" pt_clust_7="13000.00000" pt_clust_8="13000.00000" pt_clust_9="87.08443"></scales>
<clustering>
<clus scale="   87.084">  1  9  2 -1</clus>
<clus scale="   90.457">  7  8 -1 -1</clus>
<clus scale="  106.876">  5  6 -1 -1</clus>
<clus scale="  190.622">  2  7  1 -1</clus>
<clus scale="  190.622">  2  5  1 -1</clus>
</clustering>
</event>
<event>
 9    1  0.1612788E-005  0.1169114E+03  0.7546771E-02  0.1248339E+00
          1   -1    0    0  502    0  0.00000000000E+00  0.00000000000E+00  0.46370160453E+03  0.46370160453E+03  0.00000000000E+00 0. -1.
         -1   -1    0    0    0  501 -0.00000000000E+00 -0.00000000000E+00 -0.59139568807E+02  0.59139568807E+02  0.00000000000E+00 0.  1.
         23    2    1    2    0    0  0.13149093654E+02 -0.72135543565E+02  0.30221741421E+02  0.12005418527E+03  0.90128899007E+02 0.  0.
         23    2    1    2    0    0  0.10585048909E+02  0.80907879998E+02  0.33008371914E+03  0.35180750342E+03  0.90305755731E+02 0.  0.
        -11    1    3    3    0    0  0.31868262681E+02 -0.60904706327E+02 -0.14534276984E+02  0.70258199710E+02  0.00000000000E+00 0.  1.
         11    1    3    3    0    0 -0.18719169027E+02 -0.11230837239E+02  0.44756018405E+02  0.49795985557E+02  0.00000000000E+00 0. -1.
        -11    1    4    4    0    0  0.25999441960E+02  0.36525577820E+02  0.47394229325E+02  0.65240338677E+02  0.00000000000E+00 0.  1.
         11    1    4    4    0    0 -0.15414393051E+02  0.44382302177E+02  0.28268948981E+03  0.28656716475E+03  0.00000000000E+00 0. -1.
         21    1    1    2  502  501 -0.23734142562E+02 -0.87723364322E+01  0.44256575163E+02  0.50979484647E+02  0.00000000000E+00 0. -1.
<scales pt_clust_5="13000.00000" pt_clust_6="13000.00000" pt_clust_7="13000.00000" pt_clust_8="13000.00000" pt_clust_9="25.30343"></scales>
<clustering>
<clus scale="   25.303">  1  9  2 -1</clus>
<clus scale="   90.129">  5  6 -1 -1</clus>
<clus scale="   90.306">  7  8 -1 -1</clus>
<clus scale="  116.775">  2  5  1 -1</clus>
<clus scale="   25.303">  1  5  2 -1</clus>
</clustering>
</event>
<event>
 9    1  0.1612788E-005  0.9409313E+02  0.7546771E-02  0.1296300E+00
          1   -1    0    0  502    0  0.00000000000E+00  0.00000000000E+00  0.90353597151E+02  0.90353597151E+02  0.00000000000E+00 0. -1.
         -1   -1    0    0    0  501 -0.00000000000E+00 -0.00000000000E+00 -0.14089995044E+03  0.14089995044E+03  0.00000000000E+00 0.  1.
         23    2    1    2    0    0  0.14151344814E+02 -0.92737495383E+01 -0.20604005902E+02  0.90839308784E+02  0.86838885130E+02 0.  0.
         23    2    1    2    0    0  0.18532152037E+02  0.29757279087E+02 -0.21448033617E+02  0.10091817171E+03  0.92171160990E+02 0.  0.
        -13    1    4    4    0    0 -0.21886440124E+02  0.23521179928E+02 -0.43793271080E+02  0.54314940471E+02  0.00000000000E+00 0.  1.
         13    1    4    4    0    0  0.40418592160E+02  0.62360991594E+01  0.22345237463E+02  0.46603231242E+02  0.00000000000E+00 0. -1.
        -13    1    3    3    0    0  0.13814253545E+02  0.21143864436E+02  0.25314288771E+02  0.35759052284E+02  0.00000000000E+00 0.  1.
         13    1    3    3    0    0  0.33709126916E+00 -0.30417613974E+02 -0.45918294673E+02  0.55080256500E+02  0.00000000000E+00 0. -1.
         21    1    1    2  502  501 -0.32683496851E+02 -0.20483529549E+02 -0.84943137664E+01  0.39496067090E+02  0.00000000000E+00 0. -1.
<scales pt_clust_5="13000.00000" pt_clust_6="13000.00000" pt_clust_7="13000.00000" pt_clust_8="13000.00000" pt_clust_9="38.57183"></scales>
<clustering>
<clus scale="   38.572">  1  9  2 -1</clus>
<clus scale="   86.839">  7  8 -1 -1</clus>
<clus scale="   88.876">  2  7  1 -1</clus>
<clus scale="   92.171">  5  6 -1 -1</clus>
<clus scale="   38.572">  1  5  2 -1</clus>
</clustering>
</event>
<event>
 9    1  0.1612788E-005  0.9915730E+02  0.7546771E-02  0.1282538E+00
          1   -1    0    0  502    0  0.00000000000E+00  0.00000000000E+00  0.17734813725E+03  0.17734813725E+03  0.00000000000E+00 0. -1.
         -1   -1    0    0    0  501 -0.00000000000E+00 -0.00000000000E+00 -0.22927406558E+03  0.22927406558E+03  0.00000000000E+00 0.  1.
         23    2    1    2    0    0 -0.47219927032E+02  0.21803576643E+02 -0.17834655103E+03  0.20654023684E+03  0.90256632491E+02 0.  0.
         23    2    1    2    0    0  0.38258365275E+02  0.20561197825E+01  0.13983274531E+03  0.17128127613E+03  0.91192920500E+02 0.  0.
        -11    1    3    3    0    0 -0.39766480135E+02  0.56251300577E+02 -0.12056451085E+03  0.13885741981E+03  0.00000000000E+00 0.  1.
         11    1    3    3    0    0 -0.74534468970E+01 -0.34447723935E+02 -0.57782040179E+02  0.67682817038E+02  0.00000000000E+00 0. -1.
        -13    1    4    4    0    0 -0.12165789735E+02 -0.33767832626E+02  0.64442709425E+02  0.73764054648E+02  0.00000000000E+00 0.  1.
         13    1    4    4    0    0  0.50424155010E+02  0.35823952408E+02  0.75390035890E+02  0.97517221484E+02  0.00000000000E+00 0. -1.
         21    1    1    2  502  501  0.89615617578E+01 -0.23859696425E+02 -0.13412122622E+02  0.28800689851E+02  0.00000000000E+00 0. -1.
<scales pt_clust_5="13000.00000" pt_clust_6="13000.00000" pt_clust_7="13000.00000" pt_clust_8="13000.00000" pt_clust_9="25.48715"></scales>
<clustering>
<clus scale="   25.487">  2  9  1 -1</clus>
<clus scale="   90.257">  5  6 -1 -1</clus>
<clus scale="   91.193">  7  8 -1 -1</clus>
<clus scale="   98.297">  2  5  1 -1</clus>
<clus scale="   99.157">  1  5  2 -1</clus>
</clustering>
</event>
<event>
 9    1  0.1612788E-005  0.9642426E+02  0.7546771E-02  0.1288785E+00
          4   -1    0    0  502    0  0.00000000000E+00  0.00000000000E+00  0.72843304160E+03  0.72843304160E+03  0.00000000000E+00 0. -1.
         -4   -1    0    0    0  501 -0.00000000000E+00 -0.00000000000E+00 -0.26413067082E+02  0.26413067082E+02  0.00000000000E+00 0.  1.
         23    2    1    2    0    0 -0.73830959819E+00 -0.63221583987E+01  0.23702486138E+03  0.25419645521E+03  0.91621712149E+02 0.  0.
         23    2    1    2    0    0 -0.87495995610E+01 -0.49394757192E+02  0.40350842058E+03  0.41713313736E+03  0.93083893734E+02 0.  0.
        -11    1    3    3    0    0  0.14128492485E+02  0.39287412518E+02  0.13776211505E+03  0.14394969756E+03  0.00000000000E+00 0. -1.
         11    1    3    3    0    0 -0.14866802083E+02 -0.45609570916E+02  0.99262746330E+02  0.11024675765E+03  0.00000000000E+00 0.  1.
        -13    1    4    4    0    0  0.41027509278E+02 -0.14195363766E+02  0.20159209540E+03  0.20621381573E+03  0.00000000000E+00 0. -1.
         13    1    4    4    0    0 -0.49777108839E+02 -0.35199393426E+02  0.20191632518E+03  0.21091932162E+03  0.00000000000E+00 0.  1.
         21    1    1    2  502  501  0.94879091591E+01  0.55716915590E+02  0.61486692550E+02  0.83516516114E+02  0.00000000000E+00 0. -1.
<scales pt_clust_5="13000.00000" pt_clust_6="13000.00000" pt_clust_7="13000.00000" pt_clust_8="13000.00000" pt_clust_9="56.51898"></scales>
<clustering>
<clus scale="   56.519">  2  9  1 -1</clus>
<clus scale="   91.622">  5  6 -1 -1</clus>
<clus scale="   93.084">  7  8 -1 -1</clus>
<clus scale="   95.013">  2  5  1 -1</clus>
<clus scale="   96.424">  1  5  2 -1</clus>
</clustering>
</event>
<event>
 9    1  0.1612788E-005  0.2018203E+03  0.7546771E-02  0.1148400E+00
          2   -1    0    0  502    0  0.00000000000E+00  0.00000000000E+00  0.75282755583E+03  0.75282755583E+03  0.00000000000E+00 0. -1.
         -2   -1    0    0    0  501 -0.00000000000E+00 -0.00000000000E+00 -0.87983854023E+02  0.87983854023E+02  0.00000000000E+00 0.  1.
         23    2    1    2    0    0  0.35919804989E+02  0.13664547283E+03  0.11483531510E+03  0.20413468733E+03  0.92312530795E+02 0.  0.
         23    2    1    2    0    0 -0.49696377695E+02 -0.18966151752E+03  0.53839308669E+03  0.58068198934E+03  0.94250919142E+02 0.  0.
        -11    1    3    3    0    0 -0.30683202506E+02  0.50118268888E+02  0.30785986034E+02  0.66340611457E+02  0.00000000000E+00 0. -1.
         11    1    3    3    0    0  0.66603007495E+02  0.86527203945E+02  0.84049329069E+02  0.13779407588E+03  0.00000000000E+00 0.  1.
        -13    1    4    4    0    0 -0.41552896603E+01 -0.20892780230E+02  0.89111848798E+01  0.23090775514E+02  0.00000000000E+00 0.  1.
         13    1    4    4    0    0 -0.45541088035E+02 -0.16876873729E+03  0.52948190181E+03  0.55759121382E+03  0.00000000000E+00 0. -1.
         21    1    1    2  502  501  0.13776572706E+02  0.53016044688E+02  0.11615300013E+02  0.55994733183E+02  0.00000000000E+00 0.  1.
<scales pt_clust_5="13000.00000" pt_clust_6="13000.00000" pt_clust_7="13000.00000" pt_clust_8="13000.00000" pt_clust_9="54.77677"></scales>
<clustering>
<clus scale="   54.777">  2  9  1 -1</clus>
<clus scale="   92.313">  5  6 -1 -1</clus>
<clus scale="   94.251">  7  8 -1 -1</clus>
<clus scale="  200.922">  2  5  1 -1</clus>
<clus scale="  201.820">  1  5  2 -1</clus>
</clustering>
</event>
<event>
 9    1  0.1612788E-005  0.1000578E+03  0.7546771E-02  0.1280667E+00
         -1   -1    0    0    0  501 -0.00000000000E+00  0.00000000000E+00  0.82234479165E+02  0.82234479165E+02  0.00000000000E+00 0.  1.
          1   -1    0    0  502    0  0.00000000000E+00 -0.00000000000E+00 -0.18698150726E+03  0.18698150726E+03  0.00000000000E+00 0. -1.
         23    2    1    2    0    0  0.11434645692E+02 -0.34395104850E+02 -0.55189319280E+02  0.11520268643E+03  0.94403514965E+02 0.  0.
         23    2    1    2    0    0  0.21180592070E+02  0.31137025700E+02 -0.62764669152E+02  0.11867504006E+03  0.93414290076E+02 0.  0.
        -11    1    3    3    0    0  0.17598610099E+02 -0.61165144388E+02 -0.59818397325E+02  0.87344871767E+02  0.00000000000E+00 0. -1.
         11    1    3    3    0    0 -0.61639644069E+01  0.26770039538E+02  0.46290780457E+01  0.27857814660E+02  0.00000000000E+00 0.  1.
        -11    1    4    4    0    0  0.20811951685E+01  0.21479540819E+02  0.22256862256E+02  0.31001128441E+02  0.00000000000E+00 0.  1.
         11    1    4    4    0    0  0.19099396901E+02  0.96574848806E+01 -0.85021531408E+02  0.87673911623E+02  0.00000000000E+00 0. -1.
         21    1    1    2  502  501 -0.32615237761E+02  0.32580791506E+01  0.13206960335E+02  0.35338259936E+02  0.00000000000E+00 0.  1.
<scales pt_clust_5="13000.00000" pt_clust_6="13000.00000" pt_clust_7="13000.00000" pt_clust_8="13000.00000" pt_clust_9="32.77757"></scales>
<clustering>
<clus scale="   32.778">  1  9  2 -1</clus>
<clus scale="   93.414">  7  8 -1 -1</clus>
<clus scale="   94.404">  5  6 -1 -1</clus>
<clus scale="   99.125">  2  7  1 -1</clus>
<clus scale="   99.125">  2  5  1 -1</clus>
</clustering>
</event>
<event>
 9    1  0.1612788E-005  0.9913655E+02  0.7546771E-02  0.1282826E+00
          2   -1    0    0  502    0  0.00000000000E+00  0.00000000000E+00  0.45179452305E+03  0.45179452305E+03  0.00000000000E+00 0. -1.
         -2   -1    0    0    0  501 -0.00000000000E+00 -0.00000000000E+00 -0.48028255316E+02  0.48028255316E+02  0.00000000000E+00 0.  1.
         23    2    1    2    0    0  0.28263100547E+02 -0.48530771736E+02  0.14988649028E+03  0.18474435090E+03  0.92252244209E+02 0.  0.
         23    2    1    2    0    0  0.41620752154E+02  0.23757433186E+02  0.19501864858E+03  0.22041003959E+03  0.90838370836E+02 0.  0.
        -11    1    4    4    0    0 -0.13408480902E+02  0.42477914288E+02  0.87457967450E+02  0.98148136166E+02  0.00000000000E+00 0.  1.
         11    1    4    4    0    0  0.55029233056E+02 -0.18720481102E+02  0.10756068113E+03  0.12226190343E+03  0.00000000000E+00 0. -1.
        -13    1    3    3    0    0  0.74600270598E+01 -0.74248467722E+02  0.11006092444E+03  0.13297328323E+03  0.00000000000E+00 0.  1.
         13    1    3    3    0    0  0.20803073488E+02  0.25717695986E+02  0.39825565838E+02  0.51771067670E+02  0.00000000000E+00 0. -1.
         21    1    1    2  502  501 -0.69883852701E+02  0.24773338550E+02  0.58861128869E+02  0.94668387876E+02  0.00000000000E+00 0.  1.
<scales pt_clust_5="13000.00000" pt_clust_6="13000.00000" pt_clust_7="13000.00000" pt_clust_8="13000.00000" pt_clust_9="74.14493"></scales>
<clustering>
<clus scale="   74.145">  2  9  1 -1</clus>
<clus scale="   90.838">  5  6 -1 -1</clus>
<clus scale="   92.252">  7  8 -1 -1</clus>
<clus scale="   97.822">  1  5  2 -1</clus>
<clus scale="   97.822">  1  5  2 -1</clus>
</clustering>
</event>
<event>
 9    1  0.1612788E-005  0.2546767E+03  0.7546771E-02  0.1110538E+00
          2   -1    0    0  502    0  0.00000000000E+00  0.00000000000E+00  0.12844329027E+04  0.12844329027E+04  0.00000000000E+00 0. -1.
         -2   -1    0    0    0  501 -0.00000000000E+00 -0.00000000000E+00 -0.14740937446E+03  0.14740937446E+03  0.00000000000E+00 0.  1.
         23    2    1    2    0    0 -0.15761797337E+03 -0.13147120854E+03  0.17622128327E+02  0.22593114359E+03  0.92769812064E+02 0.  0.
         23    2    1    2    0    0  0.12243754276E+03  0.21050471014E+03  0.10801483228E+04  0.11109123908E+04  0.90015308816E+02 0.  0.
        -13    1    4    4    0    0 -0.12492230223E+02  0.41390601878E+02  0.18780561405E+03  0.19271789332E+03  0.00000000000E+00 0.  1.
         13    1    4    4    0    0  0.13492977299E+03  0.16911410826E+03  0.89234270875E+03  0.91819449743E+03  0.00000000000E+00 0. -1.
        -13    1    3    3    0    0 -0.25843788779E+02 -0.42087554223E+02 -0.32354894471E+02  0.59043228529E+02  0.00000000000E+00 0.  1.
         13    1    3    3    0    0 -0.13177418460E+03 -0.89383654317E+02  0.49977022798E+02  0.16688791506E+03  0.00000000000E+00 0. -1.
         21    1    1    2  502  501  0.35180430611E+02 -0.79033501596E+02  0.39253077106E+02  0.94998742806E+02  0.00000000000E+00 0.  1.
<scales pt_clust_5="13000.00000" pt_clust_6="13000.00000" pt_clust_7="13000.00000" pt_clust_8="13000.00000" pt_clust_9="86.50987"></scales>
<clustering>
<clus scale="   86.510">  2  9  1 -1</clus>
<clus scale="   90.015">  5  6 -1 -1</clus>
<clus scale="   92.770">  7  8 -1 -1</clus>
<clus scale="  253.686">  1  5  2 -1</clus>
<clus scale="  253.686">  1  5  2 -1</clus>
</clustering>
</event>
<event>
 9    1  0.1612788E-005  0.1029533E+03  0.7546771E-02  0.1275357E+00
          1   -1    0    0  502    0  0.00000000000E+00  0.00000000000E+00  0.85831896989E+02  0.85831896989E+02  0.00000000000E+00 0. -1.
         -1   -1    0    0    0  501 -0.00000000000E+00 -0.00000000000E+00 -0.21508865349E+03  0.21508865349E+03  0.00000000000E+00 0.  1.
         23    2    1    2    0    0 -0.54187716466E+02 -0.37100013034E+02 -0.56528118719E+02  0.12544377756E+03  0.90708288148E+02 0.  0.
         23    2    1    2    0    0  0.22691164678E+02  0.34044246771E+02 -0.11155781246E+01  0.97183728562E+02  0.88144953855E+02 0.  0.
        -11    1    4    4    0    0  0.53298961412E+01  0.59811494697E+02 -0.16834293738E+02  0.62363580208E+02  0.00000000000E+00 0.  1.
         11    1    4    4    0    0  0.17361268536E+02 -0.25767247926E+02  0.15718715613E+02  0.34820148354E+02  0.00000000000E+00 0. -1.
        -11    1    3    3    0    0 -0.29260305311E+02  0.35394178432E+00  0.20854052259E+02  0.35933024327E+02  0.00000000000E+00 0. -1.
         11    1    3    3    0    0 -0.24927411155E+02 -0.37453954818E+02 -0.77382170978E+02  0.89510753229E+02  0.00000000000E+00 0.  1.
         21    1    1    2  502  501  0.31496551788E+02  0.30557662632E+01 -0.71613059659E+02  0.78293044363E+02  0.00000000000E+00 0.  1.
<scales pt_clust_5="13000.00000" pt_clust_6="13000.00000" pt_clust_7="13000.00000" pt_clust_8="13000.00000" pt_clust_9="31.64444"></scales>
<clustering>
<clus scale="   31.644">  2  9  1 -1</clus>
<clus scale="   88.145">  5  6 -1 -1</clus>
<clus scale="   90.708">  7  8 -1 -1</clus>
<clus scale="  100.702">  1  5  2 -1</clus>
<clus scale="  100.702">  1  5  2 -1</clus>
</clustering>
</event>
<event>
 9    1  0.1612788E-005  0.1341317E+03  0.7546771E-02  0.1227586E+00
          1   -1    0    0  502    0  0.00000000000E+00  0.00000000000E+00  0.23085680604E+02  0.23085680604E+02  0.00000000000E+00 0. -1.
         -1   -1    0    0    0  501 -0.00000000000E+00 -0.00000000000E+00 -0.10805486455E+04  0.10805486455E+04  0.00000000000E+00 0.  1.
         23    2    1    2    0    0  0.60693202094E+02  0.25185578620E+02 -0.42083827846E+03  0.43561002381E+03  0.91286680686E+02 0.  0.
         23    2    1    2    0    0 -0.46196961137E+02 -0.80209074043E+02 -0.43062525774E+03  0.45431073073E+03  0.11132148343E+03 0.  0.
        -11    1    3    3    0    0  0.18290266100E+02 -0.33974280406E+02 -0.17609450356E+03  0.18027218240E+03  0.00000000000E+00 0. -1.
         11    1    3    3    0    0  0.42402935994E+02  0.59159859025E+02 -0.24474377490E+03  0.25533784141E+03  0.00000000000E+00 0.  1.
        -13    1    4    4    0    0  0.44545660810E+01 -0.84535253776E+02 -0.34021464640E+03  0.35058815998E+03  0.00000000000E+00 0.  1.
         13    1    4    4    0    0 -0.50651527219E+02  0.43261797324E+01 -0.90410611345E+02  0.10372257076E+03  0.00000000000E+00 0. -1.
         21    1    1    2  502  501 -0.14496240957E+02  0.55023495424E+02 -0.20599942865E+03  0.21371357152E+03  0.00000000000E+00 0.  1.
<scales pt_clust_5="13000.00000" pt_clust_6="13000.00000" pt_clust_7="13000.00000" pt_clust_8="13000.00000" pt_clust_9="56.90102"></scales>
<clustering>
<clus scale="   56.901">  2  9  1 -1</clus>
<clus scale="   91.287">  5  6 -1 -1</clus>
<clus scale="  111.321">  7  8 -1 -1</clus>
<clus scale="  118.034">  2  5  1 -1</clus>
<clus scale="  134.132">  1  5  2 -1</clus>
</clustering>
</event>
