<event>
10    2  0.1133532E-006  0.9356026E+02  0.7546771E-02  0.1295005E+00
          4   -1    0    0  503    0  0.00000000000E+00  0.00000000000E+00  0.24637930280E+02  0.24637930280E+02  0.00000000000E+00 0. -1.
         -4   -1    0    0    0  501 -0.00000000000E+00 -0.00000000000E+00 -0.77987743740E+03  0.77987743740E+03  0.00000000000E+00 0.  1.
         23    2    1    2    0    0  0.77980448342E+01 -0.12601192922E+02 -0.19828952569E+03  0.21872191728E+03  0.91109502999E+02 0.  0.
         23    2    1    2    0    0  0.17812695997E+01  0.19713011373E+02 -0.17735346673E+03  0.20081124789E+03  0.92082188169E+02 0.  0.
        -11    1    4    4    0    0 -0.36461390577E+02  0.16275293763E+02 -0.34122689183E+02  0.52523100698E+02  0.00000000000E+00 0. -1.
         11    1    4    4    0    0  0.38242660177E+02  0.34377176102E+01 -0.14323077755E+03  0.14828814719E+03  0.00000000000E+00 0.  1.
        -13    1    3    3    0    0  0.27191297964E+02 -0.45975917945E+02 -0.12358196501E+03  0.13463154828E+03  0.00000000000E+00 0.  1.
         13    1    3    3    0    0 -0.19393253130E+02  0.33374725022E+02 -0.74707560673E+02  0.84090369002E+02  0.00000000000E+00 0. -1.
         21    1    1    2  502  501 -0.13029651350E+02  0.25562567101E+02 -0.23233329475E+03  0.23409821977E+03  0.00000000000E+00 0.  1.
         21    1    1    2  503  502  0.34503369156E+01 -0.32674385552E+02 -0.14726321995E+03  0.15088398273E+03  0.00000000000E+00 0.  1.
<scales pt_clust_5="13000.00000" pt_clust_6="13000.00000" pt_clust_7="13000.00000" pt_clust_8="13000.00000" pt_clust_9="28.69175" pt_clust_10="25.70373"></scales>
<clustering>
<clus scale="   28.692">  2  9  1 -1</clus>
<clus scale="   25.704">  2 10  1 -1</clus>
<clus scale="   91.110">  7  8 -1 -1</clus>
<clus scale="   92.082">  5  6 -1 -1</clus>
<clus scale="   92.603">  2  7  1 -1</clus>
<clus scale="   93.560">  1  5  2 -1</clus>
</clustering>
</event>
<event>
10    2  0.1133532E-006  0.9316464E+02  0.7546771E-02  0.1296697E+00
          2   -1    0    0  503    0  0.00000000000E+00  0.00000000000E+00  0.68655847697E+03  0.68655847697E+03  0.00000000000E+00 0. -1.
         -2   -1    0    0    0  501 -0.00000000000E+00 -0.00000000000E+00 -0.24123036918E+02  0.24123036918E+02  0.00000000000E+00 0.  1.
         23    2    1    2    0    0 -0.11884521083E+02 -0.97487197620E+01  0.14577327598E+03  0.17337355092E+03  0.92586504359E+02 0.  0.
         23    2    1    2    0    0 -0.30757643270E+00  0.79298548898E+01  0.33385528924E+03  0.34594187251E+03  0.90296444015E+02 0.  0.
        -11    1    4    4    0    0  0.38914402707E+02 -0.18014888406E+02  0.13738323469E+03  0.14392018662E+03  0.00000000000E+00 0.  1.
         11    1    4    4    0    0 -0.39221979139E+02  0.25944743296E+02  0.19647205455E+03  0.20202168589E+03  0.00000000000E+00 0. -1.
        -13    1    3    3    0    0 -0.44129293921E+02 -0.31544877049E+02  0.95042769428E+02  0.10943309312E+03  0.00000000000E+00 0. -1.
         13    1    3    3    0    0  0.32244772838E+02  0.21796157287E+02  0.50730506553E+02  0.63940457795E+02  0.00000000000E+00 0.  1.
         21    1    1    2  502  501 -0.80207980508E+01  0.22063414874E+02  0.46506796622E+02  0.52096157337E+02  0.00000000000E+00 0. -1.
         21    1    1    2  503  502  0.20212895566E+02 -0.20244550002E+02  0.13630007822E+03  0.13926993313E+03  0.00000000000E+00 0.  1.
<scales pt_clust_5="13000.00000" pt_clust_6="13000.00000" pt_clust_7="13000.00000" pt_clust_8="13000.00000" pt_clust_9="23.47610" pt_clust_10="27.13492"></scales>
<clustering>
<clus scale="   23.476">  2  9  1 -1</clus>
<clus scale="   27.135">  1 10  2 -1</clus>
<clus scale="   90.296">  5  6 -1 -1</clus>
<clus scale="   90.889">  1  5  2 -1</clus>
<clus scale="   92.587">  7  8 -1 -1</clus>
<clus scale="   27.135">  1  5  2 -1</clus>
</clustering>
</event>
<event>
10    2  0.1133532E-006  0.1077210E+03  0.7546771E-02  0.1271760E+00
          1   -1    0    0  503    0  0.00000000000E+00  0.00000000000E+00  0.26619356376E+03  0.26619356376E+03  0.00000000000E+00 0. -1.
         -1   -1    0    0    0  501 -0.00000000000E+00 -0.00000000000E+00 -0.27644091756E+03  0.27644091756E+03  0.00000000000E+00 0.  1.
         23    2    1    2    0    0  0.95608884492E+01  0.33966044509E+02 -0.20833382523E+03  0.23644858111E+03  0.10611242155E+03 0.  0.
         23    2    1    2    0    0  0.45184252287E+02  0.37230542368E+02  0.16393102382E+03  0.19706047268E+03  0.92367306885E+02 0.  0.
        -11    1    3    3    0    0 -0.25123665002E+02 -0.10406790677E+02 -0.15981235041E+03  0.16210949133E+03  0.00000000000E+00 0.  1.
         11    1    3    3    0    0  0.34684553451E+02  0.44372835186E+02 -0.48521474817E+02  0.74339089777E+02  0.00000000000E+00 0. -1.
        -13    1    4    4    0    0 -0.20121204117E+02 -0.14236936008E+01  0.47614890923E+01  0.20725866374E+02  0.00000000000E+00 0.  1.
         13    1    4    4    0    0  0.65305456404E+02  0.38654235969E+02  0.15916953473E+03  0.17633460630E+03  0.00000000000E+00 0. -1.
         21    1    1    2  502  501 -0.26577238308E+02 -0.34229267464E+02 -0.10589534714E+02  0.44610879756E+02  0.00000000000E+00 0. -1.
         21    1    1    2  503  502 -0.28167902429E+02 -0.36967319413E+02  0.44744982321E+02  0.64514547776E+02  0.00000000000E+00 0. -1.
<scales pt_clust_5="13000.00000" pt_clust_6="13000.00000" pt_clust_7="13000.00000" pt_clust_8="13000.00000" pt_clust_9="43.33581" pt_clust_10="48.19732"></scales>
<clustering>
<clus scale="   43.336">  2  9  1 -1</clus>
<clus scale="   48.197">  1 10  2 -1</clus>
<clus scale="   92.367">  7  8 -1 -1</clus>
<clus scale="   94.211">  1  7  2 -1</clus>
<clus scale="  106.112">  5  6 -1 -1</clus>
<clus scale="   48.197">  1  5  2 -1</clus>
</clustering>
</event>
<event>
10    2  0.1133532E-006  0.1216784E+03  0.7546771E-02  0.1240692E+00
         -2   -1    0    0    0  501 -0.00000000000E+00  0.00000000000E+00  0.17983202490E+03  0.17983202490E+03  0.00000000000E+00 0.  1.
          2   -1    0    0  503    0  0.00000000000E+00 -0.00000000000E+00 -0.30138863235E+03  0.30138863235E+03  0.00000000000E+00 0. -1.
         23    2    1    2    0    0 -0.69531862547E+02 -0.53891418426E+02  0.11374815926E+03  0.17048163877E+03  0.91577183463E+02 0.  0.
         23    2    1    2    0    0 -0.52808214130E+01  0.59689286591E+02 -0.14602269589E+03  0.18192776791E+03  0.90467602010E+02 0.  0.
        -11    1    3    3    0    0 -0.92276080111E+00 -0.58231543635E+02  0.52410372247E+02  0.78349290237E+02  0.00000000000E+00 0.  1.
         11    1    3    3    0    0 -0.68609101746E+02  0.43401252089E+01  0.61337787016E+02  0.92132348528E+02  0.00000000000E+00 0. -1.
        -11    1    4    4    0    0 -0.25545776023E+02  0.66263119678E+02 -0.14395983277E+03  0.16052358442E+03  0.00000000000E+00 0. -1.
         11    1    4    4    0    0  0.20264954610E+02 -0.65738330862E+01 -0.20628631170E+01  0.21404183494E+02  0.00000000000E+00 0.  1.
         21    1    1    2  502  501  0.44303467500E+02 -0.11102629025E+02 -0.14578653264E+02  0.47943745523E+02  0.00000000000E+00 0.  1.
         21    1    1    2  503  502  0.30509216460E+02  0.53047608597E+01 -0.74703417569E+02  0.80867505051E+02  0.00000000000E+00 0. -1.
<scales pt_clust_5="13000.00000" pt_clust_6="13000.00000" pt_clust_7="13000.00000" pt_clust_8="13000.00000" pt_clust_9="49.66170" pt_clust_10="30.96696"></scales>
<clustering>
<clus scale="   30.967">  2 10  1 -1</clus>
<clus scale="   49.662">  2  9  1 -1</clus>
<clus scale="   90.468">  7  8 -1 -1</clus>
<clus scale="   91.577">  5  6 -1 -1</clus>
<clus scale="  120.845">  2  7  1 -1</clus>
<clus scale="   30.967">  2  5  1 -1</clus>
</clustering>
</event>
<event>
10    2  0.1133532E-006  0.1271791E+03  0.7546771E-02  0.1232038E+00
          1   -1    0    0  503    0  0.00000000000E+00  0.00000000000E+00  0.54227746464E+03  0.54227746464E+03  0.00000000000E+00 0. -1.
         -1   -1    0    0    0  501 -0.00000000000E+00 -0.00000000000E+00 -0.99320087335E+02  0.99320087335E+02  0.00000000000E+00 0.  1.
         23    2    1    2    0    0  0.67664015673E+02  0.61182778830E+01  0.13269866827E+03  0.17468244626E+03  0.91044868765E+02 0.  0.
         23    2    1    2    0    0 -0.10227202775E+03 -0.30879822715E+02  0.23106816575E+03  0.27077071349E+03  0.92255899279E+02 0.  0.
        -11    1    4    4    0    0 -0.67358655899E+02  0.27397496828E+02  0.10804578583E+03  0.13023710375E+03  0.00000000000E+00 0. -1.
         11    1    4    4    0    0 -0.34913371851E+02 -0.58277319543E+02  0.12302237991E+03  0.14053360974E+03  0.00000000000E+00 0.  1.
        -13    1    3    3    0    0  0.98194814417E+01 -0.39014730333E+02  0.46962482569E+02  0.61838872627E+02  0.00000000000E+00 0.  1.
         13    1    3    3    0    0  0.57844534231E+02  0.45133008216E+02  0.85736185700E+02  0.11284357363E+03  0.00000000000E+00 0. -1.
         21    1    1    2  502  501  0.45983486340E+02 -0.95879293309E+01 -0.46050892227E+02  0.65780651257E+02  0.00000000000E+00 0. -1.
         21    1    1    2  503  502 -0.11375474263E+02  0.34349474163E+02  0.12524143552E+03  0.13036374097E+03  0.00000000000E+00 0. -1.
<scales pt_clust_5="13000.00000" pt_clust_6="13000.00000" pt_clust_7="13000.00000" pt_clust_8="13000.00000" pt_clust_9="46.54647" pt_clust_10="36.18408"></scales>
<clustering>
<clus scale="   36.184">  1 10  2 -1</clus>
<clus scale="   46.546">  2  9  1 -1</clus>
<clus scale="   91.045">  7  8 -1 -1</clus>
<clus scale="   92.256">  5  6 -1 -1</clus>
<clus scale="  126.303">  2  7  1 -1</clus>
<clus scale="   36.184">  1  5  2 -1</clus>
</clustering>
</event>
<event>
10    2  0.1133532E-006  0.1166478E+03  0.7546771E-02  0.1249471E+00
         -1   -1    0    0    0  501 -0.00000000000E+00  0.00000000000E+00  0.14490463328E+03  0.14490463328E+03  0.00000000000E+00 0.  1.
          1   -1    0    0  503    0  0.00000000000E+00 -0.00000000000E+00 -0.33640509801E+03  0.33640509801E+03  0.00000000000E+00 0. -1.
         23    2    1    2    0    0 -0.18593886750E+02 -0.59245377152E+02 -0.48750203757E+01  0.11221623963E+03  0.93343297960E+02 0.  0.
         23    2    1    2    0    0  0.43098611801E+01  0.72587376755E+02 -0.19864521778E+03  0.23035560415E+03  0.91193638208E+02 0.  0.
        -11    1    3    3    0    0 -0.44367392086E+02 -0.12740948478E+02 -0.28268346655E+02  0.54128519943E+02  0.00000000000E+00 0. -1.
         11    1    3    3    0    0  0.25773505337E+02 -0.46504428674E+02  0.23393326279E+02  0.58087719684E+02  0.00000000000E+00 0.  1.
        -13    1    4    4    0    0 -0.24546644565E+02  0.80005275161E+02 -0.12037868304E+03  0.14660971708E+03  0.00000000000E+00 0. -1.
         13    1    4    4    0    0  0.28856505745E+02 -0.74178984056E+01 -0.78266534740E+02  0.83745887068E+02  0.00000000000E+00 0.  1.
         21    1    1    2  502  501 -0.20656738437E+02  0.29633129921E+02  0.56935609910E+02  0.67427642014E+02  0.00000000000E+00 0.  1.
         21    1    1    2  503  502  0.34940764006E+02 -0.42975129524E+02 -0.44915836485E+02  0.71310245506E+02  0.00000000000E+00 0.  1.
<scales pt_clust_5="13000.00000" pt_clust_6="13000.00000" pt_clust_7="13000.00000" pt_clust_8="13000.00000" pt_clust_9="36.12234" pt_clust_10="49.64176"></scales>
<clustering>
<clus scale="   36.122">  1  9  2 -1</clus>
<clus scale="   49.642">  1 10  2 -1</clus>
<clus scale="   91.194">  7  8 -1 -1</clus>
<clus scale="   93.343">  5  6 -1 -1</clus>
<clus scale="  114.935">  2  7  1 -1</clus>
<clus scale="  114.935">  2  5  1 -1</clus>
</clustering>
</event>
<event>
10    2  0.1133532E-006  0.1282548E+03  0.7546771E-02  0.1244161E+00
         -1   -1    0    0    0  501 -0.00000000000E+00  0.00000000000E+00  0.18023416741E+03  0.18023416741E+03  0.00000000000E+00 0.  1.
          1   -1    0    0  503    0  0.00000000000E+00 -0.00000000000E+00 -0.71071638617E+03  0.71071638617E+03  0.00000000000E+00 0. -1.
         23    2    1    2    0    0  0.90281762289E+01  0.52373027529E+02  0.10889343283E+03  0.14890790644E+03  0.86552544190E+02 0.  0.
         23    2    1    2    0    0  0.77239745846E+02  0.30755803393E+02 -0.50009655473E+03  0.51474585550E+03  0.89189875684E+02 0.  0.
        -11    1    3    3    0    0 -0.25224837846E+02  0.59315572419E+02  0.55310947576E+02  0.84934860320E+02  0.00000000000E+00 0.  1.
         11    1    3    3    0    0  0.34253014075E+02 -0.69425448897E+01  0.53582485259E+02  0.63973046116E+02  0.00000000000E+00 0. -1.
        -11    1    4    4    0    0 -0.90147108892E+01  0.33292164143E+02 -0.11294123336E+03  0.11809045431E+03  0.00000000000E+00 0.  1.
         11    1    4    4    0    0  0.86254456735E+02 -0.25363607502E+01 -0.38715532137E+03  0.39665540119E+03  0.00000000000E+00 0. -1.
         21    1    1    2  502  501  0.11733800043E+02 -0.17867664710E+02  0.19966131720E+02  0.29250331990E+02  0.00000000000E+00 0.  1.
         21    1    1    2  503  502 -0.98001722118E+02 -0.65261166212E+02 -0.15924522859E+03  0.19804645965E+03  0.00000000000E+00 0.  1.
<scales pt_clust_5="13000.00000" pt_clust_6="13000.00000" pt_clust_7="13000.00000" pt_clust_8="13000.00000" pt_clust_9="21.37605" pt_clust_10="92.16537"></scales>
<clustering>
<clus scale="   21.376">  1  9  2 -1</clus>
<clus scale="   86.553">  5  6 -1 -1</clus>
<clus scale="   89.190">  7  8 -1 -1</clus>
<clus scale="   96.201">  1  5  2 -1</clus>
<clus scale="   92.165">  1 10  2 -1</clus>
<clus scale="  128.255">  2  5  1 -1</clus>
</clustering>
</event>
<event>
10    2  0.1133532E-006  0.1019133E+03  0.7546771E-02  0.1277006E+00
          2   -1    0    0  503    0  0.00000000000E+00  0.00000000000E+00  0.39090386590E+03  0.39090386590E+03  0.00000000000E+00 0. -1.
         -2   -1    0    0    0  501 -0.00000000000E+00 -0.00000000000E+00 -0.75195401197E+02  0.75195401197E+02  0.00000000000E+00 0.  1.
         23    2    1    2    0    0  0.98500065446E+01  0.21260589758E+02  0.28189423330E+02  0.98918728055E+02  0.91876198585E+02 0.  0.
         23    2    1    2    0    0 -0.16982832136E+02 -0.74915417738E+02  0.23300844152E+03  0.26249304408E+03  0.93321637198E+02 0.  0.
        -11    1    3    3    0    0  0.38352172788E+02  0.27802223079E+02  0.44874742645E+02  0.65250251288E+02  0.00000000000E+00 0.  1.
         11    1    3    3    0    0 -0.28502166244E+02 -0.65416333215E+01 -0.16685319315E+02  0.33668476766E+02  0.00000000000E+00 0. -1.
        -13    1    4    4    0    0 -0.37405621656E+02  0.51206461747E+01  0.84704913576E+02  0.92737931467E+02  0.00000000000E+00 0.  1.
         13    1    4    4    0    0  0.20422789519E+02 -0.80036063913E+02  0.14830352794E+03  0.16975511261E+03  0.00000000000E+00 0. -1.
         21    1    1    2  502  501 -0.18702059525E+02  0.16794114428E+02 -0.91251713905E+01  0.26740943566E+02  0.00000000000E+00 0.  1.
         21    1    1    2  503  502  0.25834885117E+02  0.36860713552E+02  0.63635771247E+02  0.77946551397E+02  0.00000000000E+00 0.  1.
<scales pt_clust_5="13000.00000" pt_clust_6="13000.00000" pt_clust_7="13000.00000" pt_clust_8="13000.00000" pt_clust_9="25.13582" pt_clust_10="45.49700"></scales>
<clustering>
<clus scale="   25.136">  2  9  1 -1</clus>
<clus scale="   45.497">  1 10  2 -1</clus>
<clus scale="   91.876">  5  6 -1 -1</clus>
<clus scale="   93.322">  7  8 -1 -1</clus>
<clus scale="  100.591">  2  5  1 -1</clus>
<clus scale="   45.497">  1  5  2 -1</clus>
</clustering>
</event>
<event>
10    2  0.1133532E-006  0.1172923E+03  0.7546771E-02  0.1253329E+00
          2   -1    0    0  503    0  0.00000000000E+00  0.00000000000E+00  0.75224154075E+03  0.75224154075E+03  0.00000000000E+00 0. -1.
         -2   -1    0    0    0  501 -0.00000000000E+00 -0.00000000000E+00 -0.37621085486E+02  0.37621085486E+02  0.00000000000E+00 0.  1.
         23    2    1    2    0    0 -0.32169593316E+02  0.72271333771E+02  0.16133964221E+03  0.19361989957E+03  0.72112113694E+02 0.  0.
         23    2    1    2    0    0  0.92361912760E+02 -0.20150412014E+02  0.30731854223E+03  0.33373705847E+03  0.89436993280E+02 0.  0.
        -11    1    4    4    0    0  0.25656514338E+02  0.30146507022E+02  0.53705748880E+02  0.66718633652E+02  0.00000000000E+00 0.  1.
         11    1    4    4    0    0  0.66705398422E+02 -0.50296919037E+02  0.25361279335E+03  0.26701842482E+03  0.00000000000E+00 0. -1.
        -11    1    3    3    0    0 -0.38653725324E+02  0.52217974574E+02  0.15978398908E+03  0.17248695752E+03  0.00000000000E+00 0. -1.
         11    1    3    3    0    0  0.64841320083E+01  0.20053359198E+02  0.15556531374E+01  0.21132942050E+02  0.00000000000E+00 0.  1.
         21    1    1    2  502  501 -0.59618905677E+02 -0.30408865484E+02  0.15226925885E+03  0.16632811009E+03  0.00000000000E+00 0. -1.
         21    1    1    2  503  502 -0.57341376666E+00 -0.21712056273E+02  0.93693011964E+02  0.96177558099E+02  0.00000000000E+00 0. -1.
<scales pt_clust_5="13000.00000" pt_clust_6="13000.00000" pt_clust_7="13000.00000" pt_clust_8="13000.00000" pt_clust_9="69.59461" pt_clust_10="21.71963"></scales>
<clustering>
<clus scale="   21.720">  1 10  2 -1</clus>
<clus scale="   69.595">  1  9  2 -1</clus>
<clus scale="   72.112">  7  8 -1 -1</clus>
<clus scale="   89.437">  5  6 -1 -1</clus>
<clus scale="  104.684">  2  7  1 -1</clus>
<clus scale="   21.720">  1  5  2 -1</clus>
</clustering>
</event>
<event>
10    2  0.1133532E-006  0.1834219E+03  0.7546771E-02  0.1186830E+00
         -3   -1    0    0    0  501 -0.00000000000E+00  0.00000000000E+00  0.60103177484E+03  0.60103177484E+03  0.00000000000E+00 0.  1.
          3   -1    0    0  503    0  0.00000000000E+00 -0.00000000000E+00 -0.21525723519E+03  0.21525723519E+03  0.00000000000E+00 0. -1.
         23    2    1    2    0    0 -0.17645765476E+02 -0.66064279566E+02  0.24762763198E+03  0.27273549436E+03  0.91593360496E+02 0.  0.
         23    2    1    2    0    0 -0.17689527278E+03  0.47251857315E+02 -0.85053081115E+02  0.21359423580E+03  0.69740916322E+02 0.  0.
        -11    1    3    3    0    0 -0.18681172227E+01 -0.86958013708E+02  0.20530244087E+03  0.22296698912E+03  0.00000000000E+00 0. -1.
         11    1    3    3    0    0 -0.15777648253E+02  0.20893734142E+02  0.42325191111E+02  0.49768505236E+02  0.00000000000E+00 0.  1.
        -13    1    4    4    0    0 -0.10676209498E+03  0.55592063279E+01 -0.76705914686E+02  0.13157829246E+03  0.00000000000E+00 0.  1.
         13    1    4    4    0    0 -0.70133177794E+02  0.41692650987E+02 -0.83471664286E+01  0.82015943335E+02  0.00000000000E+00 0. -1.
         21    1    1    2  502  501  0.43368123275E+02  0.74853392751E+01  0.15960913129E+03  0.16556539255E+03  0.00000000000E+00 0.  1.
         21    1    1    2  503  502  0.15117291498E+03  0.11327082976E+02  0.63590857494E+02  0.16439388732E+03  0.00000000000E+00 0.  1.
<scales pt_clust_5="13000.00000" pt_clust_6="13000.00000" pt_clust_7="13000.00000" pt_clust_8="13000.00000" pt_clust_9="44.00937" pt_clust_10="169.64612"></scales>
<clustering>
<clus scale="   44.009">  1  9  2 -1</clus>
<clus scale="   69.741">  7  8 -1 -1</clus>
<clus scale="   91.593">  5  6 -1 -1</clus>
<clus scale="  110.689">  1  5  2 -1</clus>
<clus scale="  169.646">  1 10  2 -1</clus>
<clus scale="  183.422">  2  5  1 -1</clus>
</clustering>
</event>
<event>
10    2  0.1133532E-006  0.3055086E+03  0.7546771E-02  0.1082537E+00
          1   -1    0    0  503    0  0.00000000000E+00  0.00000000000E+00  0.22764288509E+03  0.22764288509E+03  0.00000000000E+00 0. -1.
         -1   -1    0    0    0  501 -0.00000000000E+00 -0.00000000000E+00 -0.54672501016E+03  0.54672501016E+03  0.00000000000E+00 0.  1.
         23    2    1    2    0    0  0.27633828194E+03 -0.38840725950E+02 -0.13038189297E+03  0.32138559922E+03  0.91748663793E+02 0.  0.
         23    2    1    2    0    0 -0.29570902683E+03  0.81261005633E+02 -0.10683800732E+03  0.33732698880E+03  0.91257646149E+02 0.  0.
        -11    1    4    4    0    0 -0.16133551609E+03  0.54056507271E+02 -0.11902551070E+02  0.17056648396E+03  0.00000000000E+00 0. -1.
         11    1    4    4    0    0 -0.13437351074E+03  0.27204498362E+02 -0.94935456252E+02  0.16676050484E+03  0.00000000000E+00 0.  1.
        -13    1    3    3    0    0  0.21491780973E+03 -0.67821304490E+02 -0.92397851450E+02  0.24357084643E+03  0.00000000000E+00 0.  1.
         13    1    3    3    0    0  0.61420472218E+02  0.28980578540E+02 -0.37984041523E+02  0.77814752781E+02  0.00000000000E+00 0. -1.
         21    1    1    2  502  501 -0.13734992327E+01 -0.30753385996E+02 -0.86138638565E+02  0.91474161949E+02  0.00000000000E+00 0. -1.
         21    1    1    2  503  502  0.20744244116E+02 -0.11666893687E+02  0.42764137893E+01  0.24181145282E+02  0.00000000000E+00 0. -1.
<scales pt_clust_5="13000.00000" pt_clust_6="13000.00000" pt_clust_7="13000.00000" pt_clust_8="13000.00000" pt_clust_9="30.91931" pt_clust_10="23.80000"></scales>
<clustering>
<clus scale="   23.800">  1 10  2 -1</clus>
<clus scale="   30.919">  2  9  1 -1</clus>
<clus scale="   91.258">  5  6 -1 -1</clus>
<clus scale="   91.749">  7  8 -1 -1</clus>
<clus scale="  305.362">  1  5  2 -1</clus>
<clus scale="   23.800">  1  5  2 -1</clus>
</clustering>
</event>
<event>
10    2  0.1133532E-006  0.3751565E+03  0.7546771E-02  0.1052907E+00
          1   -1    0    0  503    0  0.00000000000E+00  0.00000000000E+00  0.12896573815E+04  0.12896573815E+04  0.00000000000E+00 0. -1.
         -1   -1    0    0    0  501 -0.00000000000E+00 -0.00000000000E+00 -0.30661129396E+03  0.30661129396E+03  0.00000000000E+00 0.  1.
         23    2    1    2    0    0  0.38566837166E+03 -0.87314739689E+01  0.16239639125E+03  0.42835994214E+03  0.91122558125E+02 0.  0.
         23    2    1    2    0    0 -0.34987104339E+03  0.52389856061E+02  0.80587950466E+03  0.88557199480E+03  0.98191333218E+02 0.  0.
        -11    1    3    3    0    0  0.14548997343E+03 -0.47590282628E+02  0.63855657656E+02  0.16586052087E+03  0.00000000000E+00 0.  1.
         11    1    3    3    0    0  0.24017839823E+03  0.38858808659E+02  0.98540733599E+02  0.26249942126E+03  0.00000000000E+00 0. -1.
        -11    1    4    4    0    0 -0.12682582600E+03  0.19948574935E+01  0.18847198711E+03  0.22717935541E+03  0.00000000000E+00 0.  1.
         11    1    4    4    0    0 -0.22304521739E+03  0.50394998567E+02  0.61740751755E+03  0.65839263939E+03  0.00000000000E+00 0. -1.
         21    1    1    2  502  501 -0.30908147267E+02 -0.20762331785E+02 -0.13023528555E+03  0.13545337793E+03  0.00000000000E+00 0. -1.
         21    1    1    2  503  502 -0.48891809995E+01 -0.22896050306E+02  0.14500547715E+03  0.14688336058E+03  0.00000000000E+00 0. -1.
<scales pt_clust_5="13000.00000" pt_clust_6="13000.00000" pt_clust_7="13000.00000" pt_clust_8="13000.00000" pt_clust_9="37.27263" pt_clust_10="23.41224"></scales>
<clustering>
<clus scale="   23.412">  1 10  2 -1</clus>
<clus scale="   37.273">  2  9  1 -1</clus>
<clus scale="   91.123">  5  6 -1 -1</clus>
<clus scale="   98.191">  7  8 -1 -1</clus>
<clus scale="  373.369">  2  5  1 -1</clus>
<clus scale="   23.412">  1  5  2 -1</clus>
</clustering>
</event>
<event>
10    2  0.1133532E-006  0.1497063E+03  0.7546771E-02  0.1200970E+00
          1   -1    0    0  503    0  0.00000000000E+00  0.00000000000E+00  0.45047869864E+03  0.45047869864E+03  0.00000000000E+00 0. -1.
         -1   -1    0    0    0  501 -0.00000000000E+00 -0.00000000000E+00 -0.14635034866E+03  0.14635034866E+03  0.00000000000E+00 0.  1.
         23    2    1    2    0    0  0.70127028490E+02 -0.57588363537E+02 -0.21800005637E+02  0.12984990679E+03  0.90285869930E+02 0.  0.
         23    2    1    2    0    0 -0.89696333555E+02  0.86858165642E+02  0.35683893674E+03  0.38885287242E+03  0.91009650183E+02 0.  0.
        -11    1    3    3    0    0  0.79920494849E+02 -0.16199597058E+02  0.10834489209E+01  0.81552966244E+02  0.00000000000E+00 0.  1.
         11    1    3    3    0    0 -0.97934663584E+01 -0.41388766480E+02 -0.22883454558E+02  0.48296940550E+02  0.00000000000E+00 0. -1.
        -11    1    4    4    0    0 -0.56226023204E+02  0.86177417741E+02  0.33082090778E+03  0.34645401721E+03  0.00000000000E+00 0. -1.
         11    1    4    4    0    0 -0.33470310351E+02  0.68074790169E+00  0.26018028956E+02  0.42398855214E+02  0.00000000000E+00 0.  1.
         21    1    1    2  502  501  0.20541534654E+02  0.15384631032E+02 -0.18906492100E+02  0.31876275841E+02  0.00000000000E+00 0.  1.
         21    1    1    2  503  502 -0.97222958971E+00 -0.44654433137E+02 -0.12004089026E+02  0.46249992243E+02  0.00000000000E+00 0.  1.
<scales pt_clust_5="13000.00000" pt_clust_6="13000.00000" pt_clust_7="13000.00000" pt_clust_8="13000.00000" pt_clust_9="25.66401" pt_clust_10="41.14219"></scales>
<clustering>
<clus scale="   25.664">  2  9  1 -1</clus>
<clus scale="   41.142">  2 10  1 -1</clus>
<clus scale="   90.286">  5  6 -1 -1</clus>
<clus scale="   91.010">  7  8 -1 -1</clus>
<clus scale="  149.267">  2  5  1 -1</clus>
<clus scale="  149.706">  1  5  2 -1</clus>
</clustering>
</event>
<event>
10    2  0.1133532E-006  0.1022924E+03  0.7546771E-02  0.1276138E+00
         -1   -1    0    0    0  501 -0.00000000000E+00  0.00000000000E+00  0.59603264469E+02  0.59603264469E+02  0.00000000000E+00 0.  1.
          1   -1    0    0  503    0  0.00000000000E+00 -0.00000000000E+00 -0.64145598694E+03  0.64145598694E+03  0.00000000000E+00 0. -1.
         23    2    1    2    0    0 -0.33021459460E+01  0.44974609833E+01 -0.64877163426E+02  0.11190448449E+03  0.91007889723E+02 0.  0.
         23    2    1    2    0    0  0.66652479891E+02 -0.38815637629E+02 -0.47243994940E+03  0.48702905498E+03  0.89713922044E+02 0.  0.
        -11    1    4    4    0    0  0.45653904260E+01 -0.51781573645E+02 -0.16056738538E+03  0.16877221159E+03  0.00000000000E+00 0.  1.
         11    1    4    4    0    0  0.62087089465E+02  0.12965936015E+02 -0.31187256402E+03  0.31825684339E+03  0.00000000000E+00 0. -1.
        -13    1    3    3    0    0  0.59277453951E+01 -0.38250092167E+02 -0.69546529746E+01  0.39326516681E+02  0.00000000000E+00 0.  1.
         13    1    3    3    0    0 -0.92298913411E+01  0.42747553150E+02 -0.57922510451E+02  0.72577967810E+02  0.00000000000E+00 0. -1.
         21    1    1    2  502  501 -0.43197796580E+02  0.25339766919E+02  0.25305201191E+01  0.50145358200E+02  0.00000000000E+00 0.  1.
         21    1    1    2  503  502 -0.20152537365E+02  0.89784097267E+01 -0.47066129759E+02  0.51980353730E+02  0.00000000000E+00 0. -1.
<scales pt_clust_5="13000.00000" pt_clust_6="13000.00000" pt_clust_7="13000.00000" pt_clust_8="13000.00000" pt_clust_9="50.96340" pt_clust_10="22.06211"></scales>
<clustering>
<clus scale="   22.062">  2 10  1 -1</clus>
<clus scale="   50.963">  1  9  2 -1</clus>
<clus scale="   89.714">  5  6 -1 -1</clus>
<clus scale="   91.008">  7  8 -1 -1</clus>
<clus scale="  101.143">  2  5  1 -1</clus>
<clus scale="   22.062">  2  5  1 -1</clus>
</clustering>
</event>
<event>
10    2  0.1133532E-006  0.8801550E+02  0.7546771E-02  0.1308604E+00
         -1   -1    0    0    0  501 -0.00000000000E+00  0.00000000000E+00  0.10354570478E+03  0.10354570478E+03  0.00000000000E+00 0.  1.
          1   -1    0    0  503    0  0.00000000000E+00 -0.00000000000E+00 -0.20907616030E+03  0.20907616030E+03  0.00000000000E+00 0. -1.
         23    2    1    2    0    0 -0.21571135782E+02 -0.15502759261E+01  0.37170831347E+02  0.96000928095E+02  0.85830007793E+02 0.  0.
         23    2    1    2    0    0  0.37222014747E+01  0.31944444306E+02 -0.12912344926E+03  0.15911197872E+03  0.87232186239E+02 0.  0.
        -13    1    4    4    0    0  0.38345562146E+02  0.41291490222E+02 -0.88565109817E+02  0.10497212953E+03  0.00000000000E+00 0. -1.
         13    1    4    4    0    0 -0.34623360671E+02 -0.93470459158E+01 -0.40558339447E+02  0.54139849189E+02  0.00000000000E+00 0.  1.
        -13    1    3    3    0    0  0.14494156337E+02  0.28795783667E+02  0.36722152555E+02  0.48865061273E+02  0.00000000000E+00 0. -1.
         13    1    3    3    0    0 -0.36065292119E+02 -0.30346059593E+02  0.44867879239E+00  0.47135866823E+02  0.00000000000E+00 0.  1.
         21    1    1    2  502  501  0.19661454651E+02 -0.39996740069E+01  0.96851445601E+01  0.22279412387E+02  0.00000000000E+00 0.  1.
         21    1    1    2  503  502 -0.18125203431E+01 -0.26394494373E+02 -0.23262982168E+02  0.35229545875E+02  0.00000000000E+00 0. -1.
<scales pt_clust_5="13000.00000" pt_clust_6="13000.00000" pt_clust_7="13000.00000" pt_clust_8="13000.00000" pt_clust_9="20.06415" pt_clust_10="26.67192"></scales>
<clustering>
<clus scale="   20.064">  1  9  2 -1</clus>
<clus scale="   26.672">  2 10  1 -1</clus>
<clus scale="   85.830">  7  8 -1 -1</clus>
<clus scale="   86.626">  1  7  2 -1</clus>
<clus scale="   87.232">  5  6 -1 -1</clus>
<clus scale="   26.672">  2  5  1 -1</clus>
</clustering>
</event>
<event>
10    2  0.1133532E-006  0.3395539E+03  0.7546771E-02  0.1102496E+00
          1   -1    0    0  503    0  0.00000000000E+00  0.00000000000E+00  0.13767786637E+03  0.13767786637E+03  0.00000000000E+00 0. -1.
         -1   -1    0    0    0  501 -0.00000000000E+00 -0.00000000000E+00 -0.13617046148E+04  0.13617046148E+04  0.00000000000E+00 0.  1.
         23    2    1    2    0    0 -0.10476621239E+02  0.99781919727E+02 -0.26693950852E+03  0.29903485261E+03  0.89994170748E+02 0.  0.
         23    2    1    2    0    0  0.45754986105E+02 -0.35747489222E+03 -0.32920935775E+03  0.49666100832E+03  0.91714440709E+02 0.  0.
        -11    1    4    4    0    0 -0.47456888642E+01 -0.12916485485E+03 -0.67881726096E+02  0.14599318487E+03  0.00000000000E+00 0. -1.
         11    1    4    4    0    0  0.50500674969E+02 -0.22831003737E+03 -0.26132763165E+03  0.35066782345E+03  0.00000000000E+00 0.  1.
        -13    1    3    3    0    0  0.24433918441E+02  0.33232756551E+02 -0.17742743719E+03  0.18215907319E+03  0.00000000000E+00 0. -1.
         13    1    3    3    0    0 -0.34910539680E+02  0.66549163176E+02 -0.89512071323E+02  0.11687577941E+03  0.00000000000E+00 0.  1.
         21    1    1    2  502  501  0.27040517823E+02 -0.17517492815E+02 -0.10085100435E+03  0.10587245740E+03  0.00000000000E+00 0. -1.
         21    1    1    2  503  502 -0.62318882689E+02  0.27521046530E+03 -0.52702687785E+03  0.59781416287E+03  0.00000000000E+00 0. -1.
<scales pt_clust_5="13000.00000" pt_clust_6="13000.00000" pt_clust_7="13000.00000" pt_clust_8="13000.00000" pt_clust_9="32.21882" pt_clust_10="326.93320"></scales>
<clustering>
<clus scale="   32.219">  2  9  1 -1</clus>
<clus scale="   89.994">  7  8 -1 -1</clus>
<clus scale="   91.714">  5  6 -1 -1</clus>
<clus scale="  131.545">  2  7  1 -1</clus>
<clus scale="  326.933">  2 10  1 -1</clus>
<clus scale="  339.554">  1  5  2 -1</clus>
</clustering>
</event>
<event>
10    2  0.1133532E-006  0.1085177E+03  0.7546771E-02  0.1266060E+00
          1   -1    0    0  502    0  0.00000000000E+00  0.00000000000E+00  0.21506648981E+03  0.21506648981E+03  0.00000000000E+00 0. -1.
         -1   -1    0    0    0  501 -0.00000000000E+00 -0.00000000000E+00 -0.13796554990E+03  0.13796554990E+03  0.00000000000E+00 0.  1.
         23    2    1    2    0    0 -0.22320112685E+02 -0.32364779376E+02  0.17215231650E+01  0.10553313460E+03  0.97921460787E+02 0.  0.
         23    2    1    2    0    0 -0.19976055541E+02  0.51197664011E+02  0.12540723753E+03  0.16477359510E+03  0.91668526897E+02 0.  0.
        -11    1    3    3    0    0  0.28951075376E+02 -0.20504741032E+02  0.29397671695E+02  0.46074203968E+02  0.00000000000E+00 0.  1.
         11    1    3    3    0    0 -0.51271188061E+02 -0.11860038344E+02 -0.27676148530E+02  0.59458930634E+02  0.00000000000E+00 0. -1.
        -13    1    4    4    0    0  0.65708736758E+01  0.62252992484E+02  0.39111989045E+02  0.73813001166E+02  0.00000000000E+00 0. -1.
         13    1    4    4    0    0 -0.26546929217E+02 -0.11055328473E+02  0.86295248485E+02  0.90960593938E+02  0.00000000000E+00 0.  1.
         21    1    1    2  502  503  0.20366391714E+02 -0.23670482609E+02 -0.51492133675E+02  0.60220606845E+02  0.00000000000E+00 0.  1.
         21    1    1    2  503  501  0.21929776513E+02  0.48375979731E+01  0.14643128980E+01  0.22504703160E+02  0.00000000000E+00 0.  1.
<scales pt_clust_5="13000.00000" pt_clust_6="13000.00000" pt_clust_7="13000.00000" pt_clust_8="13000.00000" pt_clust_9="36.91988" pt_clust_10="22.45701"></scales>
<clustering>
<clus scale="   22.457">  2 10  1 -1</clus>
<clus scale="   36.920">  2  9  1 -1</clus>
<clus scale="   91.669">  7  8 -1 -1</clus>
<clus scale="   97.921">  5  6 -1 -1</clus>
<clus scale="  102.911">  1  7  2 -1</clus>
<clus scale="  102.911">  1  5  2 -1</clus>
</clustering>
</event>
<event>
10    2  0.1133532E-006  0.1048701E+03  0.7546771E-02  0.1274445E+00
          2   -1    0    0  503    0  0.00000000000E+00  0.00000000000E+00  0.71002191506E+03  0.71002191506E+03  0.00000000000E+00 0. -1.
         -2   -1    0    0    0  501 -0.00000000000E+00 -0.00000000000E+00 -0.61357572486E+02  0.61357572486E+02  0.00000000000E+00 0.  1.
         23    2    1    2    0    0  0.47079871376E+02  0.45592751974E+02  0.12553713143E+03  0.16397999452E+03  0.82671965711E+02 0.  0.
         23    2    1    2    0    0 -0.37793229575E+02 -0.24813181529E+02  0.41339054803E+03  0.42587138129E+03  0.91818658364E+02 0.  0.
        -13    1    3    3    0    0  0.20193752809E+02  0.55786708580E+02  0.34769225290E+02  0.68766587337E+02  0.00000000000E+00 0.  1.
         13    1    3    3    0    0  0.26886118567E+02 -0.10193956606E+02  0.90767906138E+02  0.95213407184E+02  0.00000000000E+00 0. -1.
        -13    1    4    4    0    0 -0.12293971640E+02  0.35118975630E+02  0.15253401754E+03  0.15700672182E+03  0.00000000000E+00 0.  1.
         13    1    4    4    0    0 -0.25499257935E+02 -0.59932157158E+02  0.26085653049E+03  0.26886465947E+03  0.00000000000E+00 0. -1.
         21    1    1    2  502  501 -0.26163776354E+02 -0.26827335695E+01 -0.29839097208E+02  0.39775771202E+02  0.00000000000E+00 0.  1.
         21    1    1    2  503  502  0.16877134554E+02 -0.18096836876E+02  0.13957576033E+03  0.14175234054E+03  0.00000000000E+00 0. -1.
<scales pt_clust_5="13000.00000" pt_clust_6="13000.00000" pt_clust_7="13000.00000" pt_clust_8="13000.00000" pt_clust_9="26.17112" pt_clust_10="24.74537"></scales>
<clustering>
<clus scale="   24.745">  1 10  2 -1</clus>
<clus scale="   26.171">  2  9  1 -1</clus>
<clus scale="   82.672">  5  6 -1 -1</clus>
<clus scale="   91.819">  7  8 -1 -1</clus>
<clus scale="   96.963">  2  5  1 -1</clus>
<clus scale="   24.745">  1  5  2 -1</clus>
</clustering>
</event>
<event>
10    2  0.1133532E-006  0.1241430E+03  0.7546771E-02  0.1237365E+00
         -2   -1    0    0    0  501 -0.00000000000E+00  0.00000000000E+00  0.65902580612E+03  0.65902580612E+03  0.00000000000E+00 0.  1.
          2   -1    0    0  503    0  0.00000000000E+00 -0.00000000000E+00 -0.11260291243E+03  0.11260291243E+03  0.00000000000E+00 0. -1.
         23    2    1    2    0    0  0.39983464993E+02  0.63114472340E+02  0.32860211176E+03  0.34851455875E+03  0.88887207821E+02 0.  0.
         23    2    1    2    0    0 -0.62973436620E+02 -0.58359363115E+02 -0.47956892017E+02  0.13475493323E+03  0.92127952087E+02 0.  0.
        -11    1    3    3    0    0  0.63627402463E+02  0.37664841572E+02  0.27398200597E+03  0.28378376668E+03  0.00000000000E+00 0.  1.
         11    1    3    3    0    0 -0.23643937471E+02  0.25449630768E+02  0.54620105788E+02  0.64730792067E+02  0.00000000000E+00 0. -1.
        -13    1    4    4    0    0 -0.25103604574E+02 -0.27989432935E+02  0.26410134252E+02  0.45946648516E+02  0.00000000000E+00 0.  1.
         13    1    4    4    0    0 -0.37869832045E+02 -0.30369930180E+02 -0.74367026269E+02  0.88808284717E+02  0.00000000000E+00 0. -1.
         21    1    1    2  502  501  0.42725427306E+02 -0.31599225164E+02  0.24112731718E+03  0.24691366155E+03  0.00000000000E+00 0. -1.
         21    1    1    2  503  502 -0.19735455679E+02  0.26844115939E+02  0.24650356762E+02  0.41445565021E+02  0.00000000000E+00 0. -1.
<scales pt_clust_5="13000.00000" pt_clust_6="13000.00000" pt_clust_7="13000.00000" pt_clust_8="13000.00000" pt_clust_9="52.25806" pt_clust_10="33.31808"></scales>
<clustering>
<clus scale="   33.318">  2 10  1 -1</clus>
<clus scale="   52.258">  1  9  2 -1</clus>
<clus scale="   88.887">  5  6 -1 -1</clus>
<clus scale="   92.128">  7  8 -1 -1</clus>
<clus scale="  121.757">  1  5  2 -1</clus>
<clus scale="   33.318">  2  5  1 -1</clus>
</clustering>
</event>
<event>
10    2  0.1133532E-006  0.1854787E+03  0.7546771E-02  0.1162691E+00
         -3   -1    0    0    0  501 -0.00000000000E+00  0.00000000000E+00  0.15335717865E+03  0.15335717865E+03  0.00000000000E+00 0.  1.
          3   -1    0    0  503    0  0.00000000000E+00 -0.00000000000E+00 -0.53032547565E+03  0.53032547565E+03  0.00000000000E+00 0. -1.
         23    2    1    2    0    0  0.30576232380E+02  0.14147286259E+03  0.49532883724E+02  0.17873636691E+03  0.92432166743E+02 0.  0.
         23    2    1    2    0    0 -0.44403899286E+01 -0.17965126921E+03 -0.36068461506E+03  0.41327057217E+03  0.91678125461E+02 0.  0.
        -11    1    3    3    0    0  0.15197429392E+02  0.13120827119E+02 -0.22981471060E+02  0.30516650807E+02  0.00000000000E+00 0. -1.
         11    1    3    3    0    0  0.15378802988E+02  0.12835203547E+03  0.72514354784E+02  0.14821971610E+03  0.00000000000E+00 0.  1.
        -11    1    4    4    0    0 -0.30047194419E+02 -0.40777811004E+02 -0.46290695777E+02  0.68618454356E+02  0.00000000000E+00 0.  1.
         11    1    4    4    0    0  0.25606804491E+02 -0.13887345821E+03 -0.31439391928E+03  0.34465211781E+03  0.00000000000E+00 0. -1.
         21    1    1    2  502  501 -0.16716781115E+02  0.18628016136E+02 -0.29902401539E+01  0.25207048463E+02  0.00000000000E+00 0.  1.
         21    1    1    2  503  502 -0.94190613362E+01  0.19550390482E+02 -0.62826325501E+02  0.66468666757E+02  0.00000000000E+00 0.  1.
<scales pt_clust_5="13000.00000" pt_clust_6="13000.00000" pt_clust_7="13000.00000" pt_clust_8="13000.00000" pt_clust_9="25.66070" pt_clust_10="21.70107"></scales>
<clustering>
<clus scale="   21.701">  2 10  1 -1</clus>
<clus scale="   25.661">  1  9  2 -1</clus>
<clus scale="   91.678">  7  8 -1 -1</clus>
<clus scale="   92.432">  5  6 -1 -1</clus>
<clus scale="  185.104">  2  7  1 -1</clus>
<clus scale="   21.701">  2  5  1 -1</clus>
</clustering>
</event>
<event>
10    2  0.1133532E-006  0.1422419E+03  0.7546771E-02  0.1210442E+00
          1   -1    0    0  503    0  0.00000000000E+00  0.00000000000E+00  0.31412243752E+03  0.31412243752E+03  0.00000000000E+00 0. -1.
         -1   -1    0    0    0  501 -0.00000000000E+00 -0.00000000000E+00 -0.22026528290E+03  0.22026528290E+03  0.00000000000E+00 0.  1.
         23    2    1    2    0    0  0.60738558155E+02 -0.11278582055E+03 -0.10861153203E+03  0.19104074887E+03  0.91051024568E+02 0.  0.
         23    2    1    2    0    0 -0.54981198774E+02  0.87771146653E+02  0.16221563246E+03  0.21310941287E+03  0.91515048139E+02 0.  0.
        -11    1    3    3    0    0 -0.17668154427E+02 -0.41357784501E+02 -0.58349542795E+02  0.73670205403E+02  0.00000000000E+00 0.  1.
         11    1    3    3    0    0  0.78406712582E+02 -0.71428036050E+02 -0.50261989234E+02  0.11737054347E+03  0.00000000000E+00 0. -1.
        -13    1    4    4    0    0 -0.76129756146E+02  0.47602668086E+02  0.85588625044E+02  0.12404501811E+03  0.00000000000E+00 0. -1.
         13    1    4    4    0    0  0.21148557372E+02  0.40168478567E+02  0.76627007416E+02  0.89064394765E+02  0.00000000000E+00 0.  1.
         21    1    1    2  502  501 -0.22377264895E+02  0.13527799410E+02 -0.39829486489E+02  0.47645895259E+02  0.00000000000E+00 0. -1.
         21    1    1    2  503  502  0.16619905514E+02  0.11486874487E+02  0.80082540675E+02  0.82591663416E+02  0.00000000000E+00 0. -1.
<scales pt_clust_5="13000.00000" pt_clust_6="13000.00000" pt_clust_7="13000.00000" pt_clust_8="13000.00000" pt_clust_9="26.01131" pt_clust_10="20.20321"></scales>
<clustering>
<clus scale="   20.203">  1 10  2 -1</clus>
<clus scale="   26.011">  2  9  1 -1</clus>
<clus scale="   91.051">  5  6 -1 -1</clus>
<clus scale="   91.515">  7  8 -1 -1</clus>
<clus scale="  141.944">  2  5  1 -1</clus>
<clus scale="   20.203">  1  5  2 -1</clus>
</clustering>
</event>
<event>
10    2  0.1133532E-006  0.1007564E+03  0.7546771E-02  0.1278940E+00
         -3   -1    0    0    0  501 -0.00000000000E+00  0.00000000000E+00  0.14306905195E+03  0.14306905195E+03  0.00000000000E+00 0.  1.
          3   -1    0    0  503    0  0.00000000000E+00 -0.00000000000E+00 -0.28758356133E+03  0.28758356133E+03  0.00000000000E+00 0. -1.
         23    2    1    2    0    0 -0.22740573430E+02 -0.25465464073E+02  0.62973318063E+02  0.11781480420E+03  0.93536440819E+02 0.  0.
         23    2    1    2    0    0 -0.20788463754E+02  0.51806846035E+02 -0.19860962818E+03  0.22671164852E+03  0.94001476832E+02 0.  0.
        -11    1    3    3    0    0  0.71217577976E+01  0.19166442961E+02 -0.13403873699E+02  0.24448635955E+02  0.00000000000E+00 0. -1.
         11    1    3    3    0    0 -0.29862331228E+02 -0.44631907034E+02  0.76377191762E+02  0.93366168248E+02  0.00000000000E+00 0.  1.
        -13    1    4    4    0    0  0.20516888963E+01 -0.24582500414E+02 -0.22473561908E+02  0.33370192369E+02  0.00000000000E+00 0.  1.
         13    1    4    4    0    0 -0.22840152650E+02  0.76389346449E+02 -0.17613606627E+03  0.19334145615E+03  0.00000000000E+00 0. -1.
         21    1    1    2  502  501  0.34234100200E+02 -0.86052656508E+01  0.27402139105E+02  0.44686703179E+02  0.00000000000E+00 0. -1.
         21    1    1    2  503  502  0.92949369841E+01 -0.17736116311E+02 -0.36280338368E+02  0.41439457374E+02  0.00000000000E+00 0.  1.
<scales pt_clust_5="13000.00000" pt_clust_6="13000.00000" pt_clust_7="13000.00000" pt_clust_8="13000.00000" pt_clust_9="35.76629" pt_clust_10="20.02413"></scales>
<clustering>
<clus scale="   20.024">  2 10  1 -1</clus>
<clus scale="   35.766">  1  9  2 -1</clus>
<clus scale="   93.536">  5  6 -1 -1</clus>
<clus scale="   94.001">  7  8 -1 -1</clus>
<clus scale="  100.323">  1  5  2 -1</clus>
<clus scale="   20.024">  2  5  1 -1</clus>
</clustering>
</event>
<event>
10    2  0.1133532E-006  0.1169397E+03  0.7546771E-02  0.1248371E+00
         -1   -1    0    0    0  501 -0.00000000000E+00  0.00000000000E+00  0.35735278137E+03  0.35735278137E+03  0.00000000000E+00 0.  1.
          1   -1    0    0  503    0  0.00000000000E+00 -0.00000000000E+00 -0.13202138549E+03  0.13202138549E+03  0.00000000000E+00 0. -1.
         23    2    1    2    0    0  0.31333888419E+02  0.88608216666E+02  0.16757759056E+03  0.21280086289E+03  0.91480761716E+02 0.  0.
         23    2    1    2    0    0 -0.50231697913E+02 -0.40507819414E+02 -0.58910847198E+02  0.12620635075E+03  0.91068370706E+02 0.  0.
        -11    1    4    4    0    0 -0.23596180640E+02 -0.67931945661E+02 -0.28495484513E+02  0.77353226304E+02  0.00000000000E+00 0. -1.
         11    1    4    4    0    0 -0.26635517273E+02  0.27424126247E+02 -0.30415362685E+02  0.48853124445E+02  0.00000000000E+00 0.  1.
        -11    1    3    3    0    0  0.50721026303E+02  0.56671696691E+02  0.54105412070E+02  0.93336484454E+02  0.00000000000E+00 0. -1.
         11    1    3    3    0    0 -0.19387137884E+02  0.31936519976E+02  0.11347217849E+03  0.11946437843E+03  0.00000000000E+00 0.  1.
         21    1    1    2  502  501  0.70087769421E+00 -0.25716586642E+02  0.11869250274E+03  0.12144852517E+03  0.00000000000E+00 0. -1.
         21    1    1    2  503  502  0.18196931800E+02 -0.22383810611E+02 -0.20278502269E+01  0.28918428051E+02  0.00000000000E+00 0. -1.
<scales pt_clust_5="13000.00000" pt_clust_6="13000.00000" pt_clust_7="13000.00000" pt_clust_8="13000.00000" pt_clust_9="25.72614" pt_clust_10="30.01614"></scales>
<clustering>
<clus scale="   25.726">  1  9  2 -1</clus>
<clus scale="   30.016">  2 10  1 -1</clus>
<clus scale="   91.068">  5  6 -1 -1</clus>
<clus scale="   91.481">  7  8 -1 -1</clus>
<clus scale="  116.617">  2  5  1 -1</clus>
<clus scale="   30.016">  2  5  1 -1</clus>
</clustering>
</event>
<event>
10    2  0.1133532E-006  0.1026765E+03  0.7546771E-02  0.1276086E+00
         -2   -1    0    0    0  501 -0.00000000000E+00  0.00000000000E+00  0.38726990352E+03  0.38726990352E+03  0.00000000000E+00 0.  1.
          2   -1    0    0  503    0  0.00000000000E+00 -0.00000000000E+00 -0.40537200335E+03  0.40537200335E+03  0.00000000000E+00 0. -1.
         23    2    1    2    0    0 -0.44177175066E+02 -0.23447913981E+02  0.28167583451E+03  0.29979221734E+03  0.89625165893E+02 0.  0.
         23    2    1    2    0    0  0.39598396437E+02  0.54283226686E+02 -0.94881329728E+02  0.14855938364E+03  0.92480927970E+02 0.  0.
        -11    1    4    4    0    0  0.38357177200E+02 -0.13653482924E+02 -0.14297593327E+02  0.43152193614E+02  0.00000000000E+00 0.  1.
         11    1    4    4    0    0  0.12412192364E+01  0.67936709610E+02 -0.80583736401E+02  0.10540719003E+03  0.00000000000E+00 0. -1.
        -13    1    3    3    0    0  0.94448455050E+01  0.19373659092E+02  0.20477278880E+02  0.29729828851E+02  0.00000000000E+00 0. -1.
         13    1    3    3    0    0 -0.53622020571E+02 -0.42821573073E+02  0.26119855563E+03  0.27006238849E+03  0.00000000000E+00 0.  1.
         21    1    1    2  502  501  0.42866433377E+02 -0.20574799343E+02  0.59936916507E+02  0.76506780346E+02  0.00000000000E+00 0.  1.
         21    1    1    2  503  502 -0.38287654748E+02 -0.10260513362E+02 -0.26483352113E+03  0.26778352554E+03  0.00000000000E+00 0. -1.
<scales pt_clust_5="13000.00000" pt_clust_6="13000.00000" pt_clust_7="13000.00000" pt_clust_8="13000.00000" pt_clust_9="45.78235" pt_clust_10="39.63865"></scales>
<clustering>
<clus scale="   39.639">  2 10  1 -1</clus>
<clus scale="   45.782">  1  9  2 -1</clus>
<clus scale="   89.625">  7  8 -1 -1</clus>
<clus scale="   92.481">  5  6 -1 -1</clus>
<clus scale="  100.112">  1  7  2 -1</clus>
<clus scale="   39.639">  2  5  1 -1</clus>
</clustering>
</event>
<event>
10    2  0.1133532E-006  0.2298359E+03  0.7546771E-02  0.1126846E+00
         -2   -1    0    0    0  501 -0.00000000000E+00  0.00000000000E+00  0.23214746702E+03  0.23214746702E+03  0.00000000000E+00 0.  1.
          2   -1    0    0  503    0  0.00000000000E+00 -0.00000000000E+00 -0.10716162017E+04  0.10716162017E+04  0.00000000000E+00 0. -1.
         23    2    1    2    0    0  0.20032571980E+03 -0.20095843945E+02  0.76557403656E+02  0.23412636211E+03  0.91759906401E+02 0.  0.
         23    2    1    2    0    0 -0.19534556076E+03 -0.10577479207E+03 -0.19826629826E+03  0.31119334152E+03  0.90463119747E+02 0.  0.
        -11    1    4    4    0    0 -0.10222510791E+02 -0.26067567765E+02 -0.61626449414E+02  0.67689268599E+02  0.00000000000E+00 0.  1.
         11    1    4    4    0    0 -0.18512304997E+03 -0.79707224306E+02 -0.13663984885E+03  0.24350407293E+03  0.00000000000E+00 0. -1.
        -13    1    3    3    0    0  0.19048896904E+03 -0.42331552667E+02  0.58105335508E+02  0.20360313772E+03  0.00000000000E+00 0.  1.
         13    1    3    3    0    0  0.98367507606E+01  0.22235708722E+02  0.18452068149E+02  0.30523224385E+02  0.00000000000E+00 0. -1.
         21    1    1    2  502  501  0.23197028407E+02  0.26159427512E+02 -0.17832056973E+01  0.35008536063E+02  0.00000000000E+00 0.  1.
         21    1    1    2  503  502 -0.28177187440E+02  0.99711208503E+02 -0.71597663437E+03  0.72343542902E+03  0.00000000000E+00 0. -1.
<scales pt_clust_5="13000.00000" pt_clust_6="13000.00000" pt_clust_7="13000.00000" pt_clust_8="13000.00000" pt_clust_9="34.96309" pt_clust_10="103.94369"></scales>
<clustering>
<clus scale="   34.963">  1  9  2 -1</clus>
<clus scale="   90.463">  5  6 -1 -1</clus>
<clus scale="   91.760">  7  8 -1 -1</clus>
<clus scale="  103.944">  2 10  1 -1</clus>
<clus scale="  229.321">  2  5  1 -1</clus>
<clus scale="  103.944">  2  5  1 -1</clus>
</clustering>
</event>
<event>
10    2  0.1133532E-006  0.1279844E+03  0.7546771E-02  0.1231217E+00
         -1   -1    0    0    0  501 -0.00000000000E+00  0.00000000000E+00  0.14689874410E+03  0.14689874410E+03  0.00000000000E+00 0.  1.
          1   -1    0    0  503    0  0.00000000000E+00 -0.00000000000E+00 -0.46292347959E+03  0.46292347959E+03  0.00000000000E+00 0. -1.
         23    2    1    2    0    0  0.12945754041E+02 -0.61836459837E+02 -0.56400181880E+01  0.11167966921E+03  0.91919521305E+02 0.  0.
         23    2    1    2    0    0 -0.37736836513E+01  0.11358878760E+03 -0.12023834931E+02  0.14833266145E+03  0.94558725095E+02 0.  0.
        -11    1    3    3    0    0  0.51863640924E+02 -0.28465430180E+02  0.48178500750E+01  0.59357641838E+02  0.00000000000E+00 0.  1.
         11    1    3    3    0    0 -0.38917886883E+02 -0.33371029657E+02 -0.10457868263E+02  0.52322027373E+02  0.00000000000E+00 0. -1.
        -13    1    4    4    0    0  0.32284020410E+02  0.70646586517E+01  0.82413834130E+01  0.34060061307E+02  0.00000000000E+00 0.  1.
         13    1    4    4    0    0 -0.36057704061E+02  0.10652412895E+03 -0.20265218344E+02  0.11427260015E+03  0.00000000000E+00 0. -1.
         21    1    1    2  502  501  0.58986794754E+02 -0.16422070709E+02 -0.25453710758E+02  0.66310012465E+02  0.00000000000E+00 0. -1.
         21    1    1    2  503  502 -0.68158865144E+02 -0.35330257051E+02 -0.27290717161E+03  0.28349988056E+03  0.00000000000E+00 0. -1.
<scales pt_clust_5="13000.00000" pt_clust_6="13000.00000" pt_clust_7="13000.00000" pt_clust_8="13000.00000" pt_clust_9="61.23011" pt_clust_10="74.91521"></scales>
<clustering>
<clus scale="   61.230">  1  9  2 -1</clus>
<clus scale="   74.915">  2 10  1 -1</clus>
<clus scale="   91.920">  5  6 -1 -1</clus>
<clus scale="   94.559">  7  8 -1 -1</clus>
<clus scale="  126.047">  1  5  2 -1</clus>
<clus scale="   74.915">  2  5  1 -1</clus>
</clustering>
</event>
<event>
10    2  0.1133532E-006  0.3923876E+03  0.7546771E-02  0.1084652E+00
          2   -1    0    0  503    0  0.00000000000E+00  0.00000000000E+00  0.23843875195E+04  0.23843875195E+04  0.00000000000E+00 0. -1.
         -2   -1    0    0    0  501 -0.00000000000E+00 -0.00000000000E+00 -0.10984572899E+03  0.10984572899E+03  0.00000000000E+00 0.  1.
         23    2    1    2    0    0 -0.35317869881E+03  0.14659078846E+03  0.95277379109E+03  0.10306706658E+04  0.90994900078E+02 0.  0.
         23    2    1    2    0    0 -0.42839249611E+02 -0.87002731368E+02  0.65656429032E+03  0.66988909033E+03  0.90939812242E+02 0.  0.
        -13    1    3    3    0    0 -0.86358176921E+02  0.21719429429E+02  0.13761752969E+03  0.16391477302E+03  0.00000000000E+00 0.  1.
         13    1    3    3    0    0 -0.26682052189E+03  0.12487135903E+03  0.81515626139E+03  0.86675589280E+03  0.00000000000E+00 0. -1.
        -13    1    4    4    0    0  0.25974547138E+02 -0.45166610425E+02  0.28058614943E+03  0.28538270279E+03  0.00000000000E+00 0.  1.
         13    1    4    4    0    0 -0.68813796749E+02 -0.41836120942E+02  0.37597814088E+03  0.38450638754E+03  0.00000000000E+00 0. -1.
         21    1    1    2  502  501  0.38558525508E+03 -0.38361647456E+02  0.53070709264E+03  0.65711309766E+03  0.00000000000E+00 0.  1.
         21    1    1    2  503  502  0.10432693339E+02 -0.21226409639E+02  0.13449661642E+03  0.13656039465E+03  0.00000000000E+00 0.  1.
<scales pt_clust_5="13000.00000" pt_clust_6="13000.00000" pt_clust_7="13000.00000" pt_clust_8="13000.00000" pt_clust_9="381.69088" pt_clust_10="23.65167"></scales>
<clustering>
<clus scale="   23.652">  1 10  2 -1</clus>
<clus scale="   90.940">  7  8 -1 -1</clus>
<clus scale="   90.995">  5  6 -1 -1</clus>
<clus scale="  136.195">  1  7  2 -1</clus>
<clus scale="  381.691">  2  9  1 -1</clus>
<clus scale="   23.652">  1  5  2 -1</clus>
</clustering>
</event>
<event>
10    2  0.1133532E-006  0.9256763E+02  0.7546771E-02  0.1298560E+00
         -1   -1    0    0    0  501 -0.00000000000E+00  0.00000000000E+00  0.13098435117E+03  0.13098435117E+03  0.00000000000E+00 0.  1.
          1   -1    0    0  503    0  0.00000000000E+00 -0.00000000000E+00 -0.34465415603E+03  0.34465415603E+03  0.00000000000E+00 0. -1.
         23    2    1    2    0    0  0.11809513858E+02 -0.24875674187E+02  0.64026848710E+02  0.11524071644E+03  0.91775386608E+02 0.  0.
         23    2    1    2    0    0  0.15043882819E+02 -0.13079327218E+02 -0.15812917321E+03  0.18240007072E+03  0.88699285054E+02 0.  0.
        -11    1    4    4    0    0 -0.36537562981E+02 -0.96187451167E+01 -0.83086468995E+02  0.91273627605E+02  0.00000000000E+00 0. -1.
         11    1    4    4    0    0  0.51581445800E+02 -0.34605821016E+01 -0.75042704213E+02  0.91126443116E+02  0.00000000000E+00 0.  1.
        -13    1    3    3    0    0 -0.25945146963E+02 -0.39378948790E+02  0.10778066604E+02  0.48373742655E+02  0.00000000000E+00 0. -1.
         13    1    3    3    0    0  0.37754660821E+02  0.14503274603E+02  0.53248782106E+02  0.66866973789E+02  0.00000000000E+00 0.  1.
         21    1    1    2  502  501  0.61157944766E+01  0.25115196442E+02  0.20838351032E+02  0.33202603937E+02  0.00000000000E+00 0.  1.
         21    1    1    2  503  502 -0.32969191153E+02  0.12839804963E+02 -0.14040583140E+03  0.14479511610E+03  0.00000000000E+00 0. -1.
<scales pt_clust_5="13000.00000" pt_clust_6="13000.00000" pt_clust_7="13000.00000" pt_clust_8="13000.00000" pt_clust_9="25.84910" pt_clust_10="35.45741"></scales>
<clustering>
<clus scale="   25.849">  1  9  2 -1</clus>
<clus scale="   35.457">  2 10  1 -1</clus>
<clus scale="   88.699">  5  6 -1 -1</clus>
<clus scale="   89.519">  2  5  1 -1</clus>
<clus scale="   91.775">  7  8 -1 -1</clus>
<clus scale="   35.457">  2  5  1 -1</clus>
</clustering>
</event>
<event>
10    2  0.1133532E-006  0.1219597E+03  0.7546771E-02  0.1240727E+00
         -1   -1    0    0    0  501 -0.00000000000E+00  0.00000000000E+00  0.43380133165E+02  0.43380133165E+02  0.00000000000E+00 0.  1.
          1   -1    0    0  503    0  0.00000000000E+00 -0.00000000000E+00 -0.70473190351E+03  0.70473190351E+03  0.00000000000E+00 0. -1.
         23    2    1    2    0    0 -0.62181545220E+02 -0.54584153834E+02 -0.21395110371E+03  0.24558896746E+03  0.87709131472E+02 0.  0.
         23    2    1    2    0    0  0.72231223086E+02  0.50577499242E+02 -0.34939267081E+03  0.37153088619E+03  0.90468380960E+02 0.  0.
        -11    1    4    4    0    0  0.93468353814E+02  0.34940599757E+02 -0.28401013269E+03  0.30102978947E+03  0.00000000000E+00 0.  1.
         11    1    4    4    0    0 -0.21237130727E+02  0.15636899485E+02 -0.65382538121E+02  0.70501096716E+02  0.00000000000E+00 0. -1.
        -13    1    3    3    0    0 -0.42954481435E+02  0.10734152246E+02 -0.13095203641E+03  0.13823438552E+03  0.00000000000E+00 0. -1.
         13    1    3    3    0    0 -0.19227063785E+02 -0.65318306081E+02 -0.82999067297E+02  0.10735458194E+03  0.00000000000E+00 0.  1.
         21    1    1    2  502  501 -0.15734363875E+01  0.23278983781E+02  0.66310334819E+01  0.24256079506E+02  0.00000000000E+00 0.  1.
         21    1    1    2  503  502 -0.84762414785E+01 -0.19272329189E+02 -0.10463902931E+03  0.10673610353E+03  0.00000000000E+00 0.  1.
<scales pt_clust_5="13000.00000" pt_clust_6="13000.00000" pt_clust_7="13000.00000" pt_clust_8="13000.00000" pt_clust_9="23.05808" pt_clust_10="21.05396"></scales>
<clustering>
<clus scale="   21.054">  2 10  1 -1</clus>
<clus scale="   23.058">  1  9  2 -1</clus>
<clus scale="   87.709">  7  8 -1 -1</clus>
<clus scale="   90.468">  5  6 -1 -1</clus>
<clus scale="  119.927">  1  7  2 -1</clus>
<clus scale="   21.054">  2  5  1 -1</clus>
</clustering>
</event>
<event>
10    2  0.1133532E-006  0.9192711E+02  0.7546771E-02  0.1298276E+00
         -1   -1    0    0    0  501 -0.00000000000E+00  0.00000000000E+00  0.34206386816E+02  0.34206386816E+02  0.00000000000E+00 0.  1.
          1   -1    0    0  503    0  0.00000000000E+00 -0.00000000000E+00 -0.10119341139E+04  0.10119341139E+04  0.00000000000E+00 0. -1.
         23    2    1    2    0    0 -0.12686754441E+01  0.47658775964E+02 -0.15867707822E+03  0.18932564836E+03  0.91612321830E+02 0.  0.
         23    2    1    2    0    0 -0.89961377725E+01  0.39607148262E+02 -0.25489212950E+03  0.27386956614E+03  0.91569017063E+02 0.  0.
        -11    1    4    4    0    0 -0.38718482242E+02  0.36889375750E+02 -0.78594477587E+02  0.95063341081E+02  0.00000000000E+00 0.  1.
         11    1    4    4    0    0  0.29722344469E+02  0.27177725123E+01 -0.17629765192E+03  0.17880622506E+03  0.00000000000E+00 0. -1.
        -13    1    3    3    0    0  0.30356336405E+01  0.73710845844E+02 -0.94192077541E+02  0.11964385207E+03  0.00000000000E+00 0.  1.
         13    1    3    3    0    0 -0.43043090846E+01 -0.26052069880E+02 -0.64485000679E+02  0.69681796291E+02  0.00000000000E+00 0. -1.
         21    1    1    2  502  501 -0.29700199449E+02 -0.24254243527E+02 -0.48070250159E+02  0.61490805221E+02  0.00000000000E+00 0.  1.
         21    1    1    2  503  502  0.39965012666E+02 -0.63011680699E+02 -0.51608826921E+03  0.52145448101E+03  0.00000000000E+00 0. -1.
<scales pt_clust_5="13000.00000" pt_clust_6="13000.00000" pt_clust_7="13000.00000" pt_clust_8="13000.00000" pt_clust_9="38.34541" pt_clust_10="75.15511"></scales>
<clustering>
<clus scale="   38.345">  1  9  2 -1</clus>
<clus scale="   75.155">  2 10  1 -1</clus>
<clus scale="   91.569">  5  6 -1 -1</clus>
<clus scale="   91.612">  7  8 -1 -1</clus>
<clus scale="   91.884">  2  5  1 -1</clus>
<clus scale="   75.155">  2  5  1 -1</clus>
</clustering>
</event>
<event>
10    2  0.1133532E-006  0.1587676E+03  0.7546771E-02  0.1190173E+00
         -1   -1    0    0    0  501 -0.00000000000E+00  0.00000000000E+00  0.17076880847E+03  0.17076880847E+03  0.00000000000E+00 0.  1.
          1   -1    0    0  503    0  0.00000000000E+00 -0.00000000000E+00 -0.45437168706E+03  0.45437168706E+03  0.00000000000E+00 0. -1.
         23    2    1    2    0    0 -0.75728009668E+02  0.64431155660E+02 -0.69825768594E+02  0.15281420889E+03  0.92684622309E+02 0.  0.
         23    2    1    2    0    0  0.11263022753E+03 -0.13468830396E+03 -0.16476622979E+03  0.25783364251E+03  0.92215884493E+02 0.  0.
        -11    1    4    4    0    0  0.75257843560E+02 -0.10462857025E+03 -0.59090611089E+02  0.14178357115E+03  0.00000000000E+00 0.  1.
         11    1    4    4    0    0  0.37372383971E+02 -0.30059733718E+02 -0.10567561871E+03  0.11605007136E+03  0.00000000000E+00 0. -1.
        -13    1    3    3    0    0 -0.30982967578E+02 -0.51715746966E+01 -0.62246662023E+02  0.69723284474E+02  0.00000000000E+00 0. -1.
         13    1    3    3    0    0 -0.44745042090E+02  0.69602730357E+02 -0.75791065704E+01  0.83090924421E+02  0.00000000000E+00 0.  1.
         21    1    1    2  502  501  0.35362958408E+01  0.23257926001E+02  0.73506993140E+02  0.77179754798E+02  0.00000000000E+00 0.  1.
         21    1    1    2  503  502 -0.40438513704E+02  0.46999222302E+02 -0.12251787334E+03  0.13731288932E+03  0.00000000000E+00 0. -1.
<scales pt_clust_5="13000.00000" pt_clust_6="13000.00000" pt_clust_7="13000.00000" pt_clust_8="13000.00000" pt_clust_9="23.52523" pt_clust_10="63.20469"></scales>
<clustering>
<clus scale="   23.525">  1  9  2 -1</clus>
<clus scale="   63.205">  2 10  1 -1</clus>
<clus scale="   92.216">  5  6 -1 -1</clus>
<clus scale="   92.685">  7  8 -1 -1</clus>
<clus scale="  158.494">  2  5  1 -1</clus>
<clus scale="   63.205">  2  5  1 -1</clus>
</clustering>
</event>
<event>
10    2  0.1133532E-006  0.9275988E+02  0.7546771E-02  0.1297641E+00
         -2   -1    0    0    0  501 -0.00000000000E+00  0.00000000000E+00  0.61306484702E+02  0.61306484702E+02  0.00000000000E+00 0.  1.
          2   -1    0    0  503    0  0.00000000000E+00 -0.00000000000E+00 -0.35718762564E+03  0.35718762564E+03  0.00000000000E+00 0. -1.
         23    2    1    2    0    0 -0.21426153894E+02 -0.23750371251E+02 -0.45140885353E+02  0.10580540166E+03  0.90188265784E+02 0.  0.
         23    2    1    2    0    0  0.50933271665E+00 -0.31066188586E+02 -0.15760647917E+03  0.18535195219E+03  0.92467163967E+02 0.  0.
        -11    1    3    3    0    0 -0.55403854449E+02 -0.88802912411E+01 -0.38696448738E+02  0.68160559016E+02  0.00000000000E+00 0.  1.
         11    1    3    3    0    0  0.33977700556E+02 -0.14870080010E+02 -0.64444366151E+01  0.37644842646E+02  0.00000000000E+00 0. -1.
        -13    1    4    4    0    0 -0.44047625394E+02 -0.26332969458E+02 -0.68259643580E+02  0.85399048736E+02  0.00000000000E+00 0.  1.
         13    1    4    4    0    0  0.44556958111E+02 -0.47332191272E+01 -0.89346835587E+02  0.99952903454E+02  0.00000000000E+00 0. -1.
         21    1    1    2  502  501  0.23406825378E+02  0.12237778141E+02 -0.17276661216E+01  0.26469369436E+02  0.00000000000E+00 0.  1.
         21    1    1    2  503  502 -0.24900042008E+01  0.42578781696E+02 -0.91406110297E+02  0.10086738705E+03  0.00000000000E+00 0. -1.
<scales pt_clust_5="13000.00000" pt_clust_6="13000.00000" pt_clust_7="13000.00000" pt_clust_8="13000.00000" pt_clust_9="26.41293" pt_clust_10="43.76241"></scales>
<clustering>
<clus scale="   26.413">  1  9  2 -1</clus>
<clus scale="   43.762">  2 10  1 -1</clus>
<clus scale="   90.188">  5  6 -1 -1</clus>
<clus scale="   90.488">  1  5  2 -1</clus>
<clus scale="   92.467">  7  8 -1 -1</clus>
<clus scale="   43.762">  2  5  1 -1</clus>
</clustering>
</event>
<event>
10    2  0.1133532E-006  0.9999456E+02  0.7546771E-02  0.1281241E+00
          1   -1    0    0  503    0  0.00000000000E+00  0.00000000000E+00  0.32494964979E+03  0.32494964979E+03  0.00000000000E+00 0. -1.
         -1   -1    0    0    0  501 -0.00000000000E+00 -0.00000000000E+00 -0.14585070334E+03  0.14585070334E+03  0.00000000000E+00 0.  1.
         23    2    1    2    0    0  0.24564902182E+02  0.22030906814E+02  0.37848874859E+02  0.10767202962E+03  0.95246697377E+02 0.  0.
         23    2    1    2    0    0 -0.31778507503E+02  0.47253091748E+02  0.66312399001E+02  0.12791976742E+03  0.93399167104E+02 0.  0.
        -13    1    4    4    0    0  0.19229280216E+02  0.37441039730E+02 -0.19577311573E+01  0.42135844420E+02  0.00000000000E+00 0.  1.
         13    1    4    4    0    0 -0.51007787719E+02  0.98120520181E+01  0.68270130158E+02  0.85783922996E+02  0.00000000000E+00 0. -1.
        -13    1    3    3    0    0  0.36483608398E+02 -0.54435535138E+01 -0.20416427474E+02  0.42160603262E+02  0.00000000000E+00 0.  1.
         13    1    3    3    0    0 -0.11918706216E+02  0.27474460328E+02  0.58265302333E+02  0.65511426363E+02  0.00000000000E+00 0. -1.
         21    1    1    2  502  501 -0.97617821940E+01 -0.55749149017E+02 -0.69226964204E+02  0.89418301150E+02  0.00000000000E+00 0.  1.
         21    1    1    2  503  502  0.16975387516E+02 -0.13534849546E+02  0.14416463679E+03  0.14579025494E+03  0.00000000000E+00 0. -1.
<scales pt_clust_5="13000.00000" pt_clust_6="13000.00000" pt_clust_7="13000.00000" pt_clust_8="13000.00000" pt_clust_9="57.19097" pt_clust_10="21.71073"></scales>
<clustering>
<clus scale="   21.711">  1 10  2 -1</clus>
<clus scale="   57.191">  2  9  1 -1</clus>
<clus scale="   93.399">  5  6 -1 -1</clus>
<clus scale="   95.247">  7  8 -1 -1</clus>
<clus scale="   98.236">  1  5  2 -1</clus>
<clus scale="   21.711">  1  5  2 -1</clus>
</clustering>
</event>
<event>
10    2  0.1133532E-006  0.1339591E+03  0.7546771E-02  0.1240943E+00
         -4   -1    0    0    0  501 -0.00000000000E+00  0.00000000000E+00  0.70564407216E+02  0.70564407216E+02  0.00000000000E+00 0.  1.
          4   -1    0    0  503    0  0.00000000000E+00 -0.00000000000E+00 -0.68036433409E+03  0.68036433409E+03  0.00000000000E+00 0. -1.
         23    2    1    2    0    0 -0.10631375093E+02 -0.11861691771E+02 -0.93621003265E+02  0.12961610830E+03  0.88214043152E+02 0.  0.
         23    2    1    2    0    0  0.59413372725E+02  0.72884032544E+02 -0.26133929627E+03  0.29273631154E+03  0.92489400803E+02 0.  0.
        -11    1    4    4    0    0  0.64049262663E+02  0.36496925264E+02 -0.23824787890E+03  0.24939203155E+03  0.00000000000E+00 0. -1.
         11    1    4    4    0    0 -0.46358899380E+01  0.36387107280E+02 -0.23091417375E+02  0.43344279993E+02  0.00000000000E+00 0.  1.
        -11    1    3    3    0    0 -0.32775841762E+02  0.25135254357E+02 -0.24133246716E+02  0.47837750907E+02  0.00000000000E+00 0.  1.
         11    1    3    3    0    0  0.22144466669E+02 -0.36996946127E+02 -0.69487756550E+02  0.81778357388E+02  0.00000000000E+00 0. -1.
         21    1    1    2  502  501 -0.87977194641E+02 -0.34744477468E+02 -0.30586050532E+02  0.99411628990E+02  0.00000000000E+00 0.  1.
         21    1    1    2  503  502  0.39195197009E+02 -0.26277863305E+02 -0.22425357681E+03  0.22916469248E+03  0.00000000000E+00 0.  1.
<scales pt_clust_5="13000.00000" pt_clust_6="13000.00000" pt_clust_7="13000.00000" pt_clust_8="13000.00000" pt_clust_9="96.90590" pt_clust_10="47.18887"></scales>
<clustering>
<clus scale="   47.189">  2 10  1 -1</clus>
<clus scale="   88.214">  7  8 -1 -1</clus>
<clus scale="   90.103">  1  7  2 -1</clus>
<clus scale="   92.489">  5  6 -1 -1</clus>
<clus scale="   96.906">  1  9  2 -1</clus>
<clus scale="   47.189">  2  5  1 -1</clus>
</clustering>
</event>
<event>
10    2  0.1133532E-006  0.9669963E+02  0.7546771E-02  0.1289567E+00
         -1   -1    0    0    0  501 -0.00000000000E+00  0.00000000000E+00  0.27962149698E+03  0.27962149698E+03  0.00000000000E+00 0.  1.
          1   -1    0    0  503    0  0.00000000000E+00 -0.00000000000E+00 -0.11612540488E+03  0.11612540488E+03  0.00000000000E+00 0. -1.
         23    2    1    2    0    0 -0.12610763886E+02  0.16565843933E+02  0.19126524989E+03  0.21370862729E+03  0.93035063337E+02 0.  0.
         23    2    1    2    0    0  0.22233741478E+02 -0.21413698193E+02  0.11256567786E+02  0.94880261615E+02  0.89009370267E+02 0.  0.
        -11    1    3    3    0    0 -0.50486802655E+01  0.44519059975E+02  0.41176357778E+02  0.60851691130E+02  0.00000000000E+00 0.  1.
         11    1    3    3    0    0 -0.75620836208E+01 -0.27953216042E+02  0.15008889211E+03  0.15285693616E+03  0.00000000000E+00 0. -1.
        -11    1    4    4    0    0  0.11271453761E+02  0.26604599232E+02  0.30488707405E+02  0.42004900303E+02  0.00000000000E+00 0.  1.
         11    1    4    4    0    0  0.10962287718E+02 -0.48018297425E+02 -0.19232139619E+02  0.52875361312E+02  0.00000000000E+00 0. -1.
         21    1    1    2  502  501  0.17202593730E+02  0.15059480705E+02  0.14037826238E+02  0.26828674131E+02  0.00000000000E+00 0.  1.
         21    1    1    2  503  502 -0.26825571323E+02 -0.10211626445E+02 -0.53063551821E+02  0.60329338827E+02  0.00000000000E+00 0. -1.
<scales pt_clust_5="13000.00000" pt_clust_6="13000.00000" pt_clust_7="13000.00000" pt_clust_8="13000.00000" pt_clust_9="22.86301" pt_clust_10="28.40324"></scales>
<clustering>
<clus scale="   22.863">  1  9  2 -1</clus>
<clus scale="   28.403">  2 10  1 -1</clus>
<clus scale="   89.009">  7  8 -1 -1</clus>
<clus scale="   92.833">  2  7  1 -1</clus>
<clus scale="   93.035">  5  6 -1 -1</clus>
<clus scale="   28.403">  2  5  1 -1</clus>
</clustering>
</event>
<event>
10    2  0.1133532E-006  0.1789213E+03  0.7546771E-02  0.1169145E+00
          1   -1    0    0  503    0  0.00000000000E+00  0.00000000000E+00  0.19610935879E+04  0.19610935879E+04  0.00000000000E+00 0. -1.
         -1   -1    0    0    0  501 -0.00000000000E+00 -0.00000000000E+00 -0.36300280491E+02  0.36300280491E+02  0.00000000000E+00 0.  1.
         23    2    1    2    0    0 -0.93399577251E+02 -0.50648675368E+02  0.47214849032E+03  0.49178540895E+03  0.87406648431E+02 0.  0.
         23    2    1    2    0    0  0.20257465998E+03  0.98266378782E+02  0.77524299747E+03  0.81225743088E+03  0.89820124907E+02 0.  0.
        -11    1    4    4    0    0  0.15049022057E+03  0.77114143629E+02  0.68796637054E+03  0.70844309907E+03  0.00000000000E+00 0. -1.
         11    1    4    4    0    0  0.52084439414E+02  0.21152235154E+02  0.87276626930E+02  0.10381433181E+03  0.00000000000E+00 0.  1.
        -13    1    3    3    0    0 -0.94622076749E+02 -0.10376347919E+02  0.28957856383E+03  0.30482249037E+03  0.00000000000E+00 0.  1.
         13    1    3    3    0    0  0.12224994985E+01 -0.40272327448E+02  0.18256992649E+03  0.18696291857E+03  0.00000000000E+00 0. -1.
         21    1    1    2  502  501 -0.10301684697E+02 -0.22330975126E+02  0.34320002429E+02  0.42221555210E+02  0.00000000000E+00 0.  1.
         21    1    1    2  503  502 -0.98873398036E+02 -0.25286728289E+02  0.64308181714E+03  0.65112947331E+03  0.00000000000E+00 0.  1.
<scales pt_clust_5="13000.00000" pt_clust_6="13000.00000" pt_clust_7="13000.00000" pt_clust_8="13000.00000" pt_clust_9="24.59262" pt_clust_10="104.01246"></scales>
<clustering>
<clus scale="   24.593">  2  9  1 -1</clus>
<clus scale="   87.407">  7  8 -1 -1</clus>
<clus scale="   89.820">  5  6 -1 -1</clus>
<clus scale="  104.012">  1 10  2 -1</clus>
<clus scale="  177.722">  2  7  1 -1</clus>
<clus scale="  104.012">  1  5  2 -1</clus>
</clustering>
</event>
<event>
10    2  0.1133532E-006  0.1346634E+03  0.7546771E-02  0.1230277E+00
         -1   -1    0    0    0  501 -0.00000000000E+00  0.00000000000E+00  0.48417506403E+02  0.48417506403E+02  0.00000000000E+00 0.  1.
          1   -1    0    0  503    0  0.00000000000E+00 -0.00000000000E+00 -0.98970245756E+03  0.98970245756E+03  0.00000000000E+00 0. -1.
         23    2    1    2    0    0 -0.55943867846E+02  0.46922145881E+02 -0.28232803303E+03  0.30574894013E+03  0.91879769418E+02 0.  0.
         23    2    1    2    0    0 -0.49427905815E+02  0.16571525332E+02 -0.40911188865E+03  0.42354737575E+03  0.96447440289E+02 0.  0.
        -13    1    4    4    0    0 -0.14732115131E+02 -0.40005400996E+02 -0.13830490811E+03  0.14472634499E+03  0.00000000000E+00 0. -1.
         13    1    4    4    0    0 -0.34695790684E+02  0.56576926328E+02 -0.27080698054E+03  0.27882103076E+03  0.00000000000E+00 0.  1.
        -13    1    3    3    0    0  0.24012658494E+02  0.39617684018E+01 -0.87384735577E+02  0.90710503188E+02  0.00000000000E+00 0. -1.
         13    1    3    3    0    0 -0.79956526341E+02  0.42960377479E+02 -0.19494329746E+03  0.21503843694E+03  0.00000000000E+00 0.  1.
         21    1    1    2  502  501 -0.17238016281E+02 -0.42052829776E+02 -0.25116342465E+02  0.51927067665E+02  0.00000000000E+00 0.  1.
         21    1    1    2  503  502  0.12260978994E+03 -0.21440841438E+02 -0.22472868701E+03  0.25689658043E+03  0.00000000000E+00 0. -1.
<scales pt_clust_5="13000.00000" pt_clust_6="13000.00000" pt_clust_7="13000.00000" pt_clust_8="13000.00000" pt_clust_9="45.44876" pt_clust_10="98.44963"></scales>
<clustering>
<clus scale="   45.449">  1  9  2 -1</clus>
<clus scale="   91.880">  7  8 -1 -1</clus>
<clus scale="   96.447">  5  6 -1 -1</clus>
<clus scale="  110.325">  2  5  1 -1</clus>
<clus scale="   98.450">  2 10  1 -1</clus>
<clus scale="  110.325">  2  5  1 -1</clus>
</clustering>
</event>
<event>
10    2  0.1133532E-006  0.1748421E+03  0.7546771E-02  0.1175497E+00
          2   -1    0    0  503    0  0.00000000000E+00  0.00000000000E+00  0.11757315463E+04  0.11757315463E+04  0.00000000000E+00 0. -1.
         -2   -1    0    0    0  501 -0.00000000000E+00 -0.00000000000E+00 -0.14534444215E+03  0.14534444215E+03  0.00000000000E+00 0.  1.
         23    2    1    2    0    0 -0.15489148514E+03  0.14489128163E+03  0.83965949521E+02  0.24198749550E+03  0.80763925343E+02 0.  0.
         23    2    1    2    0    0  0.64306225792E+02 -0.10726512783E+02  0.36723640238E+03  0.38606873576E+03  0.99680212418E+02 0.  0.
        -11    1    3    3    0    0 -0.13041135261E+03  0.10600802583E+03  0.29334657520E+02  0.17060288556E+03  0.00000000000E+00 0.  1.
         11    1    3    3    0    0 -0.24480132536E+02  0.38883255798E+02  0.54631292001E+02  0.71384609939E+02  0.00000000000E+00 0. -1.
        -13    1    4    4    0    0  0.18268779841E+02 -0.51836112524E+02  0.21210258315E+03  0.21910781971E+03  0.00000000000E+00 0.  1.
         13    1    4    4    0    0  0.46037445951E+02  0.41109599741E+02  0.15513381923E+03  0.16696091605E+03  0.00000000000E+00 0. -1.
         21    1    1    2  502  501  0.33472145202E+02 -0.37802196209E+02 -0.39606023590E+02  0.64171860245E+02  0.00000000000E+00 0.  1.
         21    1    1    2  503  502  0.57113114150E+02 -0.96362572639E+02  0.61879077580E+03  0.62884789690E+03  0.00000000000E+00 0. -1.
<scales pt_clust_5="13000.00000" pt_clust_6="13000.00000" pt_clust_7="13000.00000" pt_clust_8="13000.00000" pt_clust_9="50.49149" pt_clust_10="114.68551"></scales>
<clustering>
<clus scale="   50.491">  2  9  1 -1</clus>
<clus scale="   80.764">  5  6 -1 -1</clus>
<clus scale="   99.680">  7  8 -1 -1</clus>
<clus scale="  114.686">  1 10  2 -1</clus>
<clus scale="  164.792">  2  5  1 -1</clus>
<clus scale="  114.686">  1  5  2 -1</clus>
</clustering>
</event>
<event>
10    2  0.1133532E-006  0.1197642E+03  0.7546771E-02  0.1246074E+00
         -2   -1    0    0    0  501 -0.00000000000E+00  0.00000000000E+00  0.23481589085E+03  0.23481589085E+03  0.00000000000E+00 0.  1.
          2   -1    0    0  503    0  0.00000000000E+00 -0.00000000000E+00 -0.44206786702E+03  0.44206786702E+03  0.00000000000E+00 0. -1.
         23    2    1    2    0    0  0.77061496481E+02 -0.69418138409E+02  0.11141479710E+03  0.17808819030E+03  0.92438056713E+02 0.  0.
         23    2    1    2    0    0  0.87955808200E+01  0.32344441369E+02 -0.77115225730E+02  0.13052061141E+03  0.99826583800E+02 0.  0.
        -11    1    4    4    0    0  0.32242369096E+01  0.68494259686E+02 -0.46861005463E+02  0.83053074275E+02  0.00000000000E+00 0. -1.
         11    1    4    4    0    0  0.55713439105E+01 -0.36149818317E+02 -0.30254220268E+02  0.47467537132E+02  0.00000000000E+00 0.  1.
        -11    1    3    3    0    0  0.83187593165E+02 -0.20460273921E+02  0.90148517047E+02  0.12436057893E+03  0.00000000000E+00 0.  1.
         11    1    3    3    0    0 -0.61260966844E+01 -0.48957864488E+02  0.21266280057E+02  0.53727611367E+02  0.00000000000E+00 0. -1.
         21    1    1    2  502  501 -0.30712512227E+02  0.13062943584E+02  0.55735857060E+02  0.64964487719E+02  0.00000000000E+00 0. -1.
         21    1    1    2  503  502 -0.55144565074E+02  0.24010753456E+02 -0.29728740460E+03  0.30331046846E+03  0.00000000000E+00 0. -1.
<scales pt_clust_5="13000.00000" pt_clust_6="13000.00000" pt_clust_7="13000.00000" pt_clust_8="13000.00000" pt_clust_9="33.37512" pt_clust_10="60.72123"></scales>
<clustering>
<clus scale="   33.375">  1  9  2 -1</clus>
<clus scale="   60.721">  2 10  1 -1</clus>
<clus scale="   92.438">  7  8 -1 -1</clus>
<clus scale="   99.827">  5  6 -1 -1</clus>
<clus scale="  113.679">  1  7  2 -1</clus>
<clus scale="   60.721">  2  5  1 -1</clus>
</clustering>
</event>
<event>
10    2  0.1133532E-006  0.2364282E+03  0.7546771E-02  0.1122411E+00
         -2   -1    0    0    0  501 -0.00000000000E+00  0.00000000000E+00  0.30970741304E+03  0.30970741304E+03  0.00000000000E+00 0.  1.
          2   -1    0    0  503    0  0.00000000000E+00 -0.00000000000E+00 -0.29644440822E+03  0.29644440822E+03  0.00000000000E+00 0. -1.
         23    2    1    2    0    0 -0.17638883064E+03 -0.78492678875E+02  0.12271401350E+03  0.24608493681E+03  0.90691492472E+02 0.  0.
         23    2    1    2    0    0  0.20737500885E+03  0.64265923796E+02 -0.13466256960E+03  0.26999416372E+03  0.87340354550E+02 0.  0.
        -11    1    3    3    0    0 -0.37857479261E+02 -0.55788307407E+02  0.14813783342E+02  0.69028777740E+02  0.00000000000E+00 0. -1.
         11    1    3    3    0    0 -0.13853135138E+03 -0.22704371468E+02  0.10790023016E+03  0.17705615907E+03  0.00000000000E+00 0.  1.
        -11    1    4    4    0    0  0.80752671136E+02  0.56155589493E+01 -0.76634819804E+01  0.81309638752E+02  0.00000000000E+00 0.  1.
         11    1    4    4    0    0  0.12662233772E+03  0.58650364847E+02 -0.12699908762E+03  0.18868452497E+03  0.00000000000E+00 0. -1.
         21    1    1    2  502  501 -0.49288650198E+02  0.49373007458E+01  0.40900252326E+02  0.64238451237E+02  0.00000000000E+00 0.  1.
         21    1    1    2  503  502  0.18302471981E+02  0.92894543328E+01 -0.15688691396E+02  0.25834269491E+02  0.00000000000E+00 0.  1.
<scales pt_clust_5="13000.00000" pt_clust_6="13000.00000" pt_clust_7="13000.00000" pt_clust_8="13000.00000" pt_clust_9="48.80591" pt_clust_10="20.52497"></scales>
<clustering>
<clus scale="   20.525">  2 10  1 -1</clus>
<clus scale="   48.806">  1  9  2 -1</clus>
<clus scale="   87.340">  7  8 -1 -1</clus>
<clus scale="   90.691">  5  6 -1 -1</clus>
<clus scale="  235.163">  2  7  1 -1</clus>
<clus scale="   20.525">  2  5  1 -1</clus>
</clustering>
</event>
<event>
10    2  0.1133532E-006  0.1042970E+03  0.7546771E-02  0.1272319E+00
          1   -1    0    0  503    0  0.00000000000E+00  0.00000000000E+00  0.17188750902E+03  0.17188750902E+03  0.00000000000E+00 0. -1.
         -1   -1    0    0    0  501 -0.00000000000E+00 -0.00000000000E+00 -0.26484247078E+03  0.26484247078E+03  0.00000000000E+00 0.  1.
         23    2    1    2    0    0  0.29863347278E+01 -0.38772499007E+02 -0.60475785428E+02  0.11585954262E+03  0.90850911488E+02 0.  0.
         23    2    1    2    0    0 -0.57504788666E+02  0.51700367473E+02  0.75069504776E+02  0.14213583921E+03  0.92668427866E+02 0.  0.
        -11    1    4    4    0    0 -0.28572582211E+02  0.57004087791E+02  0.24789971204E+01  0.63812255138E+02  0.00000000000E+00 0.  1.
         11    1    4    4    0    0 -0.28932206455E+02 -0.53037203177E+01  0.72590507655E+02  0.78323584068E+02  0.00000000000E+00 0. -1.
        -13    1    3    3    0    0  0.37927084303E+02 -0.52508619523E+01  0.12640421629E+00  0.38289048734E+02  0.00000000000E+00 0.  1.
         13    1    3    3    0    0 -0.34940749575E+02 -0.33521637055E+02 -0.60602189644E+02  0.77570493884E+02  0.00000000000E+00 0. -1.
         21    1    1    2  502  501  0.43938846903E+02  0.22683917506E+02 -0.12736676623E+03  0.13662897028E+03  0.00000000000E+00 0.  1.
         21    1    1    2  503  502  0.10579607036E+02 -0.35611785972E+02  0.19818085127E+02  0.42105627691E+02  0.00000000000E+00 0.  1.
<scales pt_clust_5="13000.00000" pt_clust_6="13000.00000" pt_clust_7="13000.00000" pt_clust_8="13000.00000" pt_clust_9="49.23548" pt_clust_10="37.15007"></scales>
<clustering>
<clus scale="   37.150">  1 10  2 -1</clus>
<clus scale="   49.235">  2  9  1 -1</clus>
<clus scale="   90.851">  7  8 -1 -1</clus>
<clus scale="   92.668">  5  6 -1 -1</clus>
<clus scale="  102.685">  2  7  1 -1</clus>
<clus scale="   37.150">  1  5  2 -1</clus>
</clustering>
</event>
<event>
10    2  0.1133532E-006  0.9355914E+02  0.7546771E-02  0.1295084E+00
         -1   -1    0    0    0  501 -0.00000000000E+00  0.00000000000E+00  0.15485634545E+03  0.15485634545E+03  0.00000000000E+00 0.  1.
          1   -1    0    0  503    0  0.00000000000E+00 -0.00000000000E+00 -0.28245413314E+03  0.28245413314E+03  0.00000000000E+00 0. -1.
         23    2    1    2    0    0  0.11838956932E+02  0.39637136951E+02  0.51411794339E+02  0.11241323431E+03  0.91007137760E+02 0.  0.
         23    2    1    2    0    0  0.18812848257E+02  0.58452527023E+01 -0.16531295702E+01  0.92036421328E+02  0.89888151471E+02 0.  0.
        -11    1    4    4    0    0  0.47229634209E+02  0.28569174133E+02  0.33956827242E+01  0.55302501926E+02  0.00000000000E+00 0.  1.
         11    1    4    4    0    0 -0.28416785953E+02 -0.22723921430E+02 -0.50488122944E+01  0.36733919402E+02  0.00000000000E+00 0. -1.
        -11    1    3    3    0    0  0.44692583453E+02 -0.12974087055E+01  0.36857461400E+02  0.57944652436E+02  0.00000000000E+00 0.  1.
         11    1    3    3    0    0 -0.32853626522E+02  0.40934545657E+02  0.14554332939E+02  0.54468581871E+02  0.00000000000E+00 0. -1.
         21    1    1    2  502  501  0.10531132861E+02 -0.50599019360E+02 -0.10058724642E+01  0.51693106881E+02  0.00000000000E+00 0.  1.
         21    1    1    2  503  502 -0.41182938049E+02  0.51166297066E+01 -0.17635057999E+03  0.18116771608E+03  0.00000000000E+00 0. -1.
<scales pt_clust_5="13000.00000" pt_clust_6="13000.00000" pt_clust_7="13000.00000" pt_clust_8="13000.00000" pt_clust_9="49.29890" pt_clust_10="41.49957"></scales>
<clustering>
<clus scale="   41.500">  2 10  1 -1</clus>
<clus scale="   49.299">  2  9  1 -1</clus>
<clus scale="   89.888">  5  6 -1 -1</clus>
<clus scale="   91.007">  7  8 -1 -1</clus>
<clus scale="   92.471">  2  5  1 -1</clus>
<clus scale="   41.500">  2  5  1 -1</clus>
</clustering>
</event>
<event>
10    2  0.1186739E-006  0.1107324E+03  0.7546771E-02  0.1263802E+00
          2   -1    0    0  503    0  0.00000000000E+00  0.00000000000E+00  0.69647803814E+03  0.69647803814E+03  0.00000000000E+00 0. -1.
         -2   -1    0    0    0  501 -0.00000000000E+00 -0.00000000000E+00 -0.12320354310E+03  0.12320354310E+03  0.00000000000E+00 0.  1.
         23    2    1    2    0    0 -0.27021047619E+02  0.56590412933E+02 -0.63145527379E+02  0.12256651284E+03  0.84276809338E+02 0.  0.
         23    2    1    2    0    0  0.10865446713E+03  0.81968557719E+01  0.28178998037E+03  0.31685650955E+03  0.95495931498E+02 0.  0.
        -11    1    4    4    0    0  0.11731190088E+03  0.29836508778E+02  0.22556060688E+03  0.25598805972E+03  0.00000000000E+00 0. -1.
         11    1    4    4    0    0 -0.86574337426E+01 -0.21639653006E+02  0.56229373490E+02  0.60868449827E+02  0.00000000000E+00 0.  1.
        -13    1    3    3    0    0  0.70908950178E+00  0.67250094564E+02 -0.64009512146E+02  0.92845547400E+02  0.00000000000E+00 0.  1.
         13    1    3    3    0    0 -0.27730137121E+02 -0.10659681631E+02  0.86398476684E+00  0.29720965444E+02  0.00000000000E+00 0. -1.
         21    1    1    2  502  501 -0.87866625236E+01 -0.18207050010E+02  0.60319994482E+01  0.21097088086E+02  0.00000000000E+00 0.  1.
         21    1    1    2  503  502 -0.72846756990E+02 -0.46580218695E+02  0.34859804260E+03  0.35916147077E+03  0.00000000000E+00 0. -1.
<scales pt_clust_5="13000.00000" pt_clust_6="13000.00000" pt_clust_7="13000.00000" pt_clust_8="13000.00000" pt_clust_9="20.21638" pt_clust_10="87.25321"></scales>
<clustering>
<clus scale="   20.216">  2  9  1 -1</clus>
<clus scale="   84.277">  7  8 -1 -1</clus>
<clus scale="   87.253">  1 10  2 -1</clus>
<clus scale="   95.496">  5  6 -1 -1</clus>
<clus scale="  101.216">  2  7  1 -1</clus>
<clus scale="   87.253">  1  5  2 -1</clus>
</clustering>
</event>
<event>
10    2  0.1133532E-006  0.1248429E+03  0.7546771E-02  0.1236148E+00
         -1   -1    0    0    0  501 -0.00000000000E+00  0.00000000000E+00  0.13921045368E+03  0.13921045368E+03  0.00000000000E+00 0.  1.
          1   -1    0    0  503    0  0.00000000000E+00 -0.00000000000E+00 -0.23023978952E+03  0.23023978952E+03  0.00000000000E+00 0. -1.
         23    2    1    2    0    0 -0.52632462323E+02  0.64984526235E+02  0.42505772343E+02  0.12883392262E+03  0.88307837674E+02 0.  0.
         23    2    1    2    0    0  0.38284702924E+02 -0.95042305109E+02 -0.10740753173E+03  0.17422890947E+03  0.91217195657E+02 0.  0.
        -13    1    4    4    0    0 -0.27782911060E+02 -0.44004970996E+02 -0.54682865688E+02  0.75488697294E+02  0.00000000000E+00 0.  1.
         13    1    4    4    0    0  0.66067613984E+02 -0.51037334113E+02 -0.52724666043E+02  0.98740212174E+02  0.00000000000E+00 0. -1.
        -13    1    3    3    0    0 -0.24458979077E+02  0.80770259664E+02  0.46397488710E+02  0.96305781043E+02  0.00000000000E+00 0.  1.
         13    1    3    3    0    0 -0.28173483245E+02 -0.15785733429E+02 -0.38917163665E+01  0.32528141575E+02  0.00000000000E+00 0. -1.
         21    1    1    2  502  501  0.27523808345E+02  0.90797551939E+01  0.18214135015E+01  0.29039964314E+02  0.00000000000E+00 0. -1.
         21    1    1    2  503  502 -0.13176048947E+02  0.20978023681E+02 -0.27948989946E+02  0.37347446799E+02  0.00000000000E+00 0. -1.
<scales pt_clust_5="13000.00000" pt_clust_6="13000.00000" pt_clust_7="13000.00000" pt_clust_8="13000.00000" pt_clust_9="28.62159" pt_clust_10="24.77268"></scales>
<clustering>
<clus scale="   24.773">  2 10  1 -1</clus>
<clus scale="   28.622">  1  9  2 -1</clus>
<clus scale="   88.308">  7  8 -1 -1</clus>
<clus scale="   91.217">  5  6 -1 -1</clus>
<clus scale="  122.733">  1  7  2 -1</clus>
<clus scale="   24.773">  2  5  1 -1</clus>
</clustering>
</event>
<event>
10    2  0.1133532E-006  0.9229163E+02  0.7546771E-02  0.1301916E+00
          1   -1    0    0  503    0  0.00000000000E+00  0.00000000000E+00  0.83405577430E+03  0.83405577430E+03  0.00000000000E+00 0. -1.
         -1   -1    0    0    0  501 -0.00000000000E+00 -0.00000000000E+00 -0.22743376281E+02  0.22743376281E+02  0.00000000000E+00 0.  1.
         23    2    1    2    0    0 -0.18358746533E+02 -0.23799636654E+02  0.22925905075E+03  0.24877127372E+03  0.91782176886E+02 0.  0.
         23    2    1    2    0    0 -0.28103926445E+02 -0.26094886612E+02  0.38992915872E+03  0.40078795940E+03  0.84353220408E+02 0.  0.
        -13    1    4    4    0    0  0.14796292100E+02  0.22743109135E+02  0.13517126909E+03  0.13786751343E+03  0.00000000000E+00 0.  1.
         13    1    4    4    0    0 -0.42900218545E+02 -0.48837995747E+02  0.25475788963E+03  0.26292044597E+03  0.00000000000E+00 0. -1.
        -13    1    3    3    0    0 -0.99567924339E+01  0.35371538207E+02  0.91851223947E+02  0.98928917770E+02  0.00000000000E+00 0.  1.
         13    1    3    3    0    0 -0.84019540993E+01 -0.59171174861E+02  0.13740782681E+03  0.14984235595E+03  0.00000000000E+00 0. -1.
         21    1    1    2  502  501  0.25686555549E+02  0.46904880973E+02  0.10770982335E+03  0.12025503333E+03  0.00000000000E+00 0.  1.
         21    1    1    2  503  502  0.20776117429E+02  0.29896422931E+01  0.84414365199E+02  0.86984884137E+02  0.00000000000E+00 0.  1.
<scales pt_clust_5="13000.00000" pt_clust_6="13000.00000" pt_clust_7="13000.00000" pt_clust_8="13000.00000" pt_clust_9="55.45602" pt_clust_10="20.99012"></scales>
<clustering>
<clus scale="   20.990">  1 10  2 -1</clus>
<clus scale="   55.456">  2  9  1 -1</clus>
<clus scale="   84.353">  5  6 -1 -1</clus>
<clus scale="   84.907">  1  5  2 -1</clus>
<clus scale="   91.782">  7  8 -1 -1</clus>
<clus scale="   20.990">  1  5  2 -1</clus>
</clustering>
</event>
<event>
10    2  0.1133532E-006  0.1212020E+03  0.7546771E-02  0.1241433E+00
          1   -1    0    0  503    0  0.00000000000E+00  0.00000000000E+00  0.34059757285E+03  0.34059757285E+03  0.00000000000E+00 0. -1.
         -1   -1    0    0    0  501 -0.00000000000E+00 -0.00000000000E+00 -0.12096309642E+03  0.12096309642E+03  0.00000000000E+00 0.  1.
         23    2    1    2    0    0  0.72893077229E+01  0.72370951138E+02  0.54279992028E+01  0.11749828052E+03  0.92117827668E+02 0.  0.
         23    2    1    2    0    0  0.37831378530E+02 -0.83377949600E+02  0.93661696324E+02  0.15956302896E+03  0.91130407505E+02 0.  0.
        -11    1    4    4    0    0 -0.13359478471E+02 -0.39298009267E+02  0.80740236635E+02  0.90784332399E+02  0.00000000000E+00 0. -1.
         11    1    4    4    0    0  0.51190857001E+02 -0.44079940333E+02  0.12921459690E+02  0.68778696562E+02  0.00000000000E+00 0.  1.
        -13    1    3    3    0    0 -0.41830891103E+02  0.23067023770E+02  0.28395540794E+01  0.47853673876E+02  0.00000000000E+00 0. -1.
         13    1    3    3    0    0  0.49120198825E+02  0.49303927369E+02  0.25884451234E+01  0.69644606645E+02  0.00000000000E+00 0.  1.
         21    1    1    2  502  501 -0.23524399881E+02  0.38193361242E+01 -0.26536417081E+02  0.35667438227E+02  0.00000000000E+00 0. -1.
         21    1    1    2  503  502 -0.21596286372E+02  0.71876623370E+01  0.14708119799E+03  0.14883192156E+03  0.00000000000E+00 0. -1.
<scales pt_clust_5="13000.00000" pt_clust_6="13000.00000" pt_clust_7="13000.00000" pt_clust_8="13000.00000" pt_clust_9="24.36509" pt_clust_10="22.76098"></scales>
<clustering>
<clus scale="   22.761">  1 10  2 -1</clus>
<clus scale="   24.365">  2  9  1 -1</clus>
<clus scale="   91.130">  5  6 -1 -1</clus>
<clus scale="   92.118">  7  8 -1 -1</clus>
<clus scale="  120.453">  1  5  2 -1</clus>
<clus scale="   22.761">  1  5  2 -1</clus>
</clustering>
</event>
<event>
10    2  0.1133532E-006  0.1051238E+03  0.7546771E-02  0.1270054E+00
         -2   -1    0    0    0  501 -0.00000000000E+00  0.00000000000E+00  0.11239463687E+03  0.11239463687E+03  0.00000000000E+00 0.  1.
          2   -1    0    0  503    0  0.00000000000E+00 -0.00000000000E+00 -0.21104475383E+03  0.21104475383E+03  0.00000000000E+00 0. -1.
         23    2    1    2    0    0 -0.47834113105E+02 -0.65435865691E+01 -0.44051328957E+02  0.11255912138E+03  0.91641231562E+02 0.  0.
         23    2    1    2    0    0  0.40470495942E+02  0.40075928911E+02 -0.76331382825E+02  0.13188168177E+03  0.91226952504E+02 0.  0.
        -11    1    4    4    0    0 -0.24909005345E+02  0.29864958872E+02 -0.15074158874E+02  0.41708567243E+02  0.00000000000E+00 0.  1.
         11    1    4    4    0    0  0.65379501287E+02  0.10210970040E+02 -0.61257223951E+02  0.90173114529E+02  0.00000000000E+00 0. -1.
        -11    1    3    3    0    0  0.26609798820E+02 -0.32860997582E+01 -0.17378919750E+01  0.26868198923E+02  0.00000000000E+00 0. -1.
         11    1    3    3    0    0 -0.74443911925E+02 -0.32574868109E+01 -0.42313436982E+02  0.85690922462E+02  0.00000000000E+00 0.  1.
         21    1    1    2  502  501 -0.13729940363E+02 -0.38618033993E+02  0.34716000150E+02  0.53712796224E+02  0.00000000000E+00 0.  1.
         21    1    1    2  503  502  0.21093557526E+02  0.50856916504E+01 -0.12983405322E+02  0.25285791316E+02  0.00000000000E+00 0.  1.
<scales pt_clust_5="13000.00000" pt_clust_6="13000.00000" pt_clust_7="13000.00000" pt_clust_8="13000.00000" pt_clust_9="40.40925" pt_clust_10="21.69798"></scales>
<clustering>
<clus scale="   21.698">  2 10  1 -1</clus>
<clus scale="   40.409">  1  9  2 -1</clus>
<clus scale="   91.227">  5  6 -1 -1</clus>
<clus scale="   91.641">  7  8 -1 -1</clus>
<clus scale="  104.763">  2  5  1 -1</clus>
<clus scale="   21.698">  2  5  1 -1</clus>
</clustering>
</event>
<event>
10    2  0.1133532E-006  0.3069700E+03  0.7546771E-02  0.1081887E+00
          1   -1    0    0  503    0  0.00000000000E+00  0.00000000000E+00  0.82986081283E+03  0.82986081283E+03  0.00000000000E+00 0. -1.
         -1   -1    0    0    0  501 -0.00000000000E+00 -0.00000000000E+00 -0.16419194083E+03  0.16419194083E+03  0.00000000000E+00 0.  1.
         23    2    1    2    0    0 -0.11559316863E+03 -0.30683369076E+03  0.30443146150E+03  0.45668669917E+03  0.91517932856E+02 0.  0.
         23    2    1    2    0    0  0.95822564163E+02  0.24183819289E+03  0.30650594734E+03  0.41278621162E+03  0.93695706430E+02 0.  0.
        -11    1    3    3    0    0 -0.11982437004E+03 -0.19756479557E+03  0.20776557993E+03  0.31073503875E+03  0.00000000000E+00 0.  1.
         11    1    3    3    0    0  0.42312014072E+01 -0.10926889519E+03  0.96665881564E+02  0.14595166042E+03  0.00000000000E+00 0. -1.
        -11    1    4    4    0    0  0.21189472375E+02  0.12852558546E+02  0.73951396706E+02  0.77993532267E+02  0.00000000000E+00 0.  1.
         11    1    4    4    0    0  0.74633091788E+02  0.22898563435E+03  0.23255455063E+03  0.33479267935E+03  0.00000000000E+00 0. -1.
         21    1    1    2  502  501  0.93721835190E+00  0.35671780908E+02 -0.20865252871E+02  0.41336583177E+02  0.00000000000E+00 0. -1.
         21    1    1    2  503  502  0.18833386116E+02  0.29323716956E+02  0.75596716036E+02  0.83243259692E+02  0.00000000000E+00 0. -1.
<scales pt_clust_5="13000.00000" pt_clust_6="13000.00000" pt_clust_7="13000.00000" pt_clust_8="13000.00000" pt_clust_9="36.09150" pt_clust_10="34.85078"></scales>
<clustering>
<clus scale="   34.851">  1 10  2 -1</clus>
<clus scale="   36.092">  2  9  1 -1</clus>
<clus scale="   91.518">  5  6 -1 -1</clus>
<clus scale="   93.696">  7  8 -1 -1</clus>
<clus scale="  306.312">  2  5  1 -1</clus>
<clus scale="   34.851">  1  5  2 -1</clus>
</clustering>
</event>
<event>
10    2  0.1133532E-006  0.2722070E+03  0.7546771E-02  0.1100070E+00
         -1   -1    0    0    0  501 -0.00000000000E+00  0.00000000000E+00  0.13378138791E+03  0.13378138791E+03  0.00000000000E+00 0.  1.
          1   -1    0    0  503    0  0.00000000000E+00 -0.00000000000E+00 -0.25248222253E+04  0.25248222253E+04  0.00000000000E+00 0. -1.
         23    2    1    2    0    0 -0.22723946052E+03  0.28255903680E+02 -0.58286955317E+02  0.25365400782E+03  0.92232413028E+02 0.  0.
         23    2    1    2    0    0  0.38076075166E+03 -0.33247458134E+02 -0.17707023552E+04  0.18137804183E+04  0.91260241288E+02 0.  0.
        -13    1    4    4    0    0  0.30606461699E+03  0.82398100059E+01 -0.13192152073E+04  0.13542792207E+04  0.00000000000E+00 0. -1.
         13    1    4    4    0    0  0.74696134671E+02 -0.41487268140E+02 -0.45148714783E+03  0.45950119761E+03  0.00000000000E+00 0.  1.
        -13    1    3    3    0    0 -0.12583068580E+03 -0.38661332557E+01  0.11525655911E+02  0.12641657020E+03  0.00000000000E+00 0.  1.
         13    1    3    3    0    0 -0.10140877471E+03  0.32122036936E+02 -0.69812611228E+02  0.12723743762E+03  0.00000000000E+00 0. -1.
         21    1    1    2  502  501 -0.19176212714E+02 -0.60557922393E+01 -0.91872342893E+01  0.22108935469E+02  0.00000000000E+00 0. -1.
         21    1    1    2  503  502 -0.13434507843E+03  0.11047346693E+02 -0.55286429264E+03  0.56906025168E+03  0.00000000000E+00 0.  1.
<scales pt_clust_5="13000.00000" pt_clust_6="13000.00000" pt_clust_7="13000.00000" pt_clust_8="13000.00000" pt_clust_9="20.10969" pt_clust_10="135.98339"></scales>
<clustering>
<clus scale="   20.110">  1  9  2 -1</clus>
<clus scale="   91.260">  5  6 -1 -1</clus>
<clus scale="   92.232">  7  8 -1 -1</clus>
<clus scale="  135.983">  2 10  1 -1</clus>
<clus scale="  271.879">  2  5  1 -1</clus>
<clus scale="  135.983">  2  5  1 -1</clus>
</clustering>
</event>
<event>
10    2  0.1133532E-006  0.2213652E+03  0.7546771E-02  0.1132874E+00
         -2   -1    0    0    0  501 -0.00000000000E+00  0.00000000000E+00  0.10368485629E+03  0.10368485629E+03  0.00000000000E+00 0.  1.
          2   -1    0    0  503    0  0.00000000000E+00 -0.00000000000E+00 -0.14328738893E+04  0.14328738893E+04  0.00000000000E+00 0. -1.
         23    2    1    2    0    0 -0.10560718297E+03 -0.18941294943E+03 -0.28244304047E+03  0.36742116012E+03  0.90521242190E+02 0.  0.
         23    2    1    2    0    0  0.31780255994E+02  0.17549390666E+03 -0.62765540255E+03  0.65876041398E+03  0.90586327535E+02 0.  0.
        -13    1    4    4    0    0  0.23258313391E+02  0.23829313278E+01 -0.12215384482E+03  0.12437117555E+03  0.00000000000E+00 0.  1.
         13    1    4    4    0    0  0.85219426024E+01  0.17311097533E+03 -0.50550155773E+03  0.53438923844E+03  0.00000000000E+00 0. -1.
        -13    1    3    3    0    0 -0.84920509929E+02 -0.97277169076E+02 -0.10505933240E+03  0.16646862754E+03  0.00000000000E+00 0.  1.
         13    1    3    3    0    0 -0.20686673037E+02 -0.92135780354E+02 -0.17738370806E+03  0.20095253258E+03  0.00000000000E+00 0. -1.
         21    1    1    2  502  501 -0.30904403796E+02  0.12722874209E+02  0.32608851693E+02  0.46693585329E+02  0.00000000000E+00 0.  1.
         21    1    1    2  503  502  0.10473133077E+03  0.11961685638E+01 -0.45169944167E+03  0.46368358616E+03  0.00000000000E+00 0.  1.
<scales pt_clust_5="13000.00000" pt_clust_6="13000.00000" pt_clust_7="13000.00000" pt_clust_8="13000.00000" pt_clust_9="33.42086" pt_clust_10="101.86736"></scales>
<clustering>
<clus scale="   33.421">  1  9  2 -1</clus>
<clus scale="   90.521">  7  8 -1 -1</clus>
<clus scale="   90.586">  5  6 -1 -1</clus>
<clus scale="  101.867">  2 10  1 -1</clus>
<clus scale="  221.339">  1  7  2 -1</clus>
<clus scale="  101.867">  2  5  1 -1</clus>
</clustering>
</event>
<event>
10    2  0.1133532E-006  0.1192640E+03  0.7546771E-02  0.1247701E+00
         -1   -1    0    0    0  501 -0.00000000000E+00  0.00000000000E+00  0.10294918930E+04  0.10294918930E+04  0.00000000000E+00 0.  1.
          1   -1    0    0  503    0  0.00000000000E+00 -0.00000000000E+00 -0.92955393574E+02  0.92955393574E+02  0.00000000000E+00 0. -1.
         23    2    1    2    0    0 -0.65928875867E+01  0.78212319228E+02  0.13807112595E+03  0.18333527575E+03  0.91583592788E+02 0.  0.
         23    2    1    2    0    0 -0.72303121263E+02 -0.18907695064E+02  0.78583279370E+02  0.14818367664E+03  0.10098429556E+03 0.  0.
        -11    1    4    4    0    0 -0.38981135973E+02  0.93669229885E+00  0.97518235624E+02  0.10502481913E+03  0.00000000000E+00 0.  1.
         11    1    4    4    0    0 -0.33321985289E+02 -0.19844387363E+02 -0.18934956254E+02  0.43158857512E+02  0.00000000000E+00 0. -1.
        -11    1    3    3    0    0  0.41938302797E+02  0.44930791394E+02  0.63994270110E+02  0.88729160165E+02  0.00000000000E+00 0.  1.
         11    1    3    3    0    0 -0.48531190384E+02  0.33281527834E+02  0.74076855838E+02  0.94606115584E+02  0.00000000000E+00 0. -1.
         21    1    1    2  502  501  0.94531315868E+02  0.81376610757E+00  0.72259326917E+03  0.72875089335E+03  0.00000000000E+00 0.  1.
         21    1    1    2  503  502 -0.15635307019E+02 -0.60118390272E+02 -0.27111751001E+01  0.62177440803E+02  0.00000000000E+00 0. -1.
<scales pt_clust_5="13000.00000" pt_clust_6="13000.00000" pt_clust_7="13000.00000" pt_clust_8="13000.00000" pt_clust_9="93.76267" pt_clust_10="62.11830"></scales>
<clustering>
<clus scale="   62.118">  2 10  1 -1</clus>
<clus scale="   91.584">  7  8 -1 -1</clus>
<clus scale="   93.763">  1  9  2 -1</clus>
<clus scale="  100.984">  5  6 -1 -1</clus>
<clus scale="  111.416">  1  7  2 -1</clus>
<clus scale="   62.118">  2  5  1 -1</clus>
</clustering>
</event>
<event>
10    2  0.1133532E-006  0.1500937E+03  0.7546771E-02  0.1223484E+00
         -1   -1    0    0    0  501 -0.00000000000E+00  0.00000000000E+00  0.12501108655E+03  0.12501108655E+03  0.00000000000E+00 0.  1.
          1   -1    0    0  503    0  0.00000000000E+00 -0.00000000000E+00 -0.10107169562E+04  0.10107169562E+04  0.00000000000E+00 0. -1.
         23    2    1    2    0    0 -0.19568311469E+02  0.10563493752E+02  0.64912777295E+02  0.11448859153E+03  0.91648582746E+02 0.  0.
         23    2    1    2    0    0  0.10834691707E+03 -0.18623859963E+02 -0.23859682948E+03  0.27838218608E+03  0.92099358809E+02 0.  0.
        -11    1    4    4    0    0  0.10572342374E+03 -0.45050844667E+02 -0.17385070471E+03  0.20840126789E+03  0.00000000000E+00 0.  1.
         11    1    4    4    0    0  0.26234933295E+01  0.26426984704E+02 -0.64746124774E+02  0.69980918192E+02  0.00000000000E+00 0. -1.
        -11    1    3    3    0    0 -0.49494747853E+02 -0.55215803542E+01  0.11381522465E+02  0.51085780489E+02  0.00000000000E+00 0.  1.
         11    1    3    3    0    0  0.29926436384E+02  0.16085074106E+02  0.53531254829E+02  0.63402811036E+02  0.00000000000E+00 0. -1.
         21    1    1    2  502  501  0.29480253520E+02 -0.16474804814E+02 -0.17737488972E+02  0.38146075241E+02  0.00000000000E+00 0.  1.
         21    1    1    2  503  502 -0.11825885912E+03  0.24535171025E+02 -0.69428432851E+03  0.70471118992E+03  0.00000000000E+00 0. -1.
<scales pt_clust_5="13000.00000" pt_clust_6="13000.00000" pt_clust_7="13000.00000" pt_clust_8="13000.00000" pt_clust_9="33.77136" pt_clust_10="118.51507"></scales>
<clustering>
<clus scale="   33.771">  1  9  2 -1</clus>
<clus scale="   91.649">  7  8 -1 -1</clus>
<clus scale="   91.743">  1  7  2 -1</clus>
<clus scale="   92.099">  5  6 -1 -1</clus>
<clus scale="  118.515">  2 10  1 -1</clus>
<clus scale="  118.515">  2  5  1 -1</clus>
</clustering>
</event>
<event>
10    2  0.1133532E-006  0.1075186E+03  0.7546771E-02  0.1265850E+00
         -1   -1    0    0    0  501 -0.00000000000E+00  0.00000000000E+00  0.49370517806E+03  0.49370517806E+03  0.00000000000E+00 0.  1.
          1   -1    0    0  503    0  0.00000000000E+00 -0.00000000000E+00 -0.10173300603E+03  0.10173300603E+03  0.00000000000E+00 0. -1.
         23    2    1    2    0    0  0.31623181901E+02  0.80894333975E+02  0.21437230376E+03  0.24830408763E+03  0.90307897839E+02 0.  0.
         23    2    1    2    0    0  0.70530083838E+02 -0.57223931377E+01  0.39013990486E+01  0.11506602965E+03  0.90651705745E+02 0.  0.
        -11    1    3    3    0    0  0.10091502100E+02  0.70559597541E+02  0.21274204638E+03  0.22436504522E+03  0.00000000000E+00 0. -1.
         11    1    3    3    0    0  0.21531679801E+02  0.10334736434E+02  0.16302573771E+01  0.23939042406E+02  0.00000000000E+00 0.  1.
        -13    1    4    4    0    0  0.17586889204E+02 -0.31804066755E+02 -0.29892294486E+02  0.47056844387E+02  0.00000000000E+00 0.  1.
         13    1    4    4    0    0  0.52943194634E+02  0.26081673618E+02  0.33793693535E+02  0.68009185258E+02  0.00000000000E+00 0. -1.
         21    1    1    2  502  501 -0.17726136329E+02 -0.19048289656E+02  0.10839979794E+03  0.11147900897E+03  0.00000000000E+00 0.  1.
         21    1    1    2  503  502 -0.84427129410E+02 -0.56123651181E+02  0.65298671282E+02  0.12058905785E+03  0.00000000000E+00 0.  1.
<scales pt_clust_5="13000.00000" pt_clust_6="13000.00000" pt_clust_7="13000.00000" pt_clust_8="13000.00000" pt_clust_9="26.02025" pt_clust_10="107.51861"></scales>
<clustering>
<clus scale="   26.020">  1  9  2 -1</clus>
<clus scale="   90.308">  5  6 -1 -1</clus>
<clus scale="   90.652">  7  8 -1 -1</clus>
<clus scale="  107.519">  2 10  1 -1</clus>
<clus scale="  106.239">  1  5  2 -1</clus>
<clus scale="  107.519">  2  5  1 -1</clus>
</clustering>
</event>
<event>
10    2  0.1133532E-006  0.1167858E+03  0.7546771E-02  0.1249427E+00
          1   -1    0    0  503    0  0.00000000000E+00  0.00000000000E+00  0.56450892410E+03  0.56450892410E+03  0.00000000000E+00 0. -1.
         -1   -1    0    0    0  501 -0.00000000000E+00 -0.00000000000E+00 -0.59194414104E+02  0.59194414104E+02  0.00000000000E+00 0.  1.
         23    2    1    2    0    0 -0.48409783200E+02  0.50497047197E+02  0.96609781824E+02  0.14999550140E+03  0.90949115501E+02 0.  0.
         23    2    1    2    0    0  0.61764558094E+02 -0.54776829727E+02  0.24504706787E+03  0.27319610915E+03  0.88162842897E+02 0.  0.
        -11    1    4    4    0    0  0.10741876014E+02 -0.55780724677E+02  0.18920206793E+03  0.19754569004E+03  0.00000000000E+00 0.  1.
         11    1    4    4    0    0  0.51022682080E+02  0.10038949498E+01  0.55844999943E+02  0.75650419102E+02  0.00000000000E+00 0. -1.
        -13    1    3    3    0    0 -0.20656962562E+02 -0.21041306790E+01 -0.13558812670E+02  0.24798767494E+02  0.00000000000E+00 0.  1.
         13    1    3    3    0    0 -0.27752820639E+02  0.52601177876E+02  0.11016859449E+03  0.12519673390E+03  0.00000000000E+00 0. -1.
         21    1    1    2  502  501 -0.21599174930E+02 -0.30417586507E+02  0.46983691589E+01  0.37600912214E+02  0.00000000000E+00 0.  1.
         21    1    1    2  503  502  0.82444000366E+01  0.34697369037E+02  0.15895929113E+03  0.16291081544E+03  0.00000000000E+00 0.  1.
<scales pt_clust_5="13000.00000" pt_clust_6="13000.00000" pt_clust_7="13000.00000" pt_clust_8="13000.00000" pt_clust_9="35.58038" pt_clust_10="35.66339"></scales>
<clustering>
<clus scale="   35.663">  1 10  2 -1</clus>
<clus scale="   35.580">  2  9  1 -1</clus>
<clus scale="   88.163">  5  6 -1 -1</clus>
<clus scale="   90.949">  7  8 -1 -1</clus>
<clus scale="  114.629">  1  5  2 -1</clus>
<clus scale="   35.663">  1  5  2 -1</clus>
</clustering>
</event>
<event>
10    2  0.1133532E-006  0.2442324E+03  0.7546771E-02  0.1117307E+00
         -2   -1    0    0    0  501 -0.00000000000E+00  0.00000000000E+00  0.23009716565E+03  0.23009716565E+03  0.00000000000E+00 0.  1.
          2   -1    0    0  503    0  0.00000000000E+00 -0.00000000000E+00 -0.95878803522E+03  0.95878803522E+03  0.00000000000E+00 0. -1.
         23    2    1    2    0    0 -0.24313957969E+02 -0.10855160056E+03  0.95721365709E+02  0.17526443434E+03  0.95814526844E+02 0.  0.
         23    2    1    2    0    0 -0.67227657737E+02  0.23474521318E+03 -0.78835455929E+03  0.83030701846E+03  0.91005278320E+02 0.  0.
        -11    1    3    3    0    0 -0.29660845043E+02 -0.81703597799E+02  0.11324760251E+03  0.14275945887E+03  0.00000000000E+00 0.  1.
         11    1    3    3    0    0  0.53468870739E+01 -0.26848002758E+02 -0.17526236805E+02  0.32504975465E+02  0.00000000000E+00 0. -1.
        -13    1    4    4    0    0 -0.43954938115E+02  0.64877965515E+02 -0.14886450804E+03  0.16823147371E+03  0.00000000000E+00 0.  1.
         13    1    4    4    0    0 -0.23272719621E+02  0.16986724766E+03 -0.63949005125E+03  0.66207554475E+03  0.00000000000E+00 0. -1.
         21    1    1    2  502  501  0.23409135934E+02 -0.61239056068E+02  0.26040138789E+02  0.70542883847E+02  0.00000000000E+00 0.  1.
         21    1    1    2  503  502  0.68132479772E+02 -0.64954556554E+02 -0.62097814780E+02  0.11277086422E+03  0.00000000000E+00 0. -1.
<scales pt_clust_5="13000.00000" pt_clust_6="13000.00000" pt_clust_7="13000.00000" pt_clust_8="13000.00000" pt_clust_9="65.56073" pt_clust_10="102.45891"></scales>
<clustering>
<clus scale="   65.561">  1  9  2 -1</clus>
<clus scale="   91.005">  7  8 -1 -1</clus>
<clus scale="   95.815">  5  6 -1 -1</clus>
<clus scale="  102.459">  1 10  2 -1</clus>
<clus scale="  242.386">  2  7  1 -1</clus>
<clus scale="  242.386">  2  5  1 -1</clus>
</clustering>
</event>
<event>
10    2  0.1133532E-006  0.1091855E+03  0.7546771E-02  0.1263053E+00
          1   -1    0    0  503    0  0.00000000000E+00  0.00000000000E+00  0.26896016347E+03  0.26896016347E+03  0.00000000000E+00 0. -1.
         -1   -1    0    0    0  501 -0.00000000000E+00 -0.00000000000E+00 -0.34014624589E+03  0.34014624589E+03  0.00000000000E+00 0.  1.
         23    2    1    2    0    0 -0.41635090699E+02 -0.24024844877E+02 -0.23615169765E+03  0.25697583910E+03  0.89209212693E+02 0.  0.
         23    2    1    2    0    0  0.58015078279E+01  0.71341175870E+02  0.75281143879E+02  0.13853483734E+03  0.91659313029E+02 0.  0.
        -11    1    4    4    0    0  0.23104531745E+02  0.88753296661E+02  0.60794068891E+02  0.11003129495E+03  0.00000000000E+00 0. -1.
         11    1    4    4    0    0 -0.17303023917E+02 -0.17412120791E+02  0.14487074988E+02  0.28503542391E+02  0.00000000000E+00 0.  1.
        -13    1    3    3    0    0  0.22516257147E+02 -0.70337075341E+01 -0.12747175482E+03  0.12963604111E+03  0.00000000000E+00 0. -1.
         13    1    3    3    0    0 -0.64151347847E+02 -0.16991137342E+02 -0.10867994283E+03  0.12733979799E+03  0.00000000000E+00 0.  1.
         21    1    1    2  502  501  0.41405395948E+01 -0.24735641140E+02 -0.56768050997E+02  0.62061321487E+02  0.00000000000E+00 0.  1.
         21    1    1    2  503  502  0.31693043276E+02 -0.22580689853E+02  0.14645252235E+03  0.15153441143E+03  0.00000000000E+00 0. -1.
<scales pt_clust_5="13000.00000" pt_clust_6="13000.00000" pt_clust_7="13000.00000" pt_clust_8="13000.00000" pt_clust_9="25.07979" pt_clust_10="39.07524"></scales>
<clustering>
<clus scale="   25.080">  2  9  1 -1</clus>
<clus scale="   39.075">  1 10  2 -1</clus>
<clus scale="   89.209">  7  8 -1 -1</clus>
<clus scale="   91.659">  5  6 -1 -1</clus>
<clus scale="  107.137">  2  7  1 -1</clus>
<clus scale="   39.075">  1  5  2 -1</clus>
</clustering>
</event>
<event>
10    2  0.1133532E-006  0.9648540E+02  0.7546771E-02  0.1289216E+00
          1   -1    0    0  503    0  0.00000000000E+00  0.00000000000E+00  0.83289561205E+02  0.83289561205E+02  0.00000000000E+00 0. -1.
         -1   -1    0    0    0  501 -0.00000000000E+00 -0.00000000000E+00 -0.39508331188E+03  0.39508331188E+03  0.00000000000E+00 0.  1.
         23    2    1    2    0    0  0.53957897862E+02 -0.40864749289E+01 -0.12083067569E+03  0.16017500981E+03  0.90154465020E+02 0.  0.
         23    2    1    2    0    0  0.10343498841E+02 -0.12890409155E+02 -0.13812725094E+02  0.95142880504E+02  0.92672680547E+02 0.  0.
        -11    1    3    3    0    0  0.78062251808E+02 -0.86670147337E+01 -0.77267993330E+02  0.11017792472E+03  0.00000000000E+00 0. -1.
         11    1    3    3    0    0 -0.24104353946E+02  0.45805398048E+01 -0.43562682355E+02  0.49997085096E+02  0.00000000000E+00 0.  1.
        -13    1    4    4    0    0 -0.23703802733E+01 -0.50308966544E+02 -0.21705592496E+02  0.54842898929E+02  0.00000000000E+00 0. -1.
         13    1    4    4    0    0  0.12713879115E+02  0.37418557388E+02  0.78928674015E+01  0.40299981576E+02  0.00000000000E+00 0.  1.
         21    1    1    2  502  501 -0.21394710504E+02 -0.17929082713E+02 -0.16379102145E+03  0.16615259358E+03  0.00000000000E+00 0.  1.
         21    1    1    2  503  502 -0.42906686199E+02  0.34905966797E+02 -0.13359328440E+02  0.56902389186E+02  0.00000000000E+00 0. -1.
<scales pt_clust_5="13000.00000" pt_clust_6="13000.00000" pt_clust_7="13000.00000" pt_clust_8="13000.00000" pt_clust_9="27.91390" pt_clust_10="56.27410"></scales>
<clustering>
<clus scale="   27.914">  2  9  1 -1</clus>
<clus scale="   56.274">  1 10  2 -1</clus>
<clus scale="   90.154">  5  6 -1 -1</clus>
<clus scale="   92.673">  7  8 -1 -1</clus>
<clus scale="   94.069">  2  5  1 -1</clus>
<clus scale="   56.274">  1  5  2 -1</clus>
</clustering>
</event>
<event>
10    2  0.1133532E-006  0.1263591E+03  0.7546771E-02  0.1234293E+00
          2   -1    0    0  503    0  0.00000000000E+00  0.00000000000E+00  0.26710861648E+03  0.26710861648E+03  0.00000000000E+00 0. -1.
         -2   -1    0    0    0  501 -0.00000000000E+00 -0.00000000000E+00 -0.13308223551E+03  0.13308223551E+03  0.00000000000E+00 0.  1.
         23    2    1    2    0    0  0.52489103407E+02 -0.46406412594E+02 -0.10561733585E+02  0.11860783707E+03  0.95118913428E+02 0.  0.
         23    2    1    2    0    0 -0.34261564051E+02  0.75593231174E+02  0.15289053701E+03  0.19611510549E+03  0.90539642822E+02 0.  0.
        -13    1    4    4    0    0  0.22722686875E+02 -0.18169500059E+01  0.12577572670E+02  0.26034921556E+02  0.00000000000E+00 0.  1.
         13    1    4    4    0    0 -0.56984250927E+02  0.77410181180E+02  0.14031296434E+03  0.17008018393E+03  0.00000000000E+00 0. -1.
        -13    1    3    3    0    0  0.33884034874E+02 -0.87967241328E+00  0.37008141164E+02  0.50184700411E+02  0.00000000000E+00 0. -1.
         13    1    3    3    0    0  0.18605068533E+02 -0.45526740181E+02 -0.47569874749E+02  0.68423136659E+02  0.00000000000E+00 0.  1.
         21    1    1    2  502  501 -0.27438635797E+02 -0.48667789353E+02 -0.21876510755E+02  0.60000118147E+02  0.00000000000E+00 0.  1.
         21    1    1    2  503  502  0.92110964411E+01  0.19480970773E+02  0.13574088299E+02  0.25467791288E+02  0.00000000000E+00 0. -1.
<scales pt_clust_5="13000.00000" pt_clust_6="13000.00000" pt_clust_7="13000.00000" pt_clust_8="13000.00000" pt_clust_9="54.21513" pt_clust_10="21.54884"></scales>
<clustering>
<clus scale="   21.549">  1 10  2 -1</clus>
<clus scale="   54.215">  2  9  1 -1</clus>
<clus scale="   90.540">  5  6 -1 -1</clus>
<clus scale="   95.119">  7  8 -1 -1</clus>
<clus scale="  122.949">  1  5  2 -1</clus>
<clus scale="   21.549">  1  5  2 -1</clus>
</clustering>
</event>
<event>
10    2  0.1133532E-006  0.1347609E+03  0.7546771E-02  0.1238910E+00
         -3   -1    0    0    0  501 -0.00000000000E+00  0.00000000000E+00  0.27580017782E+03  0.27580017782E+03  0.00000000000E+00 0.  1.
          3   -1    0    0  503    0  0.00000000000E+00 -0.00000000000E+00 -0.38883925234E+03  0.38883925234E+03  0.00000000000E+00 0. -1.
         23    2    1    2    0    0  0.78474222903E+02 -0.39400933401E+02  0.45832295112E+02  0.13456994940E+03  0.91092451894E+02 0.  0.
         23    2    1    2    0    0 -0.16441295031E+02  0.45598873645E+01 -0.32273888442E+02  0.99187334471E+02  0.92224805173E+02 0.  0.
        -11    1    4    4    0    0  0.29111759829E+02  0.90601218513E+01  0.14482811306E+02  0.33753995195E+02  0.00000000000E+00 0.  1.
         11    1    4    4    0    0 -0.45553054860E+02 -0.45002344868E+01 -0.46756699747E+02  0.65433339276E+02  0.00000000000E+00 0. -1.
        -13    1    3    3    0    0  0.29008700280E+02  0.27578609623E+02  0.29488764860E+02  0.49715909462E+02  0.00000000000E+00 0.  1.
         13    1    3    3    0    0  0.49465522623E+02 -0.66979543024E+02  0.16343530252E+02  0.84854039934E+02  0.00000000000E+00 0. -1.
         21    1    1    2  502  501 -0.95465781903E+02  0.41245623707E+02  0.13312997367E+03  0.16893343919E+03  0.00000000000E+00 0.  1.
         21    1    1    2  503  502  0.33432854031E+02 -0.64045776702E+01 -0.25972745486E+03  0.26194870710E+03  0.00000000000E+00 0. -1.
<scales pt_clust_5="13000.00000" pt_clust_6="13000.00000" pt_clust_7="13000.00000" pt_clust_8="13000.00000" pt_clust_9="99.31089" pt_clust_10="34.04077"></scales>
<clustering>
<clus scale="   34.041">  2 10  1 -1</clus>
<clus scale="   91.092">  7  8 -1 -1</clus>
<clus scale="   92.225">  5  6 -1 -1</clus>
<clus scale="   92.236">  2  5  1 -1</clus>
<clus scale="   99.311">  1  9  2 -1</clus>
<clus scale="   34.041">  2  5  1 -1</clus>
</clustering>
</event>
<event>
10    2  0.1133532E-006  0.1004111E+03  0.7546771E-02  0.1279571E+00
         -1   -1    0    0    0  501 -0.00000000000E+00  0.00000000000E+00  0.20569142328E+03  0.20569142328E+03  0.00000000000E+00 0.  1.
          1   -1    0    0  503    0  0.00000000000E+00 -0.00000000000E+00 -0.29637318015E+03  0.29637318015E+03  0.00000000000E+00 0. -1.
         23    2    1    2    0    0 -0.36369480929E+02 -0.39710903043E+02  0.47639289316E+02  0.11564164067E+03  0.90574787926E+02 0.  0.
         23    2    1    2    0    0  0.39995384869E+02  0.41246698356E+02 -0.29838659056E+02  0.11109687007E+03  0.90284262350E+02 0.  0.
        -11    1    4    4    0    0  0.50934797423E+02 -0.10230501672E+02 -0.26611893054E+02  0.58371308062E+02  0.00000000000E+00 0. -1.
         11    1    4    4    0    0 -0.10939412555E+02  0.51477200028E+02 -0.32267660026E+01  0.52725562003E+02  0.00000000000E+00 0.  1.
        -11    1    3    3    0    0 -0.16965847895E+02 -0.51609336233E+02 -0.85704710766E+01  0.54998332299E+02  0.00000000000E+00 0. -1.
         11    1    3    3    0    0 -0.19403633034E+02  0.11898433190E+02  0.56209760393E+02  0.60643308375E+02  0.00000000000E+00 0.  1.
         21    1    1    2  502  501  0.33213160962E+02  0.13214032205E+02  0.77399900911E+02  0.85255318715E+02  0.00000000000E+00 0.  1.
         21    1    1    2  503  502 -0.36839064902E+02 -0.14749827518E+02 -0.18588228804E+03  0.19007077398E+03  0.00000000000E+00 0. -1.
<scales pt_clust_5="13000.00000" pt_clust_6="13000.00000" pt_clust_7="13000.00000" pt_clust_8="13000.00000" pt_clust_9="35.74528" pt_clust_10="39.08023"></scales>
<clustering>
<clus scale="   35.745">  1  9  2 -1</clus>
<clus scale="   39.080">  2 10  1 -1</clus>
<clus scale="   90.284">  5  6 -1 -1</clus>
<clus scale="   90.575">  7  8 -1 -1</clus>
<clus scale="  100.149">  2  5  1 -1</clus>
<clus scale="   39.080">  2  5  1 -1</clus>
</clustering>
</event>
<event>
10    2  0.1133532E-006  0.9894932E+02  0.7546771E-02  0.1282641E+00
          1   -1    0    0  503    0  0.00000000000E+00  0.00000000000E+00  0.21261694293E+03  0.21261694293E+03  0.00000000000E+00 0. -1.
         -1   -1    0    0    0  501 -0.00000000000E+00 -0.00000000000E+00 -0.10288539320E+03  0.10288539320E+03  0.00000000000E+00 0.  1.
         23    2    1    2    0    0  0.20150540129E+02 -0.19407499786E+02  0.49503371533E+02  0.10942116463E+03  0.93486427675E+02 0.  0.
         23    2    1    2    0    0 -0.36276973034E+02  0.17447216738E+02  0.60131483014E+02  0.11840736816E+03  0.93723451922E+02 0.  0.
        -11    1    4    4    0    0  0.41230767753E+01  0.27642660769E+02  0.70184962126E+02  0.75544989014E+02  0.00000000000E+00 0. -1.
         11    1    4    4    0    0 -0.40400049809E+02 -0.10195444031E+02 -0.10053479112E+02  0.42862379144E+02  0.00000000000E+00 0.  1.
        -11    1    3    3    0    0  0.37139035403E+01 -0.49193091140E+02 -0.26739948325E-01  0.49333092448E+02  0.00000000000E+00 0.  1.
         11    1    3    3    0    0  0.16436636588E+02  0.29785591354E+02  0.49530111482E+02  0.60088072178E+02  0.00000000000E+00 0. -1.
         21    1    1    2  502  501 -0.15722456680E+02  0.15990673285E+02 -0.32833753146E+02  0.39761194924E+02  0.00000000000E+00 0. -1.
         21    1    1    2  503  502  0.31848889585E+02 -0.14030390236E+02  0.32930448336E+02  0.47912608420E+02  0.00000000000E+00 0.  1.
<scales pt_clust_5="13000.00000" pt_clust_6="13000.00000" pt_clust_7="13000.00000" pt_clust_8="13000.00000" pt_clust_9="22.42537" pt_clust_10="32.47187"></scales>
<clustering>
<clus scale="   22.425">  2  9  1 -1</clus>
<clus scale="   32.472">  1 10  2 -1</clus>
<clus scale="   93.486">  7  8 -1 -1</clus>
<clus scale="   93.723">  5  6 -1 -1</clus>
<clus scale="   98.725">  2  7  1 -1</clus>
<clus scale="   32.472">  1  5  2 -1</clus>
</clustering>
</event>
<event>
10    2  0.1133532E-006  0.1017963E+03  0.7546771E-02  0.1278006E+00
          2   -1    0    0  503    0  0.00000000000E+00  0.00000000000E+00  0.50215202684E+03  0.50215202684E+03  0.00000000000E+00 0. -1.
         -2   -1    0    0    0  501 -0.00000000000E+00 -0.00000000000E+00 -0.11065074136E+03  0.11065074136E+03  0.00000000000E+00 0.  1.
         23    2    1    2    0    0  0.54589256069E+02  0.14503746440E+02  0.10030956021E+03  0.14528078195E+03  0.88623654830E+02 0.  0.
         23    2    1    2    0    0 -0.24323206389E+02 -0.39805516394E+01  0.26359681763E+03  0.28018050693E+03  0.91708075118E+02 0.  0.
        -11    1    4    4    0    0 -0.66398105718E+00 -0.44179404255E+02  0.16940016232E+03  0.17506763158E+03  0.00000000000E+00 0. -1.
         11    1    4    4    0    0 -0.23659225332E+02  0.40198852616E+02  0.94196655301E+02  0.10511287535E+03  0.00000000000E+00 0.  1.
        -13    1    3    3    0    0  0.17388845510E+02  0.10112354692E+02 -0.14316118515E+02  0.24689732986E+02  0.00000000000E+00 0.  1.
         13    1    3    3    0    0  0.37200410559E+02  0.43913917477E+01  0.11462567872E+03  0.12059104896E+03  0.00000000000E+00 0. -1.
         21    1    1    2  502  501 -0.28540988318E+01 -0.26840044355E+02 -0.75101451948E+02  0.79804523341E+02  0.00000000000E+00 0.  1.
         21    1    1    2  503  502 -0.27411950848E+02  0.16316849555E+02  0.10269635959E+03  0.10753695598E+03  0.00000000000E+00 0. -1.
<scales pt_clust_5="13000.00000" pt_clust_6="13000.00000" pt_clust_7="13000.00000" pt_clust_8="13000.00000" pt_clust_9="26.99137" pt_clust_10="31.13001"></scales>
<clustering>
<clus scale="   26.991">  2  9  1 -1</clus>
<clus scale="   31.130">  1 10  2 -1</clus>
<clus scale="   88.624">  7  8 -1 -1</clus>
<clus scale="   91.708">  5  6 -1 -1</clus>
<clus scale="   99.027">  2  7  1 -1</clus>
<clus scale="   31.130">  1  5  2 -1</clus>
</clustering>
</event>
<event>
10    2  0.1133532E-006  0.1153585E+03  0.7546771E-02  0.1251459E+00
         -1   -1    0    0    0  501 -0.00000000000E+00  0.00000000000E+00  0.51892899508E+03  0.51892899508E+03  0.00000000000E+00 0.  1.
          1   -1    0    0  503    0  0.00000000000E+00 -0.00000000000E+00 -0.42676095393E+02  0.42676095393E+02  0.00000000000E+00 0. -1.
         23    2    1    2    0    0 -0.32080048230E+02  0.69292321967E+02  0.22482472477E+03  0.25378335649E+03  0.89606248576E+02 0.  0.
         23    2    1    2    0    0  0.54535189437E+02 -0.40891993103E+02  0.13225276833E+03  0.17292293037E+03  0.88120957387E+02 0.  0.
        -11    1    3    3    0    0 -0.59111607481E+02  0.48394133526E+02  0.10958721167E+03  0.13358716727E+03  0.00000000000E+00 0.  1.
         11    1    3    3    0    0  0.27031559251E+02  0.20898188441E+02  0.11523751311E+03  0.12019618922E+03  0.00000000000E+00 0. -1.
        -13    1    4    4    0    0  0.29117059180E+02 -0.66118602604E+02  0.67216753120E+02  0.98679099335E+02  0.00000000000E+00 0. -1.
         13    1    4    4    0    0  0.25418130258E+02  0.25226609501E+02  0.65036015210E+02  0.74243831038E+02  0.00000000000E+00 0.  1.
         21    1    1    2  502  501 -0.25704414772E+02  0.16847295755E+00  0.91308007671E+02  0.94857248467E+02  0.00000000000E+00 0.  1.
         21    1    1    2  503  502  0.32492735649E+01 -0.28568801821E+02  0.27867398914E+02  0.40041555145E+02  0.00000000000E+00 0.  1.
<scales pt_clust_5="13000.00000" pt_clust_6="13000.00000" pt_clust_7="13000.00000" pt_clust_8="13000.00000" pt_clust_9="25.70497" pt_clust_10="28.58056"></scales>
<clustering>
<clus scale="   25.705">  1  9  2 -1</clus>
<clus scale="   28.581">  2 10  1 -1</clus>
<clus scale="   88.121">  7  8 -1 -1</clus>
<clus scale="   89.606">  5  6 -1 -1</clus>
<clus scale="  114.209">  2  7  1 -1</clus>
<clus scale="   28.581">  2  5  1 -1</clus>
</clustering>
</event>
<event>
10    2  0.1133532E-006  0.1139064E+03  0.7546771E-02  0.1254246E+00
         -2   -1    0    0    0  501 -0.00000000000E+00  0.00000000000E+00  0.23813503662E+03  0.23813503662E+03  0.00000000000E+00 0.  1.
          2   -1    0    0  503    0  0.00000000000E+00 -0.00000000000E+00 -0.37697643973E+03  0.37697643973E+03  0.00000000000E+00 0. -1.
         23    2    1    2    0    0  0.71132518790E+02  0.20369298827E+02  0.87902146613E+02  0.14683433452E+03  0.91426423147E+02 0.  0.
         23    2    1    2    0    0 -0.71179845868E+02 -0.29593604527E+02 -0.24435463046E+03  0.27135334974E+03  0.89337019764E+02 0.  0.
        -11    1    3    3    0    0  0.91791159764E+02  0.10201269020E+02  0.80871603368E+02  0.12275951748E+03  0.00000000000E+00 0.  1.
         11    1    3    3    0    0 -0.20658640974E+02  0.10168029807E+02  0.70305432450E+01  0.24074817037E+02  0.00000000000E+00 0. -1.
        -13    1    4    4    0    0 -0.24399399148E+02 -0.54619701622E+02 -0.16835593553E+03  0.17866830584E+03  0.00000000000E+00 0. -1.
         13    1    4    4    0    0 -0.46780446720E+02  0.25026097095E+02 -0.75998694932E+02  0.92685043899E+02  0.00000000000E+00 0.  1.
         21    1    1    2  502  501 -0.21158299386E+02  0.24385412015E+02  0.10284461526E+03  0.10779302779E+03  0.00000000000E+00 0.  1.
         21    1    1    2  503  502  0.21205626464E+02 -0.15161106316E+02 -0.85233534527E+02  0.89130764309E+02  0.00000000000E+00 0. -1.
<scales pt_clust_5="13000.00000" pt_clust_6="13000.00000" pt_clust_7="13000.00000" pt_clust_8="13000.00000" pt_clust_9="32.06863" pt_clust_10="26.06794"></scales>
<clustering>
<clus scale="   26.068">  2 10  1 -1</clus>
<clus scale="   32.069">  1  9  2 -1</clus>
<clus scale="   89.337">  7  8 -1 -1</clus>
<clus scale="   91.426">  5  6 -1 -1</clus>
<clus scale="  112.236">  2  7  1 -1</clus>
<clus scale="   26.068">  2  5  1 -1</clus>
</clustering>
</event>
<event>
10    2  0.1133532E-006  0.2063036E+03  0.7546771E-02  0.1144698E+00
          1   -1    0    0  503    0  0.00000000000E+00  0.00000000000E+00  0.35712523873E+03  0.35712523873E+03  0.00000000000E+00 0. -1.
         -1   -1    0    0    0  501 -0.00000000000E+00 -0.00000000000E+00 -0.21267515773E+03  0.21267515773E+03  0.00000000000E+00 0.  1.
         23    2    1    2    0    0  0.22283623069E+02  0.20729226722E+03  0.16468544466E+02  0.22829551170E+03  0.91547713217E+02 0.  0.
         23    2    1    2    0    0  0.48580329297E+02 -0.16349157772E+03  0.75309824505E+02  0.20687165669E+03  0.89636869062E+02 0.  0.
        -11    1    4    4    0    0 -0.26355125269E+02 -0.33582253722E+02  0.15615237773E+02  0.45455429199E+02  0.00000000000E+00 0.  1.
         11    1    4    4    0    0  0.74935454566E+02 -0.12990932400E+03  0.59694586732E+02  0.16141622749E+03  0.00000000000E+00 0. -1.
        -13    1    3    3    0    0  0.54762163220E+01  0.91657373380E+02  0.52810474439E+02  0.10592454508E+03  0.00000000000E+00 0. -1.
         13    1    3    3    0    0  0.16807406747E+02  0.11563489384E+03 -0.36341929973E+02  0.12237096661E+03  0.00000000000E+00 0.  1.
         21    1    1    2  502  501  0.42635636380E+01 -0.22552683715E+02 -0.18120271912E+02  0.29242875573E+02  0.00000000000E+00 0.  1.
         21    1    1    2  503  502 -0.75127516004E+02 -0.21248005793E+02  0.70791983935E+02  0.10539035250E+03  0.00000000000E+00 0.  1.
<scales pt_clust_5="13000.00000" pt_clust_6="13000.00000" pt_clust_7="13000.00000" pt_clust_8="13000.00000" pt_clust_9="22.95216" pt_clust_10="78.28871"></scales>
<clustering>
<clus scale="   22.952">  2  9  1 -1</clus>
<clus scale="   78.289">  1 10  2 -1</clus>
<clus scale="   89.637">  5  6 -1 -1</clus>
<clus scale="   91.548">  7  8 -1 -1</clus>
<clus scale="  205.463">  1  5  2 -1</clus>
<clus scale="   78.289">  1  5  2 -1</clus>
</clustering>
</event>
<event>
10    2  0.1133532E-006  0.1404889E+03  0.7546771E-02  0.1212900E+00
          1   -1    0    0  503    0  0.00000000000E+00  0.00000000000E+00  0.38684161809E+03  0.38684161809E+03  0.00000000000E+00 0. -1.
         -1   -1    0    0    0  501 -0.00000000000E+00 -0.00000000000E+00 -0.17352223296E+03  0.17352223296E+03  0.00000000000E+00 0.  1.
         23    2    1    2    0    0 -0.67232619595E+02 -0.15450450739E+02 -0.34420586136E+02  0.11913836145E+03  0.90830781425E+02 0.  0.
         23    2    1    2    0    0  0.87762558992E+02  0.38485879616E+02  0.24245183157E+03  0.27641635071E+03  0.91867723491E+02 0.  0.
        -13    1    3    3    0    0 -0.25430243134E+02 -0.52328059459E+02 -0.14695306214E+02  0.60007292034E+02  0.00000000000E+00 0.  1.
         13    1    3    3    0    0 -0.41802376462E+02  0.36877608719E+02 -0.19725279921E+02  0.59131069419E+02  0.00000000000E+00 0. -1.
        -13    1    4    4    0    0  0.61306820676E+02  0.57218209692E+02  0.22384930659E+03  0.23904175753E+03  0.00000000000E+00 0. -1.
         13    1    4    4    0    0  0.26455738316E+02 -0.18732330077E+02  0.18602524977E+02  0.37374593181E+02  0.00000000000E+00 0.  1.
         21    1    1    2  502  501 -0.45892095223E+02 -0.39543234076E+02 -0.64654964909E+02  0.88600317452E+02  0.00000000000E+00 0.  1.
         21    1    1    2  503  502  0.25362155827E+02  0.16507805200E+02  0.69943104611E+02  0.76208821427E+02  0.00000000000E+00 0. -1.
<scales pt_clust_5="13000.00000" pt_clust_6="13000.00000" pt_clust_7="13000.00000" pt_clust_8="13000.00000" pt_clust_9="59.43435" pt_clust_10="30.26131"></scales>
<clustering>
<clus scale="   30.261">  1 10  2 -1</clus>
<clus scale="   59.434">  2  9  1 -1</clus>
<clus scale="   90.831">  5  6 -1 -1</clus>
<clus scale="   91.868">  7  8 -1 -1</clus>
<clus scale="  139.813">  2  5  1 -1</clus>
<clus scale="   30.261">  1  5  2 -1</clus>
</clustering>
</event>
<event>
10    2  0.1133532E-006  0.1514572E+03  0.7546771E-02  0.1199059E+00
          1   -1    0    0  503    0  0.00000000000E+00  0.00000000000E+00  0.57912192913E+03  0.57912192913E+03  0.00000000000E+00 0. -1.
         -1   -1    0    0    0  501 -0.00000000000E+00 -0.00000000000E+00 -0.62779644838E+02  0.62779644838E+02  0.00000000000E+00 0.  1.
         23    2    1    2    0    0  0.29305928304E+01  0.14155930609E+03  0.17425773790E+03  0.24215179934E+03  0.90686874408E+02 0.  0.
         23    2    1    2    0    0  0.12750642428E+02 -0.10091438989E+03  0.20517251561E+03  0.24703833132E+03  0.92660039961E+02 0.  0.
        -13    1    3    3    0    0 -0.63110808950E+01  0.10627163568E+03  0.59978900671E+02  0.12219230261E+03  0.00000000000E+00 0.  1.
         13    1    3    3    0    0  0.92416737254E+01  0.35287670411E+02  0.11427883723E+03  0.11995949673E+03  0.00000000000E+00 0. -1.
        -13    1    4    4    0    0 -0.14808791582E+02 -0.69122854754E+02  0.18930203605E+03  0.20207060699E+03  0.00000000000E+00 0.  1.
         13    1    4    4    0    0  0.27559434009E+02 -0.31791535140E+02  0.15870479569E+02  0.44967724328E+02  0.00000000000E+00 0. -1.
         21    1    1    2  502  501  0.96564780542E+01 -0.23544974994E+02  0.21483603065E+02  0.33304033037E+02  0.00000000000E+00 0.  1.
         21    1    1    2  503  502 -0.25337713312E+02 -0.17099941201E+02  0.11542842771E+03  0.11940741027E+03  0.00000000000E+00 0. -1.
<scales pt_clust_5="13000.00000" pt_clust_6="13000.00000" pt_clust_7="13000.00000" pt_clust_8="13000.00000" pt_clust_9="25.44825" pt_clust_10="30.76120"></scales>
<clustering>
<clus scale="   25.448">  2  9  1 -1</clus>
<clus scale="   30.761">  1 10  2 -1</clus>
<clus scale="   90.687">  5  6 -1 -1</clus>
<clus scale="   92.660">  7  8 -1 -1</clus>
<clus scale="  150.258">  2  5  1 -1</clus>
<clus scale="   30.761">  1  5  2 -1</clus>
</clustering>
</event>
<event>
10    2  0.1133532E-006  0.1442071E+03  0.7546771E-02  0.1219608E+00
         -2   -1    0    0    0  501 -0.00000000000E+00  0.00000000000E+00  0.16142369150E+03  0.16142369150E+03  0.00000000000E+00 0.  1.
          2   -1    0    0  503    0  0.00000000000E+00 -0.00000000000E+00 -0.49674518531E+03  0.49674518531E+03  0.00000000000E+00 0. -1.
         23    2    1    2    0    0 -0.72422115688E+02 -0.69575090590E+02  0.53607139993E+02  0.14520667040E+03  0.90142085609E+02 0.  0.
         23    2    1    2    0    0  0.56815082314E+01 -0.50951544387E+02 -0.15795063505E+03  0.19077337079E+03  0.93902803364E+02 0.  0.
        -11    1    4    4    0    0  0.46659171579E+02 -0.75432138917E+01 -0.71918658799E+02  0.86059699347E+02  0.00000000000E+00 0.  1.
         11    1    4    4    0    0 -0.40977663348E+02 -0.43408330495E+02 -0.86031976249E+02  0.10471367144E+03  0.00000000000E+00 0. -1.
        -11    1    3    3    0    0 -0.21244060100E+02 -0.42024902022E+02  0.70409148844E+02  0.84704490556E+02  0.00000000000E+00 0.  1.
         11    1    3    3    0    0 -0.51178055588E+02 -0.27550188568E+02 -0.16802008851E+02  0.60502179840E+02  0.00000000000E+00 0. -1.
         21    1    1    2  502  501  0.64876764742E+02  0.14102462875E+03 -0.89425178275E+02  0.17914743377E+03  0.00000000000E+00 0. -1.
         21    1    1    2  503  502  0.18638427150E+01 -0.20497993769E+02 -0.14155282048E+03  0.14304140186E+03  0.00000000000E+00 0. -1.
<scales pt_clust_5="13000.00000" pt_clust_6="13000.00000" pt_clust_7="13000.00000" pt_clust_8="13000.00000" pt_clust_9="112.56154" pt_clust_10="20.58256"></scales>
<clustering>
<clus scale="   20.583">  2 10  1 -1</clus>
<clus scale="   90.142">  7  8 -1 -1</clus>
<clus scale="   93.903">  5  6 -1 -1</clus>
<clus scale="  112.190">  2  5  1 -1</clus>
<clus scale="  112.562">  2  9  1 -1</clus>
<clus scale="   20.583">  2  5  1 -1</clus>
</clustering>
</event>
<event>
10    2  0.1133532E-006  0.1417244E+03  0.7546771E-02  0.1216423E+00
         -1   -1    0    0    0  501 -0.00000000000E+00  0.00000000000E+00  0.27351684880E+03  0.27351684880E+03  0.00000000000E+00 0.  1.
          1   -1    0    0  503    0  0.00000000000E+00 -0.00000000000E+00 -0.56780852604E+03  0.56780852604E+03  0.00000000000E+00 0. -1.
         23    2    1    2    0    0  0.75558192300E+02 -0.29794840881E+02  0.13284394898E+03  0.18265001156E+03  0.95481615900E+02 0.  0.
         23    2    1    2    0    0 -0.83763956040E+02 -0.16443038567E+03 -0.28347708132E+03  0.35019523650E+03  0.90684596119E+02 0.  0.
        -11    1    3    3    0    0  0.58097923578E+02 -0.93972033260E+01  0.14245361772E+03  0.15413211656E+03  0.00000000000E+00 0.  1.
         11    1    3    3    0    0  0.17460268722E+02 -0.20397637555E+02 -0.96096687404E+01  0.28517894996E+02  0.00000000000E+00 0. -1.
        -13    1    4    4    0    0 -0.29365796656E+02 -0.18700040130E+02 -0.11824330071E+03  0.12326199608E+03  0.00000000000E+00 0.  1.
         13    1    4    4    0    0 -0.54398159384E+02 -0.14573034554E+03 -0.16523378060E+03  0.22693324042E+03  0.00000000000E+00 0. -1.
         21    1    1    2  502  501 -0.47053234808E+02  0.11405792397E+03  0.12961770508E+02  0.12406137361E+03  0.00000000000E+00 0. -1.
         21    1    1    2  503  502  0.55258998547E+02  0.80167302579E+02 -0.15662031541E+03  0.18441875317E+03  0.00000000000E+00 0. -1.
<scales pt_clust_5="13000.00000" pt_clust_6="13000.00000" pt_clust_7="13000.00000" pt_clust_8="13000.00000" pt_clust_9="108.91326" pt_clust_10="97.36711"></scales>
<clustering>
<clus scale="   90.685">  7  8 -1 -1</clus>
<clus scale="   95.482">  5  6 -1 -1</clus>
<clus scale="   97.367">  2 10  1 -1</clus>
<clus scale="  126.391">  1  5  2 -1</clus>
<clus scale="  108.913">  1  9  2 -1</clus>
<clus scale="   97.367">  2  5  1 -1</clus>
</clustering>
</event>
<event>
10    2  0.1133532E-006  0.1079250E+03  0.7546771E-02  0.1265608E+00
          4   -1    0    0  503    0  0.00000000000E+00  0.00000000000E+00  0.13882283554E+03  0.13882283554E+03  0.00000000000E+00 0. -1.
         -4   -1    0    0    0  501 -0.00000000000E+00 -0.00000000000E+00 -0.87585368500E+03  0.87585368500E+03  0.00000000000E+00 0.  1.
         23    2    1    2    0    0 -0.10937844544E+02  0.12357380691E+02 -0.32442587761E+03  0.33735720395E+03  0.91024126999E+02 0.  0.
         23    2    1    2    0    0  0.15584145758E+02  0.37048122996E+02  0.83419628122E+02  0.12786861737E+03  0.88182310788E+02 0.  0.
        -11    1    4    4    0    0  0.41025581223E+02 -0.50894070992E+01  0.15856646377E+02  0.44276784138E+02  0.00000000000E+00 0.  1.
         11    1    4    4    0    0 -0.25441435464E+02  0.42137530095E+02  0.67562981746E+02  0.83591833234E+02  0.00000000000E+00 0. -1.
        -13    1    3    3    0    0  0.40345717681E+02  0.41149153582E+01 -0.13963464210E+03  0.14540475486E+03  0.00000000000E+00 0. -1.
         13    1    3    3    0    0 -0.51283562225E+02  0.82424653328E+01 -0.18479123551E+03  0.19195244909E+03  0.00000000000E+00 0.  1.
         21    1    1    2  502  501 -0.23794078864E+02 -0.70101639053E+02 -0.51181082748E+03  0.51713704287E+03  0.00000000000E+00 0.  1.
         21    1    1    2  503  502  0.19147777649E+02  0.20696135365E+02  0.15786227497E+02  0.32313656348E+02  0.00000000000E+00 0.  1.
<scales pt_clust_5="13000.00000" pt_clust_6="13000.00000" pt_clust_7="13000.00000" pt_clust_8="13000.00000" pt_clust_9="73.43265" pt_clust_10="28.19517"></scales>
<clustering>
<clus scale="   28.195">  1 10  2 -1</clus>
<clus scale="   73.433">  2  9  1 -1</clus>
<clus scale="   88.182">  5  6 -1 -1</clus>
<clus scale="   91.024">  7  8 -1 -1</clus>
<clus scale="  105.539">  1  5  2 -1</clus>
<clus scale="   28.195">  1  5  2 -1</clus>
</clustering>
</event>
<event>
10    2  0.1133532E-006  0.1744883E+03  0.7546771E-02  0.1173251E+00
          2   -1    0    0  503    0  0.00000000000E+00  0.00000000000E+00  0.16985873574E+03  0.16985873574E+03  0.00000000000E+00 0. -1.
         -2   -1    0    0    0  501 -0.00000000000E+00 -0.00000000000E+00 -0.58958189064E+03  0.58958189064E+03  0.00000000000E+00 0.  1.
         23    2    1    2    0    0  0.57066845060E+02 -0.16891412369E+03 -0.45517162198E+03  0.49704020289E+03  0.89884102339E+02 0.  0.
         23    2    1    2    0    0 -0.18109527523E+02  0.90277620374E+02  0.72626564487E+02  0.14777881043E+03  0.89921939561E+02 0.  0.
        -13    1    4    4    0    0 -0.52887403395E+02  0.42732514084E+02  0.51126096088E+02  0.85070693538E+02  0.00000000000E+00 0. -1.
         13    1    4    4    0    0  0.34777875873E+02  0.47545106290E+02  0.21500468399E+02  0.62708116889E+02  0.00000000000E+00 0.  1.
        -13    1    3    3    0    0 -0.24370955895E+02 -0.32619074883E+02 -0.10164432470E+03  0.10949664964E+03  0.00000000000E+00 0. -1.
         13    1    3    3    0    0  0.81437800955E+02 -0.13629504881E+03 -0.35352729727E+03  0.38754355326E+03  0.00000000000E+00 0.  1.
         21    1    1    2  502  501 -0.42819894798E+00  0.22420451846E+02 -0.40602381413E+02  0.46383330969E+02  0.00000000000E+00 0. -1.
         21    1    1    2  503  502 -0.38529118589E+02  0.56216051468E+02  0.34242840101E+01  0.68238282093E+02  0.00000000000E+00 0. -1.
<scales pt_clust_5="13000.00000" pt_clust_6="13000.00000" pt_clust_7="13000.00000" pt_clust_8="13000.00000" pt_clust_9="22.42454" pt_clust_10="69.26802"></scales>
<clustering>
<clus scale="   22.425">  2  9  1 -1</clus>
<clus scale="   69.268">  1 10  2 -1</clus>
<clus scale="   89.884">  7  8 -1 -1</clus>
<clus scale="   89.922">  5  6 -1 -1</clus>
<clus scale="  174.469">  2  7  1 -1</clus>
<clus scale="   69.268">  1  5  2 -1</clus>
</clustering>
</event>
<event>
10    2  0.1133532E-006  0.1172940E+03  0.7546771E-02  0.1248147E+00
         -1   -1    0    0    0  501 -0.00000000000E+00  0.00000000000E+00  0.52249756019E+03  0.52249756019E+03  0.00000000000E+00 0.  1.
          1   -1    0    0  503    0  0.00000000000E+00 -0.00000000000E+00 -0.23134075560E+03  0.23134075560E+03  0.00000000000E+00 0. -1.
         23    2    1    2    0    0  0.21278108443E+02  0.57140331342E+01  0.19629661952E+03  0.21793275717E+03  0.92070167480E+02 0.  0.
         23    2    1    2    0    0 -0.10603547832E+03  0.34685168223E+02 -0.16330960541E+03  0.21751035451E+03  0.90521508733E+02 0.  0.
        -13    1    3    3    0    0  0.25922793324E+02 -0.39898313831E+02  0.82335947114E+02  0.95095083192E+02  0.00000000000E+00 0. -1.
         13    1    3    3    0    0 -0.46446848810E+01  0.45612346965E+02  0.11396067241E+03  0.12283767398E+03  0.00000000000E+00 0.  1.
        -13    1    4    4    0    0 -0.66600871573E+02  0.58169422973E+02 -0.14110609884E+03  0.16652413937E+03  0.00000000000E+00 0. -1.
         13    1    4    4    0    0 -0.39434606747E+02 -0.23484254750E+02 -0.22203506572E+02  0.50986215142E+02  0.00000000000E+00 0.  1.
         21    1    1    2  502  501  0.49359110111E+02 -0.39632341081E+02  0.27282731425E+03  0.28007461079E+03  0.00000000000E+00 0.  1.
         21    1    1    2  503  502  0.35398259767E+02 -0.76686027623E+00 -0.14657523767E+02  0.38320593317E+02  0.00000000000E+00 0. -1.
<scales pt_clust_5="13000.00000" pt_clust_6="13000.00000" pt_clust_7="13000.00000" pt_clust_8="13000.00000" pt_clust_9="63.79910" pt_clust_10="35.40657"></scales>
<clustering>
<clus scale="   35.407">  2 10  1 -1</clus>
<clus scale="   63.799">  1  9  2 -1</clus>
<clus scale="   90.522">  7  8 -1 -1</clus>
<clus scale="   92.070">  5  6 -1 -1</clus>
<clus scale="  116.082">  2  7  1 -1</clus>
<clus scale="   35.407">  2  5  1 -1</clus>
</clustering>
</event>
<event>
10    2  0.1133532E-006  0.1063113E+03  0.7546771E-02  0.1267656E+00
          1   -1    0    0  503    0  0.00000000000E+00  0.00000000000E+00  0.10438764585E+04  0.10438764585E+04  0.00000000000E+00 0. -1.
         -1   -1    0    0    0  501 -0.00000000000E+00 -0.00000000000E+00 -0.33203501384E+02  0.33203501384E+02  0.00000000000E+00 0.  1.
         23    2    1    2    0    0  0.35885604486E+02 -0.31958174364E+02  0.35884229959E+03  0.37344753758E+03  0.91576011219E+02 0.  0.
         23    2    1    2    0    0  0.18673260190E+02  0.76927747555E+02  0.39507995202E+03  0.41315556091E+03  0.91338819958E+02 0.  0.
        -11    1    3    3    0    0  0.32298523304E+02  0.23714304665E+02  0.84876813130E+02  0.93859662585E+02  0.00000000000E+00 0.  1.
         11    1    3    3    0    0  0.35870811819E+01 -0.55672479029E+02  0.27396548646E+03  0.27958787499E+03  0.00000000000E+00 0. -1.
        -13    1    4    4    0    0 -0.34186743497E+01  0.71025974429E+02  0.37795836839E+03  0.38458926742E+03  0.00000000000E+00 0. -1.
         13    1    4    4    0    0  0.22091934539E+02  0.59017731254E+01  0.17121583630E+02  0.28566293489E+02  0.00000000000E+00 0.  1.
         21    1    1    2  502  501 -0.70175722226E+02 -0.85513765160E+00  0.74651946215E+02  0.10246109664E+03  0.00000000000E+00 0. -1.
         21    1    1    2  503  502  0.15616857551E+02 -0.44114435539E+02  0.18209875926E+03  0.18801576473E+03  0.00000000000E+00 0. -1.
<scales pt_clust_5="13000.00000" pt_clust_6="13000.00000" pt_clust_7="13000.00000" pt_clust_8="13000.00000" pt_clust_9="68.77803" pt_clust_10="46.79711"></scales>
<clustering>
<clus scale="   46.797">  1 10  2 -1</clus>
<clus scale="   68.778">  2  9  1 -1</clus>
<clus scale="   91.339">  7  8 -1 -1</clus>
<clus scale="   91.576">  5  6 -1 -1</clus>
<clus scale="  106.107">  1  7  2 -1</clus>
<clus scale="   46.797">  1  5  2 -1</clus>
</clustering>
</event>
<event>
10    2  0.1133532E-006  0.1294209E+03  0.7546771E-02  0.1228673E+00
          2   -1    0    0  503    0  0.00000000000E+00  0.00000000000E+00  0.68533652488E+03  0.68533652488E+03  0.00000000000E+00 0. -1.
         -2   -1    0    0    0  501 -0.00000000000E+00 -0.00000000000E+00 -0.57939753905E+02  0.57939753905E+02  0.00000000000E+00 0.  1.
         23    2    1    2    0    0  0.11428931158E+03  0.56484664538E+02  0.16667009332E+03  0.22774261542E+03  0.88516748693E+02 0.  0.
         23    2    1    2    0    0 -0.62388301610E+02 -0.42864623286E+02  0.34608083030E+03  0.36481766778E+03  0.87122405387E+02 0.  0.
        -13    1    4    4    0    0 -0.82385452174E+02 -0.32063392149E+02  0.30832700259E+03  0.32075062646E+03  0.00000000000E+00 0.  1.
         13    1    4    4    0    0  0.19997150564E+02 -0.10801231136E+02  0.37753827703E+02  0.44067041323E+02  0.00000000000E+00 0. -1.
        -13    1    3    3    0    0  0.29835294460E+02  0.37704573883E+02  0.10507824095E+02  0.49215790702E+02  0.00000000000E+00 0.  1.
         13    1    3    3    0    0  0.84454017125E+02  0.18780090655E+02  0.15616226922E+03  0.17852682471E+03  0.00000000000E+00 0. -1.
         21    1    1    2  502  501 -0.29762143193E+02 -0.27462967608E+02  0.84653278173E+01  0.41372231415E+02  0.00000000000E+00 0. -1.
         21    1    1    2  503  502 -0.22138866782E+02  0.13842926355E+02  0.10618051954E+03  0.10934376417E+03  0.00000000000E+00 0. -1.
<scales pt_clust_5="13000.00000" pt_clust_6="13000.00000" pt_clust_7="13000.00000" pt_clust_8="13000.00000" pt_clust_9="40.80833" pt_clust_10="26.11046"></scales>
<clustering>
<clus scale="   26.110">  1 10  2 -1</clus>
<clus scale="   40.808">  2  9  1 -1</clus>
<clus scale="   87.122">  5  6 -1 -1</clus>
<clus scale="   88.517">  7  8 -1 -1</clus>
<clus scale="  128.471">  1  5  2 -1</clus>
<clus scale="   26.110">  1  5  2 -1</clus>
</clustering>
</event>
<event>
10    2  0.1133532E-006  0.1069340E+03  0.7546771E-02  0.1266955E+00
          1   -1    0    0  503    0  0.00000000000E+00  0.00000000000E+00  0.93199204140E+03  0.93199204140E+03  0.00000000000E+00 0. -1.
         -1   -1    0    0    0  501 -0.00000000000E+00 -0.00000000000E+00 -0.49872503129E+02  0.49872503129E+02  0.00000000000E+00 0.  1.
         23    2    1    2    0    0 -0.33263020916E+02 -0.24590621146E+02  0.34483733648E+02  0.10800528250E+03  0.93620969617E+02 0.  0.
         23    2    1    2    0    0  0.74705238041E+02  0.22190457082E+02  0.68052544608E+03  0.69115083944E+03  0.92202554848E+02 0.  0.
        -11    1    3    3    0    0 -0.41900262357E+02 -0.35349732745E+01  0.60348678844E+02  0.73553321202E+02  0.00000000000E+00 0. -1.
         11    1    3    3    0    0  0.86372414409E+01 -0.21055647872E+02 -0.25864945196E+02  0.34451961294E+02  0.00000000000E+00 0.  1.
        -13    1    4    4    0    0 -0.10873458023E+02  0.32342042197E+02  0.16789635931E+03  0.17132841927E+03  0.00000000000E+00 0. -1.
         13    1    4    4    0    0  0.85578696064E+02 -0.10151585115E+02  0.51262908678E+03  0.51982242017E+03  0.00000000000E+00 0.  1.
         21    1    1    2  502  501 -0.15729099410E+02  0.14126299432E+02  0.10567999667E+02  0.23635556284E+02  0.00000000000E+00 0.  1.
         21    1    1    2  503  502 -0.25713117715E+02 -0.11726135368E+02  0.15654235887E+03  0.15907286631E+03  0.00000000000E+00 0.  1.
<scales pt_clust_5="13000.00000" pt_clust_6="13000.00000" pt_clust_7="13000.00000" pt_clust_8="13000.00000" pt_clust_9="21.14136" pt_clust_10="28.51299"></scales>
<clustering>
<clus scale="   21.141">  2  9  1 -1</clus>
<clus scale="   28.513">  1 10  2 -1</clus>
<clus scale="   92.203">  7  8 -1 -1</clus>
<clus scale="   93.621">  5  6 -1 -1</clus>
<clus scale="  105.694">  1  7  2 -1</clus>
<clus scale="   28.513">  1  5  2 -1</clus>
</clustering>
</event>
<event>
10    2  0.1133532E-006  0.3380136E+03  0.7546771E-02  0.1067671E+00
         -1   -1    0    0    0  501 -0.00000000000E+00  0.00000000000E+00  0.16799626873E+03  0.16799626873E+03  0.00000000000E+00 0.  1.
          1   -1    0    0  503    0  0.00000000000E+00 -0.00000000000E+00 -0.14761072090E+04  0.14761072090E+04  0.00000000000E+00 0. -1.
         23    2    1    2    0    0 -0.24568762499E+03 -0.27105432025E+03 -0.25372186662E+03  0.45445618984E+03  0.91229322484E+02 0.  0.
         23    2    1    2    0    0  0.20694714383E+03  0.22665102203E+03 -0.82046815014E+03  0.88082491502E+03  0.92123500837E+02 0.  0.
        -13    1    4    4    0    0  0.76069431887E+02  0.28414514572E+02 -0.17162186494E+03  0.18986312868E+03  0.00000000000E+00 0.  1.
         13    1    4    4    0    0  0.13087771194E+03  0.19823650746E+03 -0.64884628520E+03  0.69096178634E+03  0.00000000000E+00 0. -1.
        -13    1    3    3    0    0 -0.18019366010E+03 -0.25008983922E+03 -0.20548083619E+03  0.37045520223E+03  0.00000000000E+00 0.  1.
         13    1    3    3    0    0 -0.65493964888E+02 -0.20964481037E+02 -0.48241030429E+02  0.84000987606E+02  0.00000000000E+00 0. -1.
         21    1    1    2  502  501  0.11686140505E+02  0.58167043582E+02  0.12422474085E+02  0.60615911289E+02  0.00000000000E+00 0.  1.
         21    1    1    2  503  502  0.27054340659E+02 -0.13763745358E+02 -0.24634339754E+03  0.24820646154E+03  0.00000000000E+00 0.  1.
<scales pt_clust_5="13000.00000" pt_clust_6="13000.00000" pt_clust_7="13000.00000" pt_clust_8="13000.00000" pt_clust_9="59.17200" pt_clust_10="30.35421"></scales>
<clustering>
<clus scale="   30.354">  2 10  1 -1</clus>
<clus scale="   59.172">  1  9  2 -1</clus>
<clus scale="   91.229">  7  8 -1 -1</clus>
<clus scale="   92.124">  5  6 -1 -1</clus>
<clus scale="  337.771">  1  7  2 -1</clus>
<clus scale="   30.354">  2  5  1 -1</clus>
</clustering>
</event>
<event>
10    2  0.1133532E-006  0.1978835E+03  0.7546771E-02  0.1161158E+00
         -1   -1    0    0    0  501 -0.00000000000E+00  0.00000000000E+00  0.61280529791E+02  0.61280529791E+02  0.00000000000E+00 0.  1.
          1   -1    0    0  503    0  0.00000000000E+00 -0.00000000000E+00 -0.29950529092E+04  0.29950529092E+04  0.00000000000E+00 0. -1.
         23    2    1    2    0    0  0.17610281652E+03  0.80786529815E+02 -0.52177812503E+03  0.56379572704E+03  0.89858470306E+02 0.  0.
         23    2    1    2    0    0  0.10435496603E+03 -0.96850961622E+02 -0.80297614814E+03  0.82054326921E+03  0.90832232463E+02 0.  0.
        -13    1    4    4    0    0  0.85876468336E+02 -0.10653753243E+03 -0.76564947221E+03  0.77778154254E+03  0.00000000000E+00 0. -1.
         13    1    4    4    0    0  0.18478497694E+02  0.96865708047E+01 -0.37326675936E+02  0.42761726665E+02  0.00000000000E+00 0.  1.
        -13    1    3    3    0    0  0.34358208823E+02  0.56651131332E+02 -0.12017792979E+03  0.13723181848E+03  0.00000000000E+00 0.  1.
         13    1    3    3    0    0  0.14174460770E+03  0.24135398483E+02 -0.40160019524E+03  0.42656390856E+03  0.00000000000E+00 0. -1.
         21    1    1    2  502  501 -0.60362449578E+02  0.18252222301E+02 -0.17661549647E+02  0.65488161327E+02  0.00000000000E+00 0.  1.
         21    1    1    2  503  502 -0.22009533297E+03 -0.21877904942E+01 -0.15913565566E+04  0.16065062814E+04  0.00000000000E+00 0.  1.
<scales pt_clust_5="13000.00000" pt_clust_6="13000.00000" pt_clust_7="13000.00000" pt_clust_8="13000.00000" pt_clust_9="63.06163" pt_clust_10="176.30464"></scales>
<clustering>
<clus scale="   63.062">  1  9  2 -1</clus>
<clus scale="   89.858">  7  8 -1 -1</clus>
<clus scale="   90.832">  5  6 -1 -1</clus>
<clus scale="  157.949">  2  5  1 -1</clus>
<clus scale="  176.305">  2 10  1 -1</clus>
<clus scale="  157.949">  2  5  1 -1</clus>
</clustering>
</event>
<event>
10    2  0.1133532E-006  0.1432180E+03  0.7546771E-02  0.1209174E+00
          2   -1    0    0  503    0  0.00000000000E+00  0.00000000000E+00  0.61296193814E+02  0.61296193814E+02  0.00000000000E+00 0. -1.
         -2   -1    0    0    0  501 -0.00000000000E+00 -0.00000000000E+00 -0.79845063858E+03  0.79845063858E+03  0.00000000000E+00 0.  1.
         23    2    1    2    0    0  0.88035875030E+02  0.56180541170E+02 -0.41259922915E+03  0.43537989877E+03  0.91711307121E+02 0.  0.
         23    2    1    2    0    0 -0.54410799601E+02 -0.96012758385E+02 -0.13962632583E+03  0.19997197386E+03  0.91182753731E+02 0.  0.
        -11    1    3    3    0    0  0.85144367660E+02  0.13745841166E+02 -0.34414813126E+03  0.35479070978E+03  0.00000000000E+00 0.  1.
         11    1    3    3    0    0  0.28915073700E+01  0.42434700004E+02 -0.68451097890E+02  0.80589188987E+02  0.00000000000E+00 0. -1.
        -11    1    4    4    0    0 -0.42631619704E+02 -0.58359401656E+02 -0.21456322126E+02  0.75389976252E+02  0.00000000000E+00 0. -1.
         11    1    4    4    0    0 -0.11779179897E+02 -0.37653356730E+02 -0.11817000370E+03  0.12458199760E+03  0.00000000000E+00 0.  1.
         21    1    1    2  502  501 -0.30224951547E+01  0.27311141079E+02 -0.18908378932E+03  0.19106991728E+03  0.00000000000E+00 0.  1.
         21    1    1    2  503  502 -0.30602580274E+02  0.12521076135E+02  0.41548995361E+01  0.33325042493E+02  0.00000000000E+00 0. -1.
<scales pt_clust_5="13000.00000" pt_clust_6="13000.00000" pt_clust_7="13000.00000" pt_clust_8="13000.00000" pt_clust_9="27.47788" pt_clust_10="33.38504"></scales>
<clustering>
<clus scale="   27.478">  2  9  1 -1</clus>
<clus scale="   33.385">  1 10  2 -1</clus>
<clus scale="   91.183">  7  8 -1 -1</clus>
<clus scale="   91.711">  5  6 -1 -1</clus>
<clus scale="  142.880">  1  7  2 -1</clus>
<clus scale="   33.385">  1  5  2 -1</clus>
</clustering>
</event>
<event>
10    2  0.1133532E-006  0.1276855E+03  0.7546771E-02  0.1231213E+00
          1   -1    0    0  503    0  0.00000000000E+00  0.00000000000E+00  0.75685025125E+03  0.75685025125E+03  0.00000000000E+00 0. -1.
         -1   -1    0    0    0  501 -0.00000000000E+00 -0.00000000000E+00 -0.10381185030E+03  0.10381185030E+03  0.00000000000E+00 0.  1.
         23    2    1    2    0    0  0.14489652267E+02 -0.11790499759E+03  0.25601926113E+03  0.29653915533E+03  0.90983900195E+02 0.  0.
         23    2    1    2    0    0  0.59647580749E+02  0.50692301506E+02  0.34362976389E+03  0.36424685598E+03  0.92015292961E+02 0.  0.
        -11    1    3    3    0    0 -0.35685681368E+02 -0.76578097019E+02  0.13823063907E+03  0.16200426654E+03  0.00000000000E+00 0.  1.
         11    1    3    3    0    0  0.50175333636E+02 -0.41326900569E+02  0.11778862206E+03  0.13453488880E+03  0.00000000000E+00 0. -1.
        -13    1    4    4    0    0  0.43653231479E+02  0.73329355184E+02  0.19209756226E+03  0.21020055275E+03  0.00000000000E+00 0.  1.
         13    1    4    4    0    0  0.15994349270E+02 -0.22637053678E+02  0.15153220162E+03  0.15404630322E+03  0.00000000000E+00 0. -1.
         21    1    1    2  502  501 -0.97022846717E+02  0.39094044363E+02 -0.30106032517E+02  0.10884920893E+03  0.00000000000E+00 0.  1.
         21    1    1    2  503  502  0.22885613701E+02  0.28118651719E+02  0.83495408452E+02  0.91026881313E+02  0.00000000000E+00 0. -1.
<scales pt_clust_5="13000.00000" pt_clust_6="13000.00000" pt_clust_7="13000.00000" pt_clust_8="13000.00000" pt_clust_9="103.99267" pt_clust_10="36.25479"></scales>
<clustering>
<clus scale="   36.255">  1 10  2 -1</clus>
<clus scale="   90.984">  5  6 -1 -1</clus>
<clus scale="   92.015">  7  8 -1 -1</clus>
<clus scale="  103.993">  2  9  1 -1</clus>
<clus scale="  126.944">  2  5  1 -1</clus>
<clus scale="   36.255">  1  5  2 -1</clus>
</clustering>
</event>
<event>
10    2  0.1133532E-006  0.9406349E+02  0.7546771E-02  0.1294908E+00
         -1   -1    0    0    0  501 -0.00000000000E+00  0.00000000000E+00  0.22926043055E+03  0.22926043055E+03  0.00000000000E+00 0.  1.
          1   -1    0    0  503    0  0.00000000000E+00 -0.00000000000E+00 -0.75833127373E+02  0.75833127373E+02  0.00000000000E+00 0. -1.
         23    2    1    2    0    0  0.72722052955E+01  0.51682993668E+01  0.97461303680E+02  0.13389520510E+03  0.91376276715E+02 0.  0.
         23    2    1    2    0    0 -0.26224648495E+02  0.34607341617E+02  0.23676980743E+02  0.10139823987E+03  0.88518943449E+02 0.  0.
        -11    1    3    3    0    0  0.37846865411E+02  0.19942084811E+02  0.16058991519E+02  0.45694235705E+02  0.00000000000E+00 0. -1.
         11    1    3    3    0    0 -0.30574660115E+02 -0.14773785445E+02  0.81402312161E+02  0.88200969398E+02  0.00000000000E+00 0.  1.
        -13    1    4    4    0    0  0.18250150148E+02 -0.15160556484E+02  0.25232968658E+02  0.34635432156E+02  0.00000000000E+00 0.  1.
         13    1    4    4    0    0 -0.44474798642E+02  0.49767898101E+02 -0.15559879148E+01  0.66762807715E+02  0.00000000000E+00 0. -1.
         21    1    1    2  502  501  0.48039028242E+01 -0.24956884789E+02  0.40429053559E+02  0.47753868455E+02  0.00000000000E+00 0.  1.
         21    1    1    2  503  502  0.14148540375E+02 -0.14818756195E+02 -0.81400348021E+01  0.22046244499E+02  0.00000000000E+00 0.  1.
<scales pt_clust_5="13000.00000" pt_clust_6="13000.00000" pt_clust_7="13000.00000" pt_clust_8="13000.00000" pt_clust_9="26.46215" pt_clust_10="20.48845"></scales>
<clustering>
<clus scale="   20.488">  2 10  1 -1</clus>
<clus scale="   26.462">  1  9  2 -1</clus>
<clus scale="   88.519">  7  8 -1 -1</clus>
<clus scale="   91.290">  2  7  1 -1</clus>
<clus scale="   91.376">  5  6 -1 -1</clus>
<clus scale="   20.488">  2  5  1 -1</clus>
</clustering>
</event>
<event>
10    2  0.1133532E-006  0.9581448E+02  0.7546771E-02  0.1291653E+00
         -3   -1    0    0    0  501 -0.00000000000E+00  0.00000000000E+00  0.23081981441E+03  0.23081981441E+03  0.00000000000E+00 0.  1.
          3   -1    0    0  503    0  0.00000000000E+00 -0.00000000000E+00 -0.10158349487E+03  0.10158349487E+03  0.00000000000E+00 0. -1.
         23    2    1    2    0    0 -0.20077420333E+02 -0.95513165272E+01  0.81425138999E+02  0.12323422835E+03  0.89790262951E+02 0.  0.
         23    2    1    2    0    0 -0.63933766247E-01  0.46757282627E+02 -0.14139845214E+02  0.10585826083E+03  0.93913729542E+02 0.  0.
        -13    1    4    4    0    0 -0.35040238519E+02  0.56522035833E+02  0.10124191879E+01  0.66510028137E+02  0.00000000000E+00 0.  1.
         13    1    4    4    0    0  0.34976304753E+02 -0.97647532061E+01 -0.15152264402E+02  0.39348232690E+02  0.00000000000E+00 0. -1.
        -13    1    3    3    0    0 -0.22833991028E+02 -0.47523746448E+02  0.58669525576E+02  0.78879723973E+02  0.00000000000E+00 0.  1.
         13    1    3    3    0    0  0.27565706950E+01  0.37972429921E+02  0.22755613423E+02  0.44354504375E+02  0.00000000000E+00 0. -1.
         21    1    1    2  502  501  0.24100359268E+02  0.34857210732E+01  0.57180371327E+02  0.62149597210E+02  0.00000000000E+00 0.  1.
         21    1    1    2  503  502 -0.39590051690E+01 -0.40691687173E+02  0.47706544244E+01  0.41161222899E+02  0.00000000000E+00 0.  1.
<scales pt_clust_5="13000.00000" pt_clust_6="13000.00000" pt_clust_7="13000.00000" pt_clust_8="13000.00000" pt_clust_9="24.35113" pt_clust_10="40.23050"></scales>
<clustering>
<clus scale="   24.351">  1  9  2 -1</clus>
<clus scale="   40.231">  2 10  1 -1</clus>
<clus scale="   89.790">  7  8 -1 -1</clus>
<clus scale="   91.776">  1  7  2 -1</clus>
<clus scale="   93.914">  5  6 -1 -1</clus>
<clus scale="   40.231">  2  5  1 -1</clus>
</clustering>
</event>
<event>
10    2  0.1133532E-006  0.1531601E+03  0.7546771E-02  0.1196723E+00
          1   -1    0    0  503    0  0.00000000000E+00  0.00000000000E+00  0.51449601614E+03  0.51449601614E+03  0.00000000000E+00 0. -1.
         -1   -1    0    0    0  501 -0.00000000000E+00 -0.00000000000E+00 -0.29192586518E+03  0.29192586518E+03  0.00000000000E+00 0.  1.
         23    2    1    2    0    0 -0.83970589850E+02 -0.96268525391E+02 -0.20121957007E+03  0.25571421854E+03  0.92637774393E+02 0.  0.
         23    2    1    2    0    0  0.10947258866E+03  0.13751088275E+03  0.23496849624E+03  0.30757592849E+03  0.92191469321E+02 0.  0.
        -11    1    4    4    0    0  0.85413356773E+02  0.13368274041E+03  0.23461072300E+03  0.28321141917E+03  0.00000000000E+00 0. -1.
         11    1    4    4    0    0  0.24059231884E+02  0.38281423417E+01  0.35777323815E+00  0.24364509318E+02  0.00000000000E+00 0.  1.
        -13    1    3    3    0    0 -0.25201932659E+02 -0.34412808405E+02 -0.15056082569E+03  0.15648623270E+03  0.00000000000E+00 0.  1.
         13    1    3    3    0    0 -0.58768657191E+02 -0.61855716987E+02 -0.50658744378E+02  0.99227985841E+02  0.00000000000E+00 0. -1.
         21    1    1    2  502  501 -0.57730538781E+01  0.25839335979E+02 -0.13032660835E+02  0.29510162375E+02  0.00000000000E+00 0.  1.
         21    1    1    2  503  502 -0.19728944928E+02 -0.67081693342E+02  0.20185388562E+03  0.21362157192E+03  0.00000000000E+00 0. -1.
<scales pt_clust_5="13000.00000" pt_clust_6="13000.00000" pt_clust_7="13000.00000" pt_clust_8="13000.00000" pt_clust_9="26.47639" pt_clust_10="69.41977"></scales>
<clustering>
<clus scale="   26.476">  2  9  1 -1</clus>
<clus scale="   69.420">  1 10  2 -1</clus>
<clus scale="   92.191">  5  6 -1 -1</clus>
<clus scale="   92.638">  7  8 -1 -1</clus>
<clus scale="  152.891">  1  5  2 -1</clus>
<clus scale="   69.420">  1  5  2 -1</clus>
</clustering>
</event>
<event>
10    2  0.1133532E-006  0.1334386E+03  0.7546771E-02  0.1230090E+00
          2   -1    0    0  503    0  0.00000000000E+00  0.00000000000E+00  0.44442351738E+03  0.44442351738E+03  0.00000000000E+00 0.  1.
         -2   -1    0    0    0  501 -0.00000000000E+00 -0.00000000000E+00 -0.65021559981E+02  0.65021559981E+02  0.00000000000E+00 0. -1.
         23    2    1    2    0    0 -0.86953799346E+02 -0.15074810046E+02  0.15210079584E+03  0.20982475002E+03  0.11447078452E+03 0.  0.
         23    2    1    2    0    0  0.48155126288E+02  0.34912335424E+02  0.13842314233E+03  0.17593755884E+03  0.90858521493E+02 0.  0.
        -11    1    4    4    0    0  0.68806769707E+02  0.22504736475E+02  0.13271891870E+03  0.15117918542E+03  0.00000000000E+00 0.  1.
         11    1    4    4    0    0 -0.20651643419E+02  0.12407598949E+02  0.57042236214E+01  0.24758373426E+02  0.00000000000E+00 0. -1.
        -11    1    3    3    0    0 -0.25798633769E+02  0.28272690166E+02  0.12399731440E+03  0.12976998302E+03  0.00000000000E+00 0.  1.
         11    1    3    3    0    0 -0.61155165578E+02 -0.43347500211E+02  0.28103481434E+02  0.80054767004E+02  0.00000000000E+00 0. -1.
         21    1    1    2  502  501  0.52196365518E+02 -0.36077643837E+02  0.55929366399E+02  0.84582214347E+02  0.00000000000E+00 0.  1.
         21    1    1    2  503  502 -0.13397692460E+02  0.16240118459E+02  0.32948652833E+02  0.39100554143E+02  0.00000000000E+00 0. -1.
<scales pt_clust_5="13000.00000" pt_clust_6="13000.00000" pt_clust_7="13000.00000" pt_clust_8="13000.00000" pt_clust_9="59.97491" pt_clust_10="21.05326"></scales>
<clustering>
<clus scale="   21.053">  1 10  2 -1</clus>
<clus scale="   59.975">  2  9  1 -1</clus>
<clus scale="   90.859">  5  6 -1 -1</clus>
<clus scale="  113.831">  1  5  2 -1</clus>
<clus scale="  114.471">  7  8 -1 -1</clus>
<clus scale="   21.053">  1  5  2 -1</clus>
</clustering>
</event>
<event>
10    2  0.1133532E-006  0.9190577E+02  0.7546771E-02  0.1300094E+00
          1   -1    0    0  503    0  0.00000000000E+00  0.00000000000E+00  0.54188826365E+03  0.54188826365E+03  0.00000000000E+00 0. -1.
         -1   -1    0    0    0  501 -0.00000000000E+00 -0.00000000000E+00 -0.11385628164E+03  0.11385628164E+03  0.00000000000E+00 0.  1.
         23    2    1    2    0    0 -0.17522629323E+02 -0.35878685787E+01  0.17344820145E+03  0.19661775518E+03  0.90853440928E+02 0.  0.
         23    2    1    2    0    0 -0.95477384507E+00  0.86109310451E+01  0.28675353588E+03  0.30002691034E+03  0.87826515708E+02 0.  0.
        -11    1    4    4    0    0  0.36877599154E+02  0.11311059958E+02  0.21907489519E+03  0.22244484058E+03  0.00000000000E+00 0. -1.
         11    1    4    4    0    0 -0.37832372999E+02 -0.27001289127E+01  0.67678640686E+02  0.77582069758E+02  0.00000000000E+00 0.  1.
        -13    1    3    3    0    0  0.93483619516E+01  0.34219786311E+02  0.12332577245E+03  0.12832627088E+03  0.00000000000E+00 0. -1.
         13    1    3    3    0    0 -0.26870991275E+02 -0.37807654890E+02  0.50122428999E+02  0.68291484309E+02  0.00000000000E+00 0.  1.
         21    1    1    2  502  501  0.10029172131E+02 -0.27109382869E+02 -0.91114104852E+02  0.95589136601E+02  0.00000000000E+00 0.  1.
         21    1    1    2  503  502  0.84482310375E+01  0.22086320402E+02  0.58944349533E+02  0.63510743173E+02  0.00000000000E+00 0.  1.
<scales pt_clust_5="13000.00000" pt_clust_6="13000.00000" pt_clust_7="13000.00000" pt_clust_8="13000.00000" pt_clust_9="28.82238" pt_clust_10="23.64695"></scales>
<clustering>
<clus scale="   23.647">  1 10  2 -1</clus>
<clus scale="   28.822">  2  9  1 -1</clus>
<clus scale="   87.827">  5  6 -1 -1</clus>
<clus scale="   88.915">  1  5  2 -1</clus>
<clus scale="   90.853">  7  8 -1 -1</clus>
<clus scale="   23.647">  1  5  2 -1</clus>
</clustering>
</event>
<event>
10    2  0.1133532E-006  0.2418498E+03  0.7546771E-02  0.1118629E+00
         -1   -1    0    0    0  501 -0.00000000000E+00  0.00000000000E+00  0.12614111291E+03  0.12614111291E+03  0.00000000000E+00 0.  1.
          1   -1    0    0  503    0  0.00000000000E+00 -0.00000000000E+00 -0.10709268883E+04  0.10709268883E+04  0.00000000000E+00 0. -1.
         23    2    1    2    0    0 -0.94116639914E+02 -0.16226174983E+03 -0.21324435558E+03  0.29856779400E+03  0.92101873261E+02 0.  0.
         23    2    1    2    0    0  0.14030082879E+03  0.22389447298E+03 -0.23614454683E+03  0.36589407341E+03  0.91110747793E+02 0.  0.
        -11    1    4    4    0    0 -0.71832466098E+01  0.35327794806E+02 -0.12134149840E+02  0.38038003497E+02  0.00000000000E+00 0.  1.
         11    1    4    4    0    0  0.14748407540E+03  0.18856667818E+03 -0.22401039699E+03  0.32785606991E+03  0.00000000000E+00 0. -1.
        -11    1    3    3    0    0 -0.72356489560E+02 -0.15912642203E+03 -0.21430644579E+03  0.27655728606E+03  0.00000000000E+00 0.  1.
         11    1    3    3    0    0 -0.21760150353E+02 -0.31353278030E+01  0.10620902073E+01  0.22010507932E+02  0.00000000000E+00 0. -1.
         21    1    1    2  502  501 -0.35481905291E+02  0.13039598460E+01 -0.25017412456E+01  0.35593884637E+02  0.00000000000E+00 0.  1.
         21    1    1    2  503  502 -0.10702283590E+02 -0.62936682994E+02 -0.49289513169E+03  0.49701224912E+03  0.00000000000E+00 0. -1.
<scales pt_clust_5="13000.00000" pt_clust_6="13000.00000" pt_clust_7="13000.00000" pt_clust_8="13000.00000" pt_clust_9="35.50586" pt_clust_10="63.93115"></scales>
<clustering>
<clus scale="   35.506">  1  9  2 -1</clus>
<clus scale="   63.931">  2 10  1 -1</clus>
<clus scale="   91.111">  5  6 -1 -1</clus>
<clus scale="   92.102">  7  8 -1 -1</clus>
<clus scale="  241.474">  2  5  1 -1</clus>
<clus scale="   63.931">  2  5  1 -1</clus>
</clustering>
</event>
<event>
10    2  0.1133532E-006  0.1695002E+03  0.7546771E-02  0.1203987E+00
          1   -1    0    0  503    0  0.00000000000E+00  0.00000000000E+00  0.14238745390E+04  0.14238745390E+04  0.00000000000E+00 0. -1.
         -1   -1    0    0    0  501 -0.00000000000E+00 -0.00000000000E+00 -0.98733966430E+02  0.98733966430E+02  0.00000000000E+00 0.  1.
         23    2    1    2    0    0  0.16889863014E+02  0.22607781878E+02 -0.57093066212E+01  0.97615923406E+02  0.93273217197E+02 0.  0.
         23    2    1    2    0    0 -0.84589071787E+02  0.15494987063E+03  0.62550381469E+03  0.65610828667E+03  0.89767968541E+02 0.  0.
        -11    1    4    4    0    0 -0.62505654139E+01  0.59000885772E+02  0.10064839310E+03  0.11683438331E+03  0.00000000000E+00 0.  1.
         11    1    4    4    0    0 -0.78338506373E+02  0.95948984859E+02  0.52485542159E+03  0.53927390336E+03  0.00000000000E+00 0. -1.
        -13    1    3    3    0    0  0.48084206753E+02  0.22768596302E+01 -0.26520264687E+02  0.54959980604E+02  0.00000000000E+00 0.  1.
         13    1    3    3    0    0 -0.31194343739E+02  0.20330922248E+02  0.20810958066E+02  0.42655942803E+02  0.00000000000E+00 0. -1.
         21    1    1    2  502  501  0.93995596127E+02 -0.10179585449E+03  0.13679799260E+03  0.19470813764E+03  0.00000000000E+00 0.  1.
         21    1    1    2  503  502 -0.26296387354E+02 -0.75761798021E+02  0.56854807188E+03  0.57417615770E+03  0.00000000000E+00 0. -1.
<scales pt_clust_5="13000.00000" pt_clust_6="13000.00000" pt_clust_7="13000.00000" pt_clust_8="13000.00000" pt_clust_9="143.77773" pt_clust_10="80.19570"></scales>
<clustering>
<clus scale="   80.196">  1 10  2 -1</clus>
<clus scale="   89.768">  5  6 -1 -1</clus>
<clus scale="   93.273">  7  8 -1 -1</clus>
<clus scale="   96.345">  2  7  1 -1</clus>
<clus scale="  143.778">  2  9  1 -1</clus>
<clus scale="   80.196">  1  5  2 -1</clus>
</clustering>
</event>
<event>
10    2  0.1133532E-006  0.2481347E+03  0.7546771E-02  0.1150766E+00
         -1   -1    0    0    0  501 -0.00000000000E+00  0.00000000000E+00  0.23880820829E+03  0.23880820829E+03  0.00000000000E+00 0.  1.
          1   -1    0    0  503    0  0.00000000000E+00 -0.00000000000E+00 -0.12541510045E+04  0.12541510045E+04  0.00000000000E+00 0. -1.
         23    2    1    2    0    0 -0.43011730817E+01 -0.42326251222E+02 -0.85784446568E+02  0.13319750072E+03  0.92588289171E+02 0.  0.
         23    2    1    2    0    0 -0.16906859930E+03  0.78958931685E+02  0.10324679096E+03  0.23171061091E+03  0.90615689606E+02 0.  0.
        -11    1    3    3    0    0 -0.15296012898E+02  0.22707811507E+02 -0.52746038271E+02  0.59428589645E+02  0.00000000000E+00 0. -1.
         11    1    3    3    0    0  0.10994839816E+02 -0.65034062730E+02 -0.33038408297E+02  0.73768911070E+02  0.00000000000E+00 0.  1.
        -13    1    4    4    0    0 -0.39373829973E+02  0.36229517731E+02  0.75224746616E+02  0.92312723637E+02  0.00000000000E+00 0.  1.
         13    1    4    4    0    0 -0.12969476932E+03  0.42729413954E+02  0.28022044347E+02  0.13939788727E+03  0.00000000000E+00 0. -1.
         21    1    1    2  502  501 -0.58028208409E+02  0.39737061423E+01  0.10080188243E+02  0.59031123204E+02  0.00000000000E+00 0. -1.
         21    1    1    2  503  502  0.23139798079E+03 -0.40606386605E+02 -0.10428853288E+04  0.10690199779E+04  0.00000000000E+00 0. -1.
<scales pt_clust_5="13000.00000" pt_clust_6="13000.00000" pt_clust_7="13000.00000" pt_clust_8="13000.00000" pt_clust_9="58.16411" pt_clust_10="230.99704"></scales>
<clustering>
<clus scale="   58.164">  1  9  2 -1</clus>
<clus scale="   90.616">  7  8 -1 -1</clus>
<clus scale="   92.588">  5  6 -1 -1</clus>
<clus scale="  102.211">  1  5  2 -1</clus>
<clus scale="  230.997">  2 10  1 -1</clus>
<clus scale="  230.997">  2  5  1 -1</clus>
</clustering>
</event>
<event>
10    2  0.1133532E-006  0.1902688E+03  0.7546771E-02  0.1158522E+00
          1   -1    0    0  502    0  0.00000000000E+00  0.00000000000E+00  0.36261311656E+03  0.36261311656E+03  0.00000000000E+00 0. -1.
         -1   -1    0    0    0  501 -0.00000000000E+00 -0.00000000000E+00 -0.27547311621E+03  0.27547311621E+03  0.00000000000E+00 0.  1.
         23    2    1    2    0    0  0.18239686936E+03 -0.95980766219E+02  0.18194291933E+02  0.22623160824E+03  0.91481051990E+02 0.  0.
         23    2    1    2    0    0 -0.14844918635E+03  0.35856022544E+02  0.18866942657E+03  0.26037724220E+03  0.94219639434E+02 0.  0.
        -11    1    3    3    0    0  0.16039418555E+03 -0.58809812560E+02  0.43343854790E+02  0.17624862711E+03  0.00000000000E+00 0.  1.
         11    1    3    3    0    0  0.22002683811E+02 -0.37170953658E+02 -0.25149562857E+02  0.49982981130E+02  0.00000000000E+00 0. -1.
        -11    1    4    4    0    0 -0.10621310983E+03  0.68218276588E+02  0.13228223951E+03  0.18284843136E+03  0.00000000000E+00 0. -1.
         11    1    4    4    0    0 -0.42236076516E+02 -0.32362254044E+02  0.56387187064E+02  0.77528810846E+02  0.00000000000E+00 0.  1.
         21    1    1    2  502  503 -0.20925028004E+02  0.37838722388E+02 -0.11792565648E+03  0.12560289075E+03  0.00000000000E+00 0.  1.
         21    1    1    2  503  501 -0.13022655012E+02  0.22286021287E+02 -0.17980616766E+01  0.25874491573E+02  0.00000000000E+00 0.  1.
<scales pt_clust_5="13000.00000" pt_clust_6="13000.00000" pt_clust_7="13000.00000" pt_clust_8="13000.00000" pt_clust_9="55.24926" pt_clust_10="25.81194"></scales>
<clustering>
<clus scale="   25.812">  2 10  1 -1</clus>
<clus scale="   55.249">  2  9  1 -1</clus>
<clus scale="   91.481">  5  6 -1 -1</clus>
<clus scale="   94.220">  7  8 -1 -1</clus>
<clus scale="  188.928">  2  5  1 -1</clus>
<clus scale="  190.269">  1  5  2 -1</clus>
</clustering>
</event>
<event>
10    2  0.1133532E-006  0.1201228E+03  0.7546771E-02  0.1243428E+00
         -2   -1    0    0    0  501 -0.00000000000E+00  0.00000000000E+00  0.17792995873E+03  0.17792995873E+03  0.00000000000E+00 0.  1.
          2   -1    0    0  503    0  0.00000000000E+00 -0.00000000000E+00 -0.53423303415E+03  0.53423303415E+03  0.00000000000E+00 0. -1.
         23    2    1    2    0    0 -0.84993693554E+02 -0.39230745143E+01 -0.56843134387E+02  0.13688095856E+03  0.90917195471E+02 0.  0.
         23    2    1    2    0    0  0.99132766041E+02 -0.24766156002E+02 -0.21880649102E+03  0.25863180021E+03  0.92592979116E+02 0.  0.
        -13    1    3    3    0    0 -0.69933127875E+02  0.24392873926E+02 -0.28978945601E+01  0.74121875756E+02  0.00000000000E+00 0.  1.
         13    1    3    3    0    0 -0.15060565679E+02 -0.28315948440E+02 -0.53945239827E+02  0.62759082806E+02  0.00000000000E+00 0. -1.
        -13    1    4    4    0    0  0.26458486055E+02  0.30265750254E+02 -0.10743203817E+03  0.11470706146E+03  0.00000000000E+00 0.  1.
         13    1    4    4    0    0  0.72674279986E+02 -0.55031906256E+02 -0.11137445285E+03  0.14392473876E+03  0.00000000000E+00 0. -1.
         21    1    1    2  502  501  0.40347792915E+02  0.48279066317E+02  0.10487240120E+03  0.12229895000E+03  0.00000000000E+00 0.  1.
         21    1    1    2  503  502 -0.54486865402E+02 -0.19589835801E+02 -0.18552585120E+03  0.19435128410E+03  0.00000000000E+00 0. -1.
<scales pt_clust_5="13000.00000" pt_clust_6="13000.00000" pt_clust_7="13000.00000" pt_clust_8="13000.00000" pt_clust_9="61.65886" pt_clust_10="57.90147"></scales>
<clustering>
<clus scale="   57.901">  2 10  1 -1</clus>
<clus scale="   61.659">  1  9  2 -1</clus>
<clus scale="   90.917">  5  6 -1 -1</clus>
<clus scale="   92.593">  7  8 -1 -1</clus>
<clus scale="  118.836">  1  5  2 -1</clus>
<clus scale="   57.901">  2  5  1 -1</clus>
</clustering>
</event>
<event>
10    2  0.1133532E-006  0.1172988E+03  0.7546771E-02  0.1256337E+00
         -2   -1    0    0    0  501 -0.00000000000E+00  0.00000000000E+00  0.61909354993E+03  0.61909354993E+03  0.00000000000E+00 0. -1.
          2   -1    0    0  503    0  0.00000000000E+00 -0.00000000000E+00 -0.40683520701E+02  0.40683520701E+02  0.00000000000E+00 0.  1.
         23    2    1    2    0    0 -0.51752016910E+02 -0.43211913423E+02  0.26624221039E+03  0.28970719316E+03  0.92194373271E+02 0.  0.
         23    2    1    2    0    0 -0.75742980507E+01  0.16434350774E+02  0.13946603586E+03  0.17975990664E+03  0.11196156038E+03 0.  0.
        -11    1    4    4    0    0 -0.86654112596E+01 -0.48096547234E+02  0.60793872292E+02  0.78001680215E+02  0.00000000000E+00 0. -1.
         11    1    4    4    0    0  0.10911132089E+01  0.64530898008E+02  0.78672163566E+02  0.10175822643E+03  0.00000000000E+00 0.  1.
        -13    1    3    3    0    0 -0.73626996657E+02 -0.30339728181E+02  0.24138486890E+03  0.25418121228E+03  0.00000000000E+00 0. -1.
         13    1    3    3    0    0  0.21874979747E+02 -0.12872185243E+02  0.24857341487E+02  0.35525980882E+02  0.00000000000E+00 0.  1.
         21    1    1    2  502  501  0.37939096765E+02  0.21160555021E+02  0.15773702435E+03  0.16360963604E+03  0.00000000000E+00 0.  1.
         21    1    1    2  503  502  0.21387218195E+02  0.56170076281E+01  0.14964758628E+02  0.26700334785E+02  0.00000000000E+00 0.  1.
<scales pt_clust_5="13000.00000" pt_clust_6="13000.00000" pt_clust_7="13000.00000" pt_clust_8="13000.00000" pt_clust_9="45.24972" pt_clust_10="22.11253"></scales>
<clustering>
<clus scale="   22.113">  2 10  1 -1</clus>
<clus scale="   45.250">  1  9  2 -1</clus>
<clus scale="   92.194">  7  8 -1 -1</clus>
<clus scale="   98.607">  1  7  2 -1</clus>
<clus scale="  111.962">  5  6 -1 -1</clus>
<clus scale="   22.113">  2  5  1 -1</clus>
</clustering>
</event>
<event>
10    2  0.1133532E-006  0.1024260E+03  0.7546771E-02  0.1275726E+00
          1   -1    0    0  503    0  0.00000000000E+00  0.00000000000E+00  0.34638050303E+03  0.34638050303E+03  0.00000000000E+00 0. -1.
         -1   -1    0    0    0  501 -0.00000000000E+00 -0.00000000000E+00 -0.16509677122E+03  0.16509677122E+03  0.00000000000E+00 0.  1.
         23    2    1    2    0    0  0.34812215457E+02 -0.38843815835E+01 -0.78794805221E+02  0.12656915733E+03  0.92650696123E+02 0.  0.
         23    2    1    2    0    0 -0.37450002928E+02 -0.10312201422E+03  0.14594997852E+03  0.20430972969E+03  0.91675606779E+02 0.  0.
        -11    1    4    4    0    0  0.25729316748E+02 -0.23665378196E+02  0.13595722017E+02  0.37508552659E+02  0.00000000000E+00 0.  1.
         11    1    4    4    0    0 -0.63179319675E+02 -0.79456636022E+02  0.13235425651E+03  0.16680117703E+03  0.00000000000E+00 0. -1.
        -13    1    3    3    0    0  0.41352525096E+02  0.38267377462E+02 -0.46887848322E+02  0.73300026125E+02  0.00000000000E+00 0.  1.
         13    1    3    3    0    0 -0.65403096390E+01 -0.42151759046E+02 -0.31906956899E+02  0.53269131205E+02  0.00000000000E+00 0. -1.
         21    1    1    2  502  501 -0.30150792114E+01  0.26443191653E+02 -0.13284599842E+02  0.29745817865E+02  0.00000000000E+00 0.  1.
         21    1    1    2  503  502  0.56528666820E+01  0.80563204148E+02  0.12741315835E+03  0.15085256937E+03  0.00000000000E+00 0. -1.
<scales pt_clust_5="13000.00000" pt_clust_6="13000.00000" pt_clust_7="13000.00000" pt_clust_8="13000.00000" pt_clust_9="26.61453" pt_clust_10="82.89811"></scales>
<clustering>
<clus scale="   26.615">  2  9  1 -1</clus>
<clus scale="   82.898">  1 10  2 -1</clus>
<clus scale="   91.676">  5  6 -1 -1</clus>
<clus scale="   92.651">  7  8 -1 -1</clus>
<clus scale="  101.545">  1  5  2 -1</clus>
<clus scale="   82.898">  1  5  2 -1</clus>
</clustering>
</event>
<event>
10    2  0.1133532E-006  0.1321253E+03  0.7546771E-02  0.1235800E+00
          1   -1    0    0  502    0  0.00000000000E+00  0.00000000000E+00  0.32676601245E+03  0.32676601245E+03  0.00000000000E+00 0. -1.
         -1   -1    0    0    0  501 -0.00000000000E+00 -0.00000000000E+00 -0.13856232676E+03  0.13856232676E+03  0.00000000000E+00 0.  1.
         23    2    1    2    0    0 -0.61742366334E+02 -0.47242029711E+02  0.71195389405E+02  0.13919873857E+03  0.90904214280E+02 0.  0.
         23    2    1    2    0    0  0.22694216353E+02  0.27455138935E+02  0.17709707021E+03  0.21789673236E+03  0.12184745210E+03 0.  0.
        -11    1    4    4    0    0 -0.36891530260E+02  0.36109353984E+02  0.13470975624E+03  0.14426222263E+03  0.00000000000E+00 0.  1.
         11    1    4    4    0    0  0.59585746613E+02 -0.86542150492E+01  0.42387313971E+02  0.73634509730E+02  0.00000000000E+00 0. -1.
        -11    1    3    3    0    0 -0.71157577068E+02 -0.13983834097E+02  0.75118765352E+02  0.10441157646E+03  0.00000000000E+00 0. -1.
         11    1    3    3    0    0  0.94152107337E+01 -0.33258195614E+02 -0.39233759476E+01  0.34787162108E+02  0.00000000000E+00 0.  1.
         21    1    1    2  502  503  0.57432019012E+02 -0.36507325784E+01 -0.51512649754E+02  0.77235469448E+02  0.00000000000E+00 0.  1.
         21    1    1    2  503  501 -0.18383869030E+02  0.23437623355E+02 -0.85761241764E+01  0.30997398842E+02  0.00000000000E+00 0.  1.
<scales pt_clust_5="13000.00000" pt_clust_6="13000.00000" pt_clust_7="13000.00000" pt_clust_8="13000.00000" pt_clust_9="48.32370" pt_clust_10="29.78739"></scales>
<clustering>
<clus scale="   29.787">  2 10  1 -1</clus>
<clus scale="   48.324">  2  9  1 -1</clus>
<clus scale="   90.904">  7  8 -1 -1</clus>
<clus scale="  104.278">  2  7  1 -1</clus>
<clus scale="  121.847">  5  6 -1 -1</clus>
<clus scale="  132.125">  1  5  2 -1</clus>
</clustering>
</event>
<event>
10    2  0.1133532E-006  0.1073869E+03  0.7546771E-02  0.1268047E+00
         -2   -1    0    0    0  501 -0.00000000000E+00  0.00000000000E+00  0.34914974000E+03  0.34914974000E+03  0.00000000000E+00 0.  1.
          2   -1    0    0  503    0  0.00000000000E+00 -0.00000000000E+00 -0.32177523197E+03  0.32177523197E+03  0.00000000000E+00 0. -1.
         23    2    1    2    0    0  0.43135898501E+02 -0.85257936214E+02  0.24911219100E+03  0.27997064739E+03  0.84835477647E+02 0.  0.
         23    2    1    2    0    0 -0.34689364873E+02  0.54332253841E+02 -0.27546298726E+03  0.29719509862E+03  0.91047918450E+02 0.  0.
        -13    1    3    3    0    0  0.42078073199E+02 -0.66299725999E+01  0.13365317724E+03  0.14027719903E+03  0.00000000000E+00 0.  1.
         13    1    3    3    0    0  0.10578253025E+01 -0.78627963615E+02  0.11545901376E+03  0.13969344836E+03  0.00000000000E+00 0. -1.
        -13    1    4    4    0    0 -0.18323295944E+02 -0.22666497190E+02 -0.44588941494E+02  0.53269944365E+02  0.00000000000E+00 0.  1.
         13    1    4    4    0    0 -0.16366068930E+02  0.76998751031E+02 -0.23087404576E+03  0.24392515426E+03  0.00000000000E+00 0. -1.
         21    1    1    2  502  501 -0.23557687050E+01  0.50098067026E+02  0.53923336908E+02  0.73641647383E+02  0.00000000000E+00 0.  1.
         21    1    1    2  503  502 -0.60907649227E+01 -0.19172384653E+02 -0.19803263086E+00  0.20117578570E+02  0.00000000000E+00 0. -1.
<scales pt_clust_5="13000.00000" pt_clust_6="13000.00000" pt_clust_7="13000.00000" pt_clust_8="13000.00000" pt_clust_9="49.55705" pt_clust_10="20.11660"></scales>
<clustering>
<clus scale="   20.117">  2 10  1 -1</clus>
<clus scale="   49.557">  1  9  2 -1</clus>
<clus scale="   84.835">  5  6 -1 -1</clus>
<clus scale="   91.048">  7  8 -1 -1</clus>
<clus scale="  102.173">  1  5  2 -1</clus>
<clus scale="   20.117">  2  5  1 -1</clus>
</clustering>
</event>
<event>
10    2  0.1133532E-006  0.9686310E+02  0.7546771E-02  0.1288411E+00
         -1   -1    0    0    0  501 -0.00000000000E+00  0.00000000000E+00  0.49587746045E+03  0.49587746045E+03  0.00000000000E+00 0.  1.
          1   -1    0    0  503    0  0.00000000000E+00 -0.00000000000E+00 -0.13191236503E+03  0.13191236503E+03  0.00000000000E+00 0. -1.
         23    2    1    2    0    0  0.39634882964E+02 -0.26325378509E+02  0.30031893166E+03  0.31835096693E+03  0.94297019756E+02 0.  0.
         23    2    1    2    0    0  0.16829916482E+02  0.77553235556E+01  0.93753693335E+02  0.13248341057E+03  0.91753517259E+02 0.  0.
        -11    1    3    3    0    0  0.64133838771E+02 -0.19434134783E+02  0.27261965847E+03  0.28073530782E+03  0.00000000000E+00 0. -1.
         11    1    3    3    0    0 -0.24498955807E+02 -0.68912437260E+01  0.27699273183E+02  0.37615659114E+02  0.00000000000E+00 0.  1.
        -13    1    4    4    0    0 -0.29658022822E+02  0.21480427962E+02  0.68863069958E+02  0.77994419718E+02  0.00000000000E+00 0.  1.
         13    1    4    4    0    0  0.46487939304E+02 -0.13725104407E+02  0.24890623377E+02  0.54488990849E+02  0.00000000000E+00 0. -1.
         21    1    1    2  502  501 -0.31581812418E+02 -0.25630792668E+01  0.67211933486E+02  0.74306286772E+02  0.00000000000E+00 0.  1.
         21    1    1    2  503  502 -0.24882987028E+02  0.21133134220E+02 -0.97319463061E+02  0.10264916120E+03  0.00000000000E+00 0. -1.
<scales pt_clust_5="13000.00000" pt_clust_6="13000.00000" pt_clust_7="13000.00000" pt_clust_8="13000.00000" pt_clust_9="31.68565" pt_clust_10="32.78696"></scales>
<clustering>
<clus scale="   31.686">  1  9  2 -1</clus>
<clus scale="   32.787">  2 10  1 -1</clus>
<clus scale="   91.754">  7  8 -1 -1</clus>
<clus scale="   94.297">  5  6 -1 -1</clus>
<clus scale="   94.389">  2  7  1 -1</clus>
<clus scale="   32.787">  2  5  1 -1</clus>
</clustering>
</event>
<event>
10    2  0.1133532E-006  0.9062943E+02  0.7546771E-02  0.1303221E+00
          2   -1    0    0  502    0  0.00000000000E+00  0.00000000000E+00  0.44132498095E+02  0.44132498095E+02  0.00000000000E+00 0. -1.
         -2   -1    0    0    0  501 -0.00000000000E+00 -0.00000000000E+00 -0.40255723109E+03  0.40255723109E+03  0.00000000000E+00 0.  1.
         23    2    1    2    0    0  0.16904475513E+02  0.30980053805E+02 -0.15967386140E+03  0.18434040626E+03  0.85088884944E+02 0.  0.
         23    2    1    2    0    0 -0.20734013551E+02  0.17071226811E+02 -0.14328069242E+03  0.17041353424E+03  0.88261484975E+02 0.  0.
        -11    1    4    4    0    0 -0.14136974419E+02  0.49455476147E+02 -0.51172822855E+02  0.72555881675E+02  0.00000000000E+00 0.  1.
         11    1    4    4    0    0 -0.65970391324E+01 -0.32384249336E+02 -0.92107869563E+02  0.97857652567E+02  0.00000000000E+00 0. -1.
        -13    1    3    3    0    0  0.18475406206E+02 -0.18058902872E+02 -0.11545445859E+02  0.28297737144E+02  0.00000000000E+00 0. -1.
         13    1    3    3    0    0 -0.15709306936E+01  0.49038956677E+02 -0.14812841554E+03  0.15604266912E+03  0.00000000000E+00 0.  1.
         21    1    1    2  502  503 -0.16927088158E+02 -0.41697452022E+02 -0.17671829073E+02  0.48347671727E+02  0.00000000000E+00 0. -1.
         21    1    1    2  503  501  0.20756626196E+02 -0.63538285938E+01 -0.37798350105E+02  0.43588116953E+02  0.00000000000E+00 0. -1.
<scales pt_clust_5="13000.00000" pt_clust_6="13000.00000" pt_clust_7="13000.00000" pt_clust_8="13000.00000" pt_clust_9="44.87048" pt_clust_10="21.70734"></scales>
<clustering>
<clus scale="   21.707">  2 10  1 -1</clus>
<clus scale="   44.870">  1  9  2 -1</clus>
<clus scale="   85.089">  7  8 -1 -1</clus>
<clus scale="   87.543">  2  7  1 -1</clus>
<clus scale="   88.261">  5  6 -1 -1</clus>
<clus scale="   44.870">  1  5  2 -1</clus>
</clustering>
</event>
<event>
10    2  0.1133532E-006  0.1945538E+03  0.7546771E-02  0.1154507E+00
         -1   -1    0    0    0  501 -0.00000000000E+00  0.00000000000E+00  0.32654941031E+03  0.32654941031E+03  0.00000000000E+00 0.  1.
          1   -1    0    0  503    0  0.00000000000E+00 -0.00000000000E+00 -0.47429310171E+03  0.47429310171E+03  0.00000000000E+00 0. -1.
         23    2    1    2    0    0  0.20045116368E+03  0.21958634015E+02  0.38642464914E+02  0.22464110558E+03  0.91145683360E+02 0.  0.
         23    2    1    2    0    0 -0.14111322097E+03 -0.69318354690E+02 -0.20233674775E+03  0.27226005450E+03  0.92018489214E+02 0.  0.
        -13    1    4    4    0    0 -0.34124389954E+01 -0.23753936849E+02 -0.87039199732E+00  0.24013576117E+02  0.00000000000E+00 0.  1.
         13    1    4    4    0    0 -0.13770078197E+03 -0.45564417841E+02 -0.20146635575E+03  0.24824647838E+03  0.00000000000E+00 0. -1.
        -13    1    3    3    0    0  0.68117169341E+02  0.15472998025E+02  0.57934460668E+02  0.90751111066E+02  0.00000000000E+00 0.  1.
         13    1    3    3    0    0  0.13233399434E+03  0.64856359906E+01 -0.19291995754E+02  0.13388999452E+03  0.00000000000E+00 0. -1.
         21    1    1    2  502  501 -0.35927166462E+02  0.10628409246E+02  0.15435901006E+03  0.15884089008E+03  0.00000000000E+00 0.  1.
         21    1    1    2  503  502 -0.23410776248E+02  0.36731311429E+02 -0.13840841863E+03  0.14510046186E+03  0.00000000000E+00 0. -1.
<scales pt_clust_5="13000.00000" pt_clust_6="13000.00000" pt_clust_7="13000.00000" pt_clust_8="13000.00000" pt_clust_9="37.46631" pt_clust_10="44.11677"></scales>
<clustering>
<clus scale="   37.466">  1  9  2 -1</clus>
<clus scale="   44.117">  2 10  1 -1</clus>
<clus scale="   91.146">  7  8 -1 -1</clus>
<clus scale="   92.018">  5  6 -1 -1</clus>
<clus scale="  194.143">  1  7  2 -1</clus>
<clus scale="   44.117">  2  5  1 -1</clus>
</clustering>
</event>
<event>
10    2  0.1133532E-006  0.1118878E+03  0.7546771E-02  0.1260545E+00
         -1   -1    0    0    0  501 -0.00000000000E+00  0.00000000000E+00  0.36317459792E+03  0.36317459792E+03  0.00000000000E+00 0.  1.
          1   -1    0    0  503    0  0.00000000000E+00 -0.00000000000E+00 -0.53760627276E+02  0.53760627276E+02  0.00000000000E+00 0. -1.
         23    2    1    2    0    0 -0.55160713155E+02 -0.21963202095E+02  0.11552208700E+03  0.16356034839E+03  0.99405977985E+02 0.  0.
         23    2    1    2    0    0  0.43678053377E+02  0.57682056666E+01  0.12202303628E+03  0.15852341347E+03  0.91098884138E+02 0.  0.
        -11    1    3    3    0    0 -0.50932020348E+02 -0.56165172020E+02  0.54138215970E+02  0.93164068573E+02  0.00000000000E+00 0. -1.
         11    1    3    3    0    0 -0.42286928074E+01  0.34201969925E+02  0.61383871031E+02  0.70396279819E+02  0.00000000000E+00 0.  1.
        -13    1    4    4    0    0 -0.21440762775E+01  0.22392063630E+02  0.10423522852E+03  0.10663481815E+03  0.00000000000E+00 0.  1.
         13    1    4    4    0    0  0.45822129655E+02 -0.16623857963E+02  0.17787807764E+02  0.51888595324E+02  0.00000000000E+00 0. -1.
         21    1    1    2  502  501  0.33818588642E+02  0.18935051598E+02  0.51829136395E+02  0.64718563768E+02  0.00000000000E+00 0. -1.
         21    1    1    2  503  502 -0.22335928864E+02 -0.27400551696E+01  0.20039710962E+02  0.30132899562E+02  0.00000000000E+00 0.  1.
<scales pt_clust_5="13000.00000" pt_clust_6="13000.00000" pt_clust_7="13000.00000" pt_clust_8="13000.00000" pt_clust_9="36.02086" pt_clust_10="22.50337"></scales>
<clustering>
<clus scale="   22.503">  2 10  1 -1</clus>
<clus scale="   36.021">  1  9  2 -1</clus>
<clus scale="   91.099">  7  8 -1 -1</clus>
<clus scale="   99.406">  5  6 -1 -1</clus>
<clus scale="  104.577">  2  7  1 -1</clus>
<clus scale="   22.503">  2  5  1 -1</clus>
</clustering>
</event>
<event>
10    2  0.1133532E-006  0.3486299E+03  0.7546771E-02  0.1063206E+00
         -2   -1    0    0    0  501 -0.00000000000E+00  0.00000000000E+00  0.36804227395E+03  0.36804227395E+03  0.00000000000E+00 0.  1.
          2   -1    0    0  503    0  0.00000000000E+00 -0.00000000000E+00 -0.50165909887E+03  0.50165909887E+03  0.00000000000E+00 0. -1.
         23    2    1    2    0    0  0.24421101732E+01  0.37600800321E+03 -0.47191286178E+01  0.38672468397E+03  0.90253690414E+02 0.  0.
         23    2    1    2    0    0 -0.24984688058E+02 -0.30057325946E+03 -0.60835668031E+02  0.32093788156E+03  0.91277743038E+02 0.  0.
        -11    1    3    3    0    0 -0.99913633738E+01  0.26954501051E+02  0.22334942831E+02  0.36403600649E+02  0.00000000000E+00 0.  1.
         11    1    3    3    0    0  0.12433473547E+02  0.34905350216E+03 -0.27054071449E+02  0.35032108332E+03  0.00000000000E+00 0. -1.
        -13    1    4    4    0    0  0.10121661444E+02 -0.26480364107E+03 -0.51685991265E+02  0.26999047770E+03  0.00000000000E+00 0.  1.
         13    1    4    4    0    0 -0.35106349502E+02 -0.35769618389E+02 -0.91496767659E+01  0.50947403859E+02  0.00000000000E+00 0. -1.
         21    1    1    2  502  501  0.26250892712E+02 -0.39928983258E+02  0.30852261629E+02  0.56879654709E+02  0.00000000000E+00 0.  1.
         21    1    1    2  503  502 -0.37083148269E+01 -0.35505760491E+02 -0.98914289902E+02  0.10515915259E+03  0.00000000000E+00 0. -1.
<scales pt_clust_5="13000.00000" pt_clust_6="13000.00000" pt_clust_7="13000.00000" pt_clust_8="13000.00000" pt_clust_9="48.69065" pt_clust_10="35.69889"></scales>
<clustering>
<clus scale="   35.699">  2 10  1 -1</clus>
<clus scale="   48.691">  1  9  2 -1</clus>
<clus scale="   90.254">  5  6 -1 -1</clus>
<clus scale="   91.278">  7  8 -1 -1</clus>
<clus scale="  348.363">  1  5  2 -1</clus>
<clus scale="   35.699">  2  5  1 -1</clus>
</clustering>
</event>
<event>
10    2  0.1133532E-006  0.3329007E+03  0.7546771E-02  0.1069870E+00
          2   -1    0    0  503    0  0.00000000000E+00  0.00000000000E+00  0.83911116781E+03  0.83911116781E+03  0.00000000000E+00 0. -1.
         -2   -1    0    0    0  501 -0.00000000000E+00 -0.00000000000E+00 -0.50466706194E+03  0.50466706194E+03  0.00000000000E+00 0.  1.
         23    2    1    2    0    0 -0.29841207789E+03 -0.60554161774E+02 -0.14932021294E+03  0.35133405569E+03  0.91774277218E+02 0.  0.
         23    2    1    2    0    0  0.36225280124E+03  0.11860581264E+03  0.58125419871E+03  0.70116329543E+03  0.92081988146E+02 0.  0.
        -11    1    3    3    0    0 -0.25490743495E+03 -0.81966598072E+02 -0.11243205065E+03  0.29040883183E+03  0.00000000000E+00 0. -1.
         11    1    3    3    0    0 -0.43504642941E+02  0.21412436298E+02 -0.36888162290E+02  0.60925223863E+02  0.00000000000E+00 0.  1.
        -13    1    4    4    0    0  0.29156616432E+02  0.94238067186E+00  0.12743902081E+02  0.31833997603E+02  0.00000000000E+00 0. -1.
         13    1    4    4    0    0  0.33309618481E+03  0.11766343197E+03  0.56851029663E+03  0.66932929783E+03  0.00000000000E+00 0.  1.
         21    1    1    2  502  501 -0.15551749887E+01 -0.24939975726E+02 -0.18057170718E+03  0.18229251875E+03  0.00000000000E+00 0.  1.
         21    1    1    2  503  502 -0.62285548362E+02 -0.33111675139E+02  0.83081827277E+02  0.10898835988E+03  0.00000000000E+00 0. -1.
<scales pt_clust_5="13000.00000" pt_clust_6="13000.00000" pt_clust_7="13000.00000" pt_clust_8="13000.00000" pt_clust_9="24.98842" pt_clust_10="71.06916"></scales>
<clustering>
<clus scale="   24.988">  2  9  1 -1</clus>
<clus scale="   71.069">  1 10  2 -1</clus>
<clus scale="   91.774">  5  6 -1 -1</clus>
<clus scale="   92.082">  7  8 -1 -1</clus>
<clus scale="  332.816">  2  5  1 -1</clus>
<clus scale="   71.069">  1  5  2 -1</clus>
</clustering>
</event>
<event>
10    2  0.1133532E-006  0.1248444E+03  0.7546771E-02  0.1235679E+00
         -2   -1    0    0    0  501 -0.00000000000E+00  0.00000000000E+00  0.20766655353E+03  0.20766655353E+03  0.00000000000E+00 0.  1.
          2   -1    0    0  503    0  0.00000000000E+00 -0.00000000000E+00 -0.40691245906E+03  0.40691245906E+03  0.00000000000E+00 0. -1.
         23    2    1    2    0    0 -0.49412799022E+02  0.35864185529E+02 -0.96879413799E+01  0.11062291472E+03  0.91737170998E+02 0.  0.
         23    2    1    2    0    0  0.12202156700E+03 -0.11414156895E+02 -0.90916472604E+02  0.17869731603E+03  0.92991289777E+02 0.  0.
        -11    1    4    4    0    0  0.42370317964E+02 -0.33561341156E+02  0.23008106211E+01  0.54100842822E+02  0.00000000000E+00 0.  1.
         11    1    4    4    0    0  0.79651249041E+02  0.22147184261E+02 -0.93217283225E+02  0.12459647321E+03  0.00000000000E+00 0. -1.
        -13    1    3    3    0    0 -0.34080254509E+02 -0.28206778439E+02 -0.59454209022E+01  0.44636690368E+02  0.00000000000E+00 0.  1.
         13    1    3    3    0    0 -0.15332544513E+02  0.64070963968E+02 -0.37425204777E+01  0.65986224355E+02  0.00000000000E+00 0. -1.
         21    1    1    2  502  501 -0.31114913845E+02 -0.47055641726E+02  0.10338796248E+03  0.11777708634E+03  0.00000000000E+00 0.  1.
         21    1    1    2  503  502 -0.41493854138E+02  0.22605613092E+02 -0.20202945402E+03  0.20748169550E+03  0.00000000000E+00 0. -1.
<scales pt_clust_5="13000.00000" pt_clust_6="13000.00000" pt_clust_7="13000.00000" pt_clust_8="13000.00000" pt_clust_9="56.58076" pt_clust_10="47.25202"></scales>
<clustering>
<clus scale="   47.252">  2 10  1 -1</clus>
<clus scale="   56.581">  1  9  2 -1</clus>
<clus scale="   91.737">  7  8 -1 -1</clus>
<clus scale="   92.991">  5  6 -1 -1</clus>
<clus scale="  123.913">  1  7  2 -1</clus>
<clus scale="   47.252">  2  5  1 -1</clus>
</clustering>
</event>
<event>
10    2  0.1133532E-006  0.1734682E+03  0.7546771E-02  0.1197909E+00
          2   -1    0    0  503    0  0.00000000000E+00  0.00000000000E+00  0.70176865655E+03  0.70176865655E+03  0.00000000000E+00 0. -1.
         -2   -1    0    0    0  501 -0.00000000000E+00 -0.00000000000E+00 -0.23134614150E+03  0.23134614150E+03  0.00000000000E+00 0.  1.
         23    2    1    2    0    0 -0.48457171180E+02 -0.16644563990E+03  0.29761173667E+02  0.19707021021E+03  0.88874584737E+02 0.  0.
         23    2    1    2    0    0 -0.17478984017E+02  0.43125044755E+02  0.11163175115E+03  0.15048567733E+03  0.89548907577E+02 0.  0.
        -11    1    4    4    0    0  0.16286074604E+02  0.60608152662E+02  0.65688879421E+02  0.90849398868E+02  0.00000000000E+00 0. -1.
         11    1    4    4    0    0 -0.33765058620E+02 -0.17483107906E+02  0.45942871728E+02  0.59636278458E+02  0.00000000000E+00 0.  1.
        -13    1    3    3    0    0 -0.48927870610E+02 -0.13467879286E+03 -0.12909256272E+02  0.14387134067E+03  0.00000000000E+00 0.  1.
         13    1    3    3    0    0  0.47069942986E+00 -0.31766847044E+02  0.42670429940E+02  0.53198869540E+02  0.00000000000E+00 0. -1.
         21    1    1    2  502  501  0.47638415497E+01  0.22733779499E+02 -0.11955128178E+03  0.12178681329E+03  0.00000000000E+00 0. -1.
         21    1    1    2  503  502  0.61172313647E+02  0.10058681565E+03  0.44858087201E+03  0.46377209723E+03  0.00000000000E+00 0. -1.
<scales pt_clust_5="13000.00000" pt_clust_6="13000.00000" pt_clust_7="13000.00000" pt_clust_8="13000.00000" pt_clust_9="23.22755" pt_clust_10="148.97161"></scales>
<clustering>
<clus scale="   23.228">  2  9  1 -1</clus>
<clus scale="   88.875">  7  8 -1 -1</clus>
<clus scale="   89.549">  5  6 -1 -1</clus>
<clus scale="  102.547">  1  5  2 -1</clus>
<clus scale="  148.972">  1 10  2 -1</clus>
<clus scale="  102.547">  1  5  2 -1</clus>
</clustering>
</event>
<event>
10    2  0.1133532E-006  0.9908438E+02  0.7546771E-02  0.1282573E+00
         -1   -1    0    0    0  501 -0.00000000000E+00  0.00000000000E+00  0.22234562037E+03  0.22234562037E+03  0.00000000000E+00 0.  1.
          1   -1    0    0  503    0  0.00000000000E+00 -0.00000000000E+00 -0.17155602885E+03  0.17155602885E+03  0.00000000000E+00 0. -1.
         23    2    1    2    0    0 -0.23441705681E+02  0.59042709063E+02  0.25397032148E+02  0.11179725813E+03  0.88419809011E+02 0.  0.
         23    2    1    2    0    0  0.15931306366E+02 -0.23635823998E+02  0.20323036756E+02  0.94435048479E+02  0.87706863241E+02 0.  0.
        -11    1    4    4    0    0  0.38775795534E+02 -0.15767049638E+02  0.43912899826E+02  0.60667165293E+02  0.00000000000E+00 0.  1.
         11    1    4    4    0    0 -0.22844489168E+02 -0.78687743600E+01 -0.23589863069E+02  0.33767883186E+02  0.00000000000E+00 0. -1.
        -13    1    3    3    0    0  0.52913045329E+01  0.74606660382E+02  0.25795198463E+02  0.79117279660E+02  0.00000000000E+00 0. -1.
         13    1    3    3    0    0 -0.28733010214E+02 -0.15563951319E+02 -0.39816631430E+00  0.32679978474E+02  0.00000000000E+00 0.  1.
         21    1    1    2  502  501  0.32058626312E+02 -0.16374136297E+02  0.90163022040E+02  0.97083667029E+02  0.00000000000E+00 0.  1.
         21    1    1    2  503  502 -0.24548226996E+02 -0.19032748768E+02 -0.85093499433E+02  0.90585675579E+02  0.00000000000E+00 0. -1.
<scales pt_clust_5="13000.00000" pt_clust_6="13000.00000" pt_clust_7="13000.00000" pt_clust_8="13000.00000" pt_clust_9="35.47141" pt_clust_10="31.06221"></scales>
<clustering>
<clus scale="   31.062">  2 10  1 -1</clus>
<clus scale="   35.471">  1  9  2 -1</clus>
<clus scale="   87.707">  5  6 -1 -1</clus>
<clus scale="   88.420">  7  8 -1 -1</clus>
<clus scale="   98.449">  2  5  1 -1</clus>
<clus scale="   31.062">  2  5  1 -1</clus>
</clustering>
</event>
<event>
10    2  0.1133532E-006  0.9412497E+02  0.7546771E-02  0.1294338E+00
          1   -1    0    0  503    0  0.00000000000E+00  0.00000000000E+00  0.68396767606E+02  0.68396767606E+02  0.00000000000E+00 0. -1.
         -1   -1    0    0    0  501 -0.00000000000E+00 -0.00000000000E+00 -0.87126109050E+03  0.87126109050E+03  0.00000000000E+00 0.  1.
         23    2    1    2    0    0  0.34373167857E+02  0.33586139606E+02 -0.54041614230E+03  0.55037205971E+03  0.92467582507E+02 0.  0.
         23    2    1    2    0    0  0.32170570398E+02  0.39649776741E+02 -0.21513816355E+02  0.10601690646E+03  0.90386336171E+02 0.  0.
        -13    1    3    3    0    0  0.67736572070E+01  0.63288247681E+02 -0.32555099524E+03  0.33171484023E+03  0.00000000000E+00 0.  1.
         13    1    3    3    0    0  0.27599510650E+02 -0.29702108075E+02 -0.21486514705E+03  0.21865721948E+03  0.00000000000E+00 0. -1.
        -13    1    4    4    0    0  0.22843901501E+02  0.60261961953E+02  0.12026977713E+02  0.65559103770E+02  0.00000000000E+00 0.  1.
         13    1    4    4    0    0  0.93266688967E+01 -0.20612185212E+02 -0.33540794068E+02  0.40457802692E+02  0.00000000000E+00 0. -1.
         21    1    1    2  502  501 -0.35506174626E+02 -0.97622393221E+01 -0.19623706721E+03  0.19966215540E+03  0.00000000000E+00 0.  1.
         21    1    1    2  503  502 -0.31037563630E+02 -0.63473677024E+02 -0.44697297034E+02  0.83606736530E+02  0.00000000000E+00 0. -1.
<scales pt_clust_5="13000.00000" pt_clust_6="13000.00000" pt_clust_7="13000.00000" pt_clust_8="13000.00000" pt_clust_9="36.82377" pt_clust_10="73.02481"></scales>
<clustering>
<clus scale="   36.824">  2  9  1 -1</clus>
<clus scale="   73.025">  1 10  2 -1</clus>
<clus scale="   90.386">  7  8 -1 -1</clus>
<clus scale="   92.081">  1  7  2 -1</clus>
<clus scale="   92.468">  5  6 -1 -1</clus>
<clus scale="   73.025">  1  5  2 -1</clus>
</clustering>
</event>
<event>
10    2  0.1133532E-006  0.1288056E+03  0.7546771E-02  0.1229836E+00
          2   -1    0    0  502    0  0.00000000000E+00  0.00000000000E+00  0.53174827622E+03  0.53174827622E+03  0.00000000000E+00 0. -1.
         -2   -1    0    0    0  501 -0.00000000000E+00 -0.00000000000E+00 -0.34633470898E+03  0.34633470898E+03  0.00000000000E+00 0.  1.
         23    2    1    2    0    0 -0.80546867120E+02 -0.18179463326E+02 -0.58834592357E+02  0.13710680377E+03  0.92295588701E+02 0.  0.
         23    2    1    2    0    0  0.47013711801E+02 -0.83469013050E+02  0.45893766798E+03  0.47740436415E+03  0.90076515138E+02 0.  0.
        -11    1    3    3    0    0  0.78539333917E+01  0.21433337338E+02 -0.26514369381E+02  0.34986911879E+02  0.00000000000E+00 0.  1.
         11    1    3    3    0    0 -0.88400800512E+02 -0.39612800664E+02 -0.32320222977E+02  0.10211989190E+03  0.00000000000E+00 0. -1.
        -11    1    4    4    0    0 -0.47850476255E+01 -0.48328442479E+02  0.81979411282E+02  0.95284620519E+02  0.00000000000E+00 0.  1.
         11    1    4    4    0    0  0.51798759426E+02 -0.35140570571E+02  0.37695825670E+03  0.38211974363E+03  0.00000000000E+00 0. -1.
         21    1    1    2  502  503  0.10420759525E+02  0.72298735817E+02 -0.21409111511E+03  0.22620942730E+03  0.00000000000E+00 0.  1.
         21    1    1    2  503  501  0.23112395794E+02  0.29349740559E+02 -0.59839327802E+00  0.37362389976E+02  0.00000000000E+00 0.  1.
<scales pt_clust_5="13000.00000" pt_clust_6="13000.00000" pt_clust_7="13000.00000" pt_clust_8="13000.00000" pt_clust_9="95.62906" pt_clust_10="37.35760"></scales>
<clustering>
<clus scale="   37.358">  2 10  1 -1</clus>
<clus scale="   90.077">  7  8 -1 -1</clus>
<clus scale="   92.296">  5  6 -1 -1</clus>
<clus scale="   95.629">  2  9  1 -1</clus>
<clus scale="  127.225">  1  7  2 -1</clus>
<clus scale="  127.225">  1  5  2 -1</clus>
</clustering>
</event>
<event>
10    2  0.1133532E-006  0.3284640E+03  0.7546771E-02  0.1072135E+00
         -1   -1    0    0    0  501 -0.00000000000E+00  0.00000000000E+00  0.98077927761E+03  0.98077927761E+03  0.00000000000E+00 0.  1.
          1   -1    0    0  503    0  0.00000000000E+00 -0.00000000000E+00 -0.13458704097E+03  0.13458704097E+03  0.00000000000E+00 0. -1.
         23    2    1    2    0    0  0.25738546562E+01 -0.32791473424E+03  0.50799029241E+03  0.61118407513E+03  0.89202796253E+02 0.  0.
         23    2    1    2    0    0 -0.69678627304E+01  0.30038206792E+03  0.29462660764E+03  0.43231013500E+03  0.99041794475E+02 0.  0.
        -11    1    3    3    0    0 -0.27991779951E+02 -0.15984547318E+03  0.18720571503E+03  0.24775006514E+03  0.00000000000E+00 0.  1.
         11    1    3    3    0    0  0.30565634608E+02 -0.16806926106E+03  0.32078457738E+03  0.36343400999E+03  0.00000000000E+00 0. -1.
        -11    1    4    4    0    0  0.36718808268E+02  0.73022933655E+02  0.10489467595E+03  0.13297936969E+03  0.00000000000E+00 0. -1.
         11    1    4    4    0    0 -0.43686670999E+02  0.22735913427E+03  0.18973193168E+03  0.29933076531E+03  0.00000000000E+00 0.  1.
         21    1    1    2  502  501 -0.13249505830E+02  0.17915811989E+02  0.46502727426E+02  0.51565777236E+02  0.00000000000E+00 0. -1.
         21    1    1    2  503  502  0.17643513904E+02  0.96168543241E+01 -0.29273908320E+01  0.20306331206E+02  0.00000000000E+00 0.  1.
<scales pt_clust_5="13000.00000" pt_clust_6="13000.00000" pt_clust_7="13000.00000" pt_clust_8="13000.00000" pt_clust_9="22.22984" pt_clust_10="20.09421"></scales>
<clustering>
<clus scale="   20.094">  2 10  1 -1</clus>
<clus scale="   22.230">  1  9  2 -1</clus>
<clus scale="   89.203">  5  6 -1 -1</clus>
<clus scale="   99.042">  7  8 -1 -1</clus>
<clus scale="  325.632">  1  5  2 -1</clus>
<clus scale="   20.094">  2  5  1 -1</clus>
</clustering>
</event>
<event>
10    2  0.1133532E-006  0.1761879E+03  0.7546771E-02  0.1171812E+00
          1   -1    0    0  503    0  0.00000000000E+00  0.00000000000E+00  0.15496820828E+03  0.15496820828E+03  0.00000000000E+00 0. -1.
         -1   -1    0    0    0  501 -0.00000000000E+00 -0.00000000000E+00 -0.67223308218E+03  0.67223308218E+03  0.00000000000E+00 0.  1.
         23    2    1    2    0    0 -0.16406142741E+03  0.45895650383E+02 -0.46932405343E+03  0.50736361802E+03  0.90167683081E+02 0.  0.
         23    2    1    2    0    0  0.13171373286E+03 -0.57099640749E+02  0.72340378861E+02  0.18533481158E+03  0.92233321379E+02 0.  0.
        -11    1    4    4    0    0  0.10909934461E+03 -0.29261491641E+00  0.40294680282E+02  0.11630311207E+03  0.00000000000E+00 0. -1.
         11    1    4    4    0    0  0.22614388245E+02 -0.56807025832E+02  0.32045698579E+02  0.69031699509E+02  0.00000000000E+00 0.  1.
        -11    1    3    3    0    0 -0.13763672054E+03  0.66161785133E+02 -0.32277243730E+03  0.35707603523E+03  0.00000000000E+00 0.  1.
         11    1    3    3    0    0 -0.26424706871E+02 -0.20266134750E+02 -0.14655161612E+03  0.15028758278E+03  0.00000000000E+00 0. -1.
         21    1    1    2  502  501  0.21586129422E+02 -0.63714824513E+01 -0.10840613842E+03  0.11071787399E+03  0.00000000000E+00 0.  1.
         21    1    1    2  503  502  0.10761565134E+02  0.17575472817E+02 -0.11875060910E+02  0.23784986872E+02  0.00000000000E+00 0.  1.
<scales pt_clust_5="13000.00000" pt_clust_6="13000.00000" pt_clust_7="13000.00000" pt_clust_8="13000.00000" pt_clust_9="22.54881" pt_clust_10="20.60846"></scales>
<clustering>
<clus scale="   20.608">  1 10  2 -1</clus>
<clus scale="   22.549">  2  9  1 -1</clus>
<clus scale="   90.168">  7  8 -1 -1</clus>
<clus scale="   92.233">  5  6 -1 -1</clus>
<clus scale="  175.115">  2  7  1 -1</clus>
<clus scale="   20.608">  1  5  2 -1</clus>
</clustering>
</event>
<event>
10    2  0.1133532E-006  0.1444210E+03  0.7546771E-02  0.1207934E+00
          2   -1    0    0  502    0  0.00000000000E+00  0.00000000000E+00  0.29206795741E+03  0.29206795741E+03  0.00000000000E+00 0. -1.
         -2   -1    0    0    0  501 -0.00000000000E+00 -0.00000000000E+00 -0.21869812787E+03  0.21869812787E+03  0.00000000000E+00 0.  1.
         23    2    1    2    0    0 -0.10563564370E+03 -0.46755234919E+02 -0.12573678394E+03  0.19362900350E+03  0.91309971783E+02 0.  0.
         23    2    1    2    0    0  0.12739142109E+03  0.26961489785E+02  0.20870194898E+03  0.26166008198E+03  0.89185194372E+02 0.  0.
        -11    1    4    4    0    0  0.74960182955E+02 -0.28985136946E+02  0.11979718776E+03  0.14425856435E+03  0.00000000000E+00 0. -1.
         11    1    4    4    0    0  0.52431238137E+02  0.55946626731E+02  0.88904761223E+02  0.11740151764E+03  0.00000000000E+00 0.  1.
        -13    1    3    3    0    0 -0.92368444183E+02 -0.16205026777E+02 -0.12973814132E+03  0.16008284632E+03  0.00000000000E+00 0.  1.
         13    1    3    3    0    0 -0.13267199521E+02 -0.30550208142E+02  0.40013573746E+01  0.33546157179E+02  0.00000000000E+00 0. -1.
         21    1    1    2  502  503 -0.21260673322E+02 -0.77164990563E+01  0.65857419698E+01  0.23557007134E+02  0.00000000000E+00 0. -1.
         21    1    1    2  503  501 -0.49510406559E+00  0.27510244191E+02 -0.16181077464E+02  0.31919992659E+02  0.00000000000E+00 0.  1.
<scales pt_clust_5="13000.00000" pt_clust_6="13000.00000" pt_clust_7="13000.00000" pt_clust_8="13000.00000" pt_clust_9="22.61771" pt_clust_10="27.31314"></scales>
<clustering>
<clus scale="   22.618">  1  9  2 -1</clus>
<clus scale="   27.313">  2 10  1 -1</clus>
<clus scale="   89.185">  5  6 -1 -1</clus>
<clus scale="   91.310">  7  8 -1 -1</clus>
<clus scale="  143.087">  1  5  2 -1</clus>
<clus scale="   22.618">  1  5  2 -1</clus>
</clustering>
</event>
<event>
10    2  0.1133532E-006  0.9642475E+02  0.7546771E-02  0.1288745E+00
          2   -1    0    0  503    0  0.00000000000E+00  0.00000000000E+00  0.77869749517E+03  0.77869749517E+03  0.00000000000E+00 0. -1.
         -2   -1    0    0    0  501 -0.00000000000E+00 -0.00000000000E+00 -0.32143486393E+02  0.32143486393E+02  0.00000000000E+00 0.  1.
         23    2    1    2    0    0  0.39898425163E+02 -0.12495279990E+02  0.10920662762E+03  0.14749867550E+03  0.89898584011E+02 0.  0.
         23    2    1    2    0    0 -0.67892061138E+01  0.67824907170E+01  0.25685257097E+03  0.27277071991E+03  0.91315534950E+02 0.  0.
        -11    1    3    3    0    0  0.20598878362E+02  0.38449182898E+02  0.38055278475E+02  0.57886593225E+02  0.00000000000E+00 0. -1.
         11    1    3    3    0    0  0.19299546800E+02 -0.50944462888E+02  0.71151349141E+02  0.89612082279E+02  0.00000000000E+00 0.  1.
        -13    1    4    4    0    0 -0.40557169965E+02  0.27470086701E+02  0.17677186471E+03  0.18343331718E+03  0.00000000000E+00 0.  1.
         13    1    4    4    0    0  0.33767963851E+02 -0.20687595984E+02  0.80080706260E+02  0.89337402723E+02  0.00000000000E+00 0. -1.
         21    1    1    2  502  501 -0.46366132062E+02  0.33558738167E+02  0.23975816363E+03  0.24649540389E+03  0.00000000000E+00 0.  1.
         21    1    1    2  503  502  0.13256913013E+02 -0.27845948894E+02  0.14073664655E+03  0.14407618226E+03  0.00000000000E+00 0. -1.
<scales pt_clust_5="13000.00000" pt_clust_6="13000.00000" pt_clust_7="13000.00000" pt_clust_8="13000.00000" pt_clust_9="47.23364" pt_clust_10="30.84060"></scales>
<clustering>
<clus scale="   30.841">  1 10  2 -1</clus>
<clus scale="   47.234">  1  9  2 -1</clus>
<clus scale="   89.899">  5  6 -1 -1</clus>
<clus scale="   91.316">  7  8 -1 -1</clus>
<clus scale="   95.084">  2  5  1 -1</clus>
<clus scale="   30.841">  1  5  2 -1</clus>
</clustering>
</event>
<event>
10    2  0.1133532E-006  0.1213361E+03  0.7546771E-02  0.1241192E+00
          2   -1    0    0  503    0  0.00000000000E+00  0.00000000000E+00  0.70390626363E+02  0.70390626363E+02  0.00000000000E+00 0. -1.
         -2   -1    0    0    0  501 -0.00000000000E+00 -0.00000000000E+00 -0.50933631966E+03  0.50933631966E+03  0.00000000000E+00 0.  1.
         23    2    1    2    0    0 -0.27320435898E+02  0.45182961323E+02 -0.17789331462E+03  0.20699336806E+03  0.91718683072E+02 0.  0.
         23    2    1    2    0    0  0.62853518193E+02 -0.93931669131E+02 -0.11485483519E+03  0.18495825806E+03  0.90797581707E+02 0.  0.
        -13    1    3    3    0    0  0.72480446316E+01 -0.24064514934E+02 -0.24085140448E+02  0.34809898311E+02  0.00000000000E+00 0. -1.
         13    1    3    3    0    0 -0.34568480530E+02  0.69247476258E+02 -0.15380817417E+03  0.17218346975E+03  0.00000000000E+00 0.  1.
        -13    1    4    4    0    0 -0.18198824912E+02 -0.12513977965E+02 -0.45982266712E+02  0.51011427393E+02  0.00000000000E+00 0.  1.
         13    1    4    4    0    0  0.81052343106E+02 -0.81417691166E+02 -0.68872568482E+02  0.13394683067E+03  0.00000000000E+00 0. -1.
         21    1    1    2  502  501 -0.23232134255E+02  0.15665368223E+02 -0.14970554287E+03  0.15230523756E+03  0.00000000000E+00 0.  1.
         21    1    1    2  503  502 -0.12300948040E+02  0.33083339585E+02  0.35079993869E+01  0.35470082329E+02  0.00000000000E+00 0. -1.
<scales pt_clust_5="13000.00000" pt_clust_6="13000.00000" pt_clust_7="13000.00000" pt_clust_8="13000.00000" pt_clust_9="28.02028" pt_clust_10="36.31942"></scales>
<clustering>
<clus scale="   28.020">  2  9  1 -1</clus>
<clus scale="   36.319">  1 10  2 -1</clus>
<clus scale="   90.798">  7  8 -1 -1</clus>
<clus scale="   91.719">  5  6 -1 -1</clus>
<clus scale="  120.641">  1  7  2 -1</clus>
<clus scale="   36.319">  1  5  2 -1</clus>
</clustering>
</event>
<event>
10    2  0.1133532E-006  0.1085692E+03  0.7546771E-02  0.1266575E+00
          1   -1    0    0  502    0  0.00000000000E+00  0.00000000000E+00  0.52312216025E+03  0.52312216025E+03  0.00000000000E+00 0. -1.
         -1   -1    0    0    0  501 -0.00000000000E+00 -0.00000000000E+00 -0.44804184571E+02  0.44804184571E+02  0.00000000000E+00 0.  1.
         23    2    1    2    0    0  0.45623321064E+02  0.30751303959E+02  0.70966506737E+02  0.12258241187E+03  0.83445026828E+02 0.  0.
         23    2    1    2    0    0 -0.45068018230E+02 -0.38507784790E+02  0.36324763049E+03  0.37929210758E+03  0.91649801207E+02 0.  0.
        -13    1    4    4    0    0 -0.67251630050E+02 -0.46689994598E+02  0.23423185057E+03  0.24812758243E+03  0.00000000000E+00 0. -1.
         13    1    4    4    0    0  0.22183611821E+02  0.81822098085E+01  0.12901577992E+03  0.13116452515E+03  0.00000000000E+00 0.  1.
        -13    1    3    3    0    0  0.18926993055E+02 -0.90519335048E+01  0.71641889585E+02  0.74650712720E+02  0.00000000000E+00 0. -1.
         13    1    3    3    0    0  0.26696328009E+02  0.39803237464E+02 -0.67538284847E+00  0.47931699154E+02  0.00000000000E+00 0.  1.
         21    1    1    2  502  503  0.20183939686E+02  0.14558090737E+02  0.13065189251E+02  0.28107447364E+02  0.00000000000E+00 0.  1.
         21    1    1    2  503  501 -0.20739242521E+02 -0.68016099057E+01  0.31038649198E+02  0.37944377998E+02  0.00000000000E+00 0.  1.
<scales pt_clust_5="13000.00000" pt_clust_6="13000.00000" pt_clust_7="13000.00000" pt_clust_8="13000.00000" pt_clust_9="21.13756" pt_clust_10="21.82609"></scales>
<clustering>
<clus scale="   21.826">  2 10  1 -1</clus>
<clus scale="   21.138">  2  9  1 -1</clus>
<clus scale="   83.445">  7  8 -1 -1</clus>
<clus scale="   91.650">  5  6 -1 -1</clus>
<clus scale="  101.738">  2  7  1 -1</clus>
<clus scale="  108.569">  1  5  2 -1</clus>
</clustering>
</event>
<event>
10    2  0.1133532E-006  0.2750348E+03  0.7546771E-02  0.1098467E+00
          2   -1    0    0  502    0  0.00000000000E+00  0.00000000000E+00  0.10202264178E+04  0.10202264178E+04  0.00000000000E+00 0. -1.
         -2   -1    0    0    0  501 -0.00000000000E+00 -0.00000000000E+00 -0.34720426245E+03  0.34720426245E+03  0.00000000000E+00 0.  1.
         23    2    1    2    0    0 -0.10149656503E+03 -0.27057547479E+03 -0.10761006895E+03  0.32165522304E+03  0.91485055039E+02 0.  0.
         23    2    1    2    0    0  0.36796086960E+02  0.25443139408E+03  0.86907680908E+03  0.91083319080E+03  0.90737616648E+02 0.  0.
        -11    1    3    3    0    0 -0.19592638051E+02 -0.63093606188E+01 -0.26081670895E+02  0.33225488016E+02  0.00000000000E+00 0. -1.
         11    1    3    3    0    0 -0.81903926980E+02 -0.26426611417E+03 -0.81528398056E+02  0.28842973502E+03  0.00000000000E+00 0.  1.
        -13    1    4    4    0    0  0.52551597041E+02  0.80538433581E+02  0.36107898673E+03  0.37366581901E+03  0.00000000000E+00 0.  1.
         13    1    4    4    0    0 -0.15755510080E+02  0.17389296050E+03  0.50799782235E+03  0.53716737180E+03  0.00000000000E+00 0. -1.
         21    1    1    2  502  503  0.50856380335E+02 -0.10399993453E+02 -0.91137900870E+02  0.10488397523E+03  0.00000000000E+00 0.  1.
         21    1    1    2  503  501  0.13844097736E+02  0.26544074161E+02  0.26933160591E+01  0.30058291145E+02  0.00000000000E+00 0.  1.
<scales pt_clust_5="13000.00000" pt_clust_6="13000.00000" pt_clust_7="13000.00000" pt_clust_8="13000.00000" pt_clust_9="54.98618" pt_clust_10="29.93738"></scales>
<clustering>
<clus scale="   29.937">  2 10  1 -1</clus>
<clus scale="   54.986">  2  9  1 -1</clus>
<clus scale="   90.738">  7  8 -1 -1</clus>
<clus scale="   91.485">  5  6 -1 -1</clus>
<clus scale="  274.787">  1  7  2 -1</clus>
<clus scale="  274.787">  1  5  2 -1</clus>
</clustering>
</event>
<event>
10    2  0.1133532E-006  0.2006570E+03  0.7546771E-02  0.1149233E+00
         -1   -1    0    0    0  501 -0.00000000000E+00  0.00000000000E+00  0.77081942672E+02  0.77081942672E+02  0.00000000000E+00 0.  1.
          1   -1    0    0  503    0  0.00000000000E+00 -0.00000000000E+00 -0.87347446460E+03  0.87347446460E+03  0.00000000000E+00 0. -1.
         23    2    1    2    0    0 -0.62817629574E+02 -0.19599245375E+03 -0.25700406592E+03  0.34182388890E+03  0.91833461296E+02 0.  0.
         23    2    1    2    0    0  0.59753559955E+02  0.14133149416E+03 -0.43700285593E+03  0.47208078659E+03  0.91343821938E+02 0.  0.
        -11    1    3    3    0    0 -0.48908858222E+02 -0.11740788131E+03 -0.87225108857E+02  0.15422356052E+03  0.00000000000E+00 0.  1.
         11    1    3    3    0    0 -0.13908771353E+02 -0.78584572440E+02 -0.16977895707E+03  0.18760032838E+03  0.00000000000E+00 0. -1.
        -13    1    4    4    0    0  0.56517558035E+02  0.43295923060E+02 -0.26159052982E+03  0.27110584024E+03  0.00000000000E+00 0.  1.
         13    1    4    4    0    0  0.32360019203E+01  0.98035571097E+02 -0.17541232611E+03  0.20097494635E+03  0.00000000000E+00 0. -1.
         21    1    1    2  502  501  0.17705696427E+02  0.21407625962E+02  0.24221161531E+00  0.27781951007E+02  0.00000000000E+00 0. -1.
         21    1    1    2  503  502 -0.14641626808E+02  0.33253333628E+02 -0.10262781169E+03  0.10886978078E+03  0.00000000000E+00 0. -1.
<scales pt_clust_5="13000.00000" pt_clust_6="13000.00000" pt_clust_7="13000.00000" pt_clust_8="13000.00000" pt_clust_9="27.78090" pt_clust_10="36.97091"></scales>
<clustering>
<clus scale="   27.781">  1  9  2 -1</clus>
<clus scale="   36.971">  2 10  1 -1</clus>
<clus scale="   91.344">  7  8 -1 -1</clus>
<clus scale="   91.833">  5  6 -1 -1</clus>
<clus scale="  200.433">  2  7  1 -1</clus>
<clus scale="   36.971">  2  5  1 -1</clus>
</clustering>
</event>
<event>
10    2  0.1133532E-006  0.9800977E+02  0.7546771E-02  0.1285001E+00
          3   -1    0    0  503    0  0.00000000000E+00  0.00000000000E+00  0.40045110167E+02  0.40045110167E+02  0.00000000000E+00 0. -1.
         -3   -1    0    0    0  501 -0.00000000000E+00 -0.00000000000E+00 -0.59511802077E+03  0.59511802077E+03  0.00000000000E+00 0.  1.
         23    2    1    2    0    0 -0.16810942287E+02  0.29459818030E+02 -0.13697315142E+03  0.16812380292E+03  0.91397375458E+02 0.  0.
         23    2    1    2    0    0  0.24962197444E+02 -0.21516769472E+02 -0.13636722698E+03  0.16793498219E+03  0.92304143901E+02 0.  0.
        -11    1    3    3    0    0 -0.45724982118E+02  0.19990620906E+02 -0.12643191288E+03  0.13592434480E+03  0.00000000000E+00 0. -1.
         11    1    3    3    0    0  0.28914039831E+02  0.94691971243E+01 -0.10541238534E+02  0.32199458122E+02  0.00000000000E+00 0.  1.
        -13    1    4    4    0    0 -0.34392914694E+02  0.11426673510E+01 -0.50873804647E+02  0.61419233707E+02  0.00000000000E+00 0.  1.
         13    1    4    4    0    0  0.59355112138E+02 -0.22659436823E+02 -0.85493422328E+02  0.10651574849E+03  0.00000000000E+00 0. -1.
         21    1    1    2  502  501  0.28709498477E+02  0.20497908085E+02 -0.21415794287E+03  0.21704382975E+03  0.00000000000E+00 0. -1.
         21    1    1    2  503  502 -0.36860753634E+02 -0.28440956643E+02 -0.67574589338E+02  0.82060516069E+02  0.00000000000E+00 0.  1.
<scales pt_clust_5="13000.00000" pt_clust_6="13000.00000" pt_clust_7="13000.00000" pt_clust_8="13000.00000" pt_clust_9="35.27605" pt_clust_10="39.60888"></scales>
<clustering>
<clus scale="   35.276">  2  9  1 -1</clus>
<clus scale="   39.609">  2 10  1 -1</clus>
<clus scale="   91.397">  5  6 -1 -1</clus>
<clus scale="   92.304">  7  8 -1 -1</clus>
<clus scale="   97.156">  2  5  1 -1</clus>
<clus scale="   98.010">  1  5  2 -1</clus>
</clustering>
</event>
<event>
10    2  0.1133532E-006  0.1074390E+03  0.7546771E-02  0.1266170E+00
         -1   -1    0    0    0  501 -0.00000000000E+00  0.00000000000E+00  0.77182027794E+02  0.77182027794E+02  0.00000000000E+00 0.  1.
          1   -1    0    0  503    0  0.00000000000E+00 -0.00000000000E+00 -0.58392146152E+03  0.58392146152E+03  0.00000000000E+00 0. -1.
         23    2    1    2    0    0  0.45114679592E+01 -0.32421720548E+02 -0.35569363379E+02  0.10398176099E+03  0.92062509750E+02 0.  0.
         23    2    1    2    0    0  0.47922652178E+02  0.82603314979E+02 -0.11844781289E+03  0.17685853203E+03  0.90161897362E+02 0.  0.
        -11    1    3    3    0    0 -0.19017838070E+00  0.21382285468E+02 -0.44376228239E+02  0.49259394356E+02  0.00000000000E+00 0. -1.
         11    1    3    3    0    0  0.47016463399E+01 -0.53804006016E+02  0.88068648596E+01  0.54722366637E+02  0.00000000000E+00 0.  1.
        -11    1    4    4    0    0 -0.24233069155E+02  0.38755817361E+01 -0.21687407730E+02  0.32750655391E+02  0.00000000000E+00 0. -1.
         11    1    4    4    0    0  0.72155721334E+02  0.78727733243E+02 -0.96760405160E+02  0.14410787664E+03  0.00000000000E+00 0.  1.
         21    1    1    2  502  501 -0.30902398858E+02 -0.28495283946E+01 -0.85566837374E+01  0.32191534661E+02  0.00000000000E+00 0. -1.
         21    1    1    2  503  502 -0.21531721279E+02 -0.47332066037E+02 -0.34416557372E+03  0.34807166163E+03  0.00000000000E+00 0. -1.
<scales pt_clust_5="13000.00000" pt_clust_6="13000.00000" pt_clust_7="13000.00000" pt_clust_8="13000.00000" pt_clust_9="31.03350" pt_clust_10="52.46543"></scales>
<clustering>
<clus scale="   31.033">  1  9  2 -1</clus>
<clus scale="   52.465">  2 10  1 -1</clus>
<clus scale="   90.162">  7  8 -1 -1</clus>
<clus scale="   92.063">  5  6 -1 -1</clus>
<clus scale="  105.815">  2  7  1 -1</clus>
<clus scale="   52.465">  2  5  1 -1</clus>
</clustering>
</event>
<event>
10    2  0.1133532E-006  0.1009780E+03  0.7546771E-02  0.1280226E+00
          1   -1    0    0  503    0  0.00000000000E+00  0.00000000000E+00  0.49874599765E+02  0.49874599765E+02  0.00000000000E+00 0. -1.
         -1   -1    0    0    0  501 -0.00000000000E+00 -0.00000000000E+00 -0.43342625393E+03  0.43342625393E+03  0.00000000000E+00 0.  1.
         23    2    1    2    0    0 -0.29399177765E+02  0.12019136820E+02 -0.22816413572E+03  0.24988664511E+03  0.96828153282E+02 0.  0.
         23    2    1    2    0    0 -0.15699621929E+02 -0.51418981461E+02 -0.89421422081E+02  0.13972659279E+03  0.92935139870E+02 0.  0.
        -11    1    4    4    0    0 -0.29955445416E+02 -0.73741054299E+02 -0.57190766052E+02  0.98009466486E+02  0.00000000000E+00 0. -1.
         11    1    4    4    0    0  0.14255823487E+02  0.22322072838E+02 -0.32230656029E+02  0.41717126305E+02  0.00000000000E+00 0.  1.
        -13    1    3    3    0    0  0.33430355950E+02  0.33722246208E+01 -0.45758274497E+02  0.56769536574E+02  0.00000000000E+00 0. -1.
         13    1    3    3    0    0 -0.62829533716E+02  0.86469121992E+01 -0.18240586123E+03  0.19311710853E+03  0.00000000000E+00 0.  1.
         21    1    1    2  502  501  0.23161165343E+02  0.30589295396E+02 -0.56335822676E+02  0.68160615383E+02  0.00000000000E+00 0. -1.
         21    1    1    2  503  502  0.21937634351E+02  0.88105492451E+01 -0.96302736825E+01  0.25527000414E+02  0.00000000000E+00 0.  1.
<scales pt_clust_5="13000.00000" pt_clust_6="13000.00000" pt_clust_7="13000.00000" pt_clust_8="13000.00000" pt_clust_9="66.52701" pt_clust_10="22.74457"></scales>
<clustering>
<clus scale="   22.745">  9 10 -1 -1</clus>
<clus scale="   66.527">  1  9  2 -1</clus>
<clus scale="   92.935">  5  6 -1 -1</clus>
<clus scale="   96.828">  7  8 -1 -1</clus>
<clus scale="   97.251">  1  5  2 -1</clus>
<clus scale="   66.527">  1  5  2 -1</clus>
</clustering>
</event>
<event>
10    2  0.1133532E-006  0.1699706E+03  0.7546771E-02  0.1205136E+00
         -1   -1    0    0    0  501 -0.00000000000E+00  0.00000000000E+00  0.33039131665E+03  0.33039131665E+03  0.00000000000E+00 0.  1.
          1   -1    0    0  503    0  0.00000000000E+00 -0.00000000000E+00 -0.11313364351E+04  0.11313364351E+04  0.00000000000E+00 0. -1.
         23    2    1    2    0    0 -0.13856115684E+02 -0.14531208843E+02  0.11083793094E+03  0.14486414533E+03  0.91090206364E+02 0.  0.
         23    2    1    2    0    0  0.84352534790E+01  0.13524677094E+03 -0.31864492483E+03  0.35805218312E+03  0.91125930286E+02 0.  0.
        -11    1    3    3    0    0 -0.10422433791E+02  0.26951598749E+02  0.27367018166E+01  0.29025942502E+02  0.00000000000E+00 0. -1.
         11    1    3    3    0    0 -0.34336818932E+01 -0.41482807592E+02  0.10810122912E+03  0.11583820283E+03  0.00000000000E+00 0.  1.
        -11    1    4    4    0    0 -0.12696060283E+02  0.12782060255E+03 -0.20276141866E+03  0.24002393481E+03  0.00000000000E+00 0.  1.
         11    1    4    4    0    0  0.21131313762E+02  0.74261683809E+01 -0.11588350617E+03  0.11802824831E+03  0.00000000000E+00 0. -1.
         21    1    1    2  502  501 -0.57962715223E+01  0.25484979983E+02  0.17493023326E+03  0.17687189567E+03  0.00000000000E+00 0.  1.
         21    1    1    2  503  502  0.11217133728E+02 -0.14620054208E+03 -0.76806835777E+03  0.78193952758E+03  0.00000000000E+00 0. -1.
<scales pt_clust_5="13000.00000" pt_clust_6="13000.00000" pt_clust_7="13000.00000" pt_clust_8="13000.00000" pt_clust_9="26.13582" pt_clust_10="143.47846"></scales>
<clustering>
<clus scale="   26.136">  1  9  2 -1</clus>
<clus scale="   91.090">  5  6 -1 -1</clus>
<clus scale="   91.126">  7  8 -1 -1</clus>
<clus scale="   93.211">  1  5  2 -1</clus>
<clus scale="  143.478">  2 10  1 -1</clus>
<clus scale="  143.478">  2  5  1 -1</clus>
</clustering>
</event>
<event>
10    2  0.1133532E-006  0.4052521E+03  0.7546771E-02  0.1042253E+00
          1   -1    0    0  503    0  0.00000000000E+00  0.00000000000E+00  0.21348221858E+04  0.21348221858E+04  0.00000000000E+00 0. -1.
         -1   -1    0    0    0  501 -0.00000000000E+00 -0.00000000000E+00 -0.22240798623E+03  0.22240798623E+03  0.00000000000E+00 0.  1.
         23    2    1    2    0    0  0.32742313382E+03  0.25029341182E+03  0.76358975125E+02  0.43170386827E+03  0.10336748154E+03 0.  0.
         23    2    1    2    0    0 -0.21668329236E+03 -0.15937495925E+03  0.15261474569E+04  0.15522711192E+04  0.89819488476E+02 0.  0.
        -11    1    3    3    0    0  0.29253153766E+03  0.22702720170E+03  0.33602284054E+02  0.37181334609E+03  0.00000000000E+00 0.  1.
         11    1    3    3    0    0  0.34891596161E+02  0.23266210118E+02  0.42756691071E+02  0.59890522182E+02  0.00000000000E+00 0. -1.
        -11    1    4    4    0    0 -0.10564437838E+03 -0.24692098997E+02  0.63210916639E+03  0.64135203490E+03  0.00000000000E+00 0.  1.
         11    1    4    4    0    0 -0.11103891398E+03 -0.13468286025E+03  0.89403829052E+03  0.91091908432E+03  0.00000000000E+00 0. -1.
         21    1    1    2  502  501 -0.14782499499E+03 -0.83075054256E+02  0.24220934877E+03  0.29566714801E+03  0.00000000000E+00 0. -1.
         21    1    1    2  503  502  0.37085153530E+02 -0.78433983173E+01  0.67698418803E+02  0.77588036565E+02  0.00000000000E+00 0.  1.
<scales pt_clust_5="13000.00000" pt_clust_6="13000.00000" pt_clust_7="13000.00000" pt_clust_8="13000.00000" pt_clust_9="165.88608" pt_clust_10="37.90551"></scales>
<clustering>
<clus scale="   37.906">  1 10  2 -1</clus>
<clus scale="   89.819">  7  8 -1 -1</clus>
<clus scale="  103.367">  5  6 -1 -1</clus>
<clus scale="  165.886">  1  9  2 -1</clus>
<clus scale="  402.010">  1  7  2 -1</clus>
<clus scale="   37.906">  1  5  2 -1</clus>
</clustering>
</event>
<event>
10    2  0.1133532E-006  0.1344138E+03  0.7546771E-02  0.1225537E+00
         -1   -1    0    0    0  501 -0.00000000000E+00  0.00000000000E+00  0.33720053123E+03  0.33720053123E+03  0.00000000000E+00 0.  1.
          1   -1    0    0  503    0  0.00000000000E+00 -0.00000000000E+00 -0.29310802409E+03  0.29310802409E+03  0.00000000000E+00 0. -1.
         23    2    1    2    0    0  0.94241339939E+02 -0.12174998694E-01  0.17884935451E+03  0.22247084877E+03  0.92869567892E+02 0.  0.
         23    2    1    2    0    0 -0.80759894772E+02 -0.34190464704E+02  0.12663043782E+02  0.11570913810E+03  0.74411716018E+02 0.  0.
        -13    1    3    3    0    0  0.96798141209E+02  0.19967989147E+02  0.17637017374E+03  0.20217576243E+03  0.00000000000E+00 0.  1.
         13    1    3    3    0    0 -0.25568012702E+01 -0.19980164145E+02  0.24791807769E+01  0.20295086335E+02  0.00000000000E+00 0. -1.
        -13    1    4    4    0    0 -0.68512628507E+02 -0.56662674485E+02  0.52437860624E+01  0.89062541155E+02  0.00000000000E+00 0. -1.
         13    1    4    4    0    0 -0.12247266264E+02  0.22472209781E+02  0.74192577195E+01  0.26646596940E+02  0.00000000000E+00 0.  1.
         21    1    1    2  502  501  0.13307646288E+02  0.22387824455E+02  0.68992462148E+02  0.73744613138E+02  0.00000000000E+00 0. -1.
         21    1    1    2  503  502 -0.26789091456E+02  0.11814815248E+02 -0.21641235330E+03  0.21838395532E+03  0.00000000000E+00 0. -1.
<scales pt_clust_5="13000.00000" pt_clust_6="13000.00000" pt_clust_7="13000.00000" pt_clust_8="13000.00000" pt_clust_9="26.04435" pt_clust_10="29.26726"></scales>
<clustering>
<clus scale="   26.044">  1  9  2 -1</clus>
<clus scale="   29.267">  2 10  1 -1</clus>
<clus scale="   74.412">  7  8 -1 -1</clus>
<clus scale="   92.870">  5  6 -1 -1</clus>
<clus scale="  122.390">  2  7  1 -1</clus>
<clus scale="   29.267">  2  5  1 -1</clus>
</clustering>
</event>
<event>
10    2  0.1133532E-006  0.1351430E+03  0.7546771E-02  0.1227410E+00
          2   -1    0    0  503    0  0.00000000000E+00  0.00000000000E+00  0.11758340450E+04  0.11758340450E+04  0.00000000000E+00 0. -1.
         -2   -1    0    0    0  501 -0.00000000000E+00 -0.00000000000E+00 -0.89915185357E+02  0.89915185357E+02  0.00000000000E+00 0.  1.
         23    2    1    2    0    0  0.37379340142E+02  0.12350307968E+03  0.45069371890E+03  0.48254627178E+03  0.11434968467E+03 0.  0.
         23    2    1    2    0    0  0.17114797557E+02 -0.64675285898E+02  0.57381779710E+03  0.58478264060E+03  0.90708674158E+02 0.  0.
        -11    1    4    4    0    0 -0.27266167856E+02  0.69271490999E+01  0.16413259978E+03  0.16652609290E+03  0.00000000000E+00 0.  1.
         11    1    4    4    0    0  0.44380965413E+02 -0.71602434998E+02  0.40968519732E+03  0.41825654770E+03  0.00000000000E+00 0. -1.
        -13    1    3    3    0    0 -0.23962129282E+02  0.90851732482E+01  0.19413046700E+02  0.32149500694E+02  0.00000000000E+00 0.  1.
         13    1    3    3    0    0  0.61341469424E+02  0.11441790644E+03  0.43128067220E+03  0.45039677108E+03  0.00000000000E+00 0. -1.
         21    1    1    2  502  501 -0.59396195755E+02 -0.86082274375E+02 -0.25128543056E+02  0.10756165538E+03  0.00000000000E+00 0.  1.
         21    1    1    2  503  502  0.49020580562E+01  0.27254480589E+02  0.86535886670E+02  0.90858662587E+02  0.00000000000E+00 0.  1.
<scales pt_clust_5="13000.00000" pt_clust_6="13000.00000" pt_clust_7="13000.00000" pt_clust_8="13000.00000" pt_clust_9="103.63008" pt_clust_10="27.69182"></scales>
<clustering>
<clus scale="   27.692">  1 10  2 -1</clus>
<clus scale="   90.709">  5  6 -1 -1</clus>
<clus scale="  103.630">  2  9  1 -1</clus>
<clus scale="  114.350">  7  8 -1 -1</clus>
<clus scale="  115.827">  1  5  2 -1</clus>
<clus scale="   27.692">  1  5  2 -1</clus>
</clustering>
</event>
<event>
10    2  0.1133532E-006  0.9570642E+02  0.7546771E-02  0.1291161E+00
         -2   -1    0    0    0  501 -0.00000000000E+00  0.00000000000E+00  0.75046362396E+02  0.75046362396E+02  0.00000000000E+00 0.  1.
          2   -1    0    0  503    0  0.00000000000E+00 -0.00000000000E+00 -0.31985706367E+03  0.31985706367E+03  0.00000000000E+00 0. -1.
         23    2    1    2    0    0 -0.98734762399E+01  0.37678221732E+02 -0.64458829653E+02  0.11834103822E+03  0.91282674592E+02 0.  0.
         23    2    1    2    0    0 -0.76459030071E+01  0.14579579008E+01 -0.13148838875E+03  0.16187851564E+03  0.94100329296E+02 0.  0.
        -11    1    4    4    0    0  0.42220406371E+02  0.64710239474E+01 -0.45927212652E+02  0.62719580093E+02  0.00000000000E+00 0.  1.
         11    1    4    4    0    0 -0.49866309378E+02 -0.50130660466E+01 -0.85561176102E+02  0.99158935544E+02  0.00000000000E+00 0. -1.
        -11    1    3    3    0    0  0.34631558758E+02  0.38978199918E+02 -0.21272016137E+02  0.56312907946E+02  0.00000000000E+00 0.  1.
         11    1    3    3    0    0 -0.44505034998E+02 -0.12999781862E+01 -0.43186813517E+02  0.62028130273E+02  0.00000000000E+00 0. -1.
         21    1    1    2  502  501 -0.11151263284E+02 -0.27154316443E+02  0.22409972056E+02  0.36931212028E+02  0.00000000000E+00 0.  1.
         21    1    1    2  503  502  0.28670642531E+02 -0.11981863189E+02 -0.71273454926E+02  0.77752660184E+02  0.00000000000E+00 0.  1.
<scales pt_clust_5="13000.00000" pt_clust_6="13000.00000" pt_clust_7="13000.00000" pt_clust_8="13000.00000" pt_clust_9="29.35486" pt_clust_10="31.15717"></scales>
<clustering>
<clus scale="   29.355">  1  9  2 -1</clus>
<clus scale="   31.157">  2 10  1 -1</clus>
<clus scale="   91.283">  7  8 -1 -1</clus>
<clus scale="   92.937">  1  7  2 -1</clus>
<clus scale="   94.100">  5  6 -1 -1</clus>
<clus scale="   31.157">  2  5  1 -1</clus>
</clustering>
</event>
<event>
10    2  0.1133532E-006  0.1503306E+03  0.7546771E-02  0.1200181E+00
          2   -1    0    0  503    0  0.00000000000E+00  0.00000000000E+00  0.45699739232E+03  0.45699739232E+03  0.00000000000E+00 0. -1.
         -2   -1    0    0    0  501 -0.00000000000E+00 -0.00000000000E+00 -0.16103453759E+03  0.16103453759E+03  0.00000000000E+00 0.  1.
         23    2    1    2    0    0  0.62153686505E+02  0.59749941376E+02  0.55697970807E+02  0.13714680607E+03  0.90960685043E+02 0.  0.
         23    2    1    2    0    0 -0.11288953960E+03 -0.11594714794E+03  0.76859944261E+02  0.20064382695E+03  0.90347689481E+02 0.  0.
        -11    1    3    3    0    0 -0.20690401394E+02  0.10368332447E+02  0.28945555288E+02  0.37059954108E+02  0.00000000000E+00 0.  1.
         11    1    3    3    0    0  0.82844087898E+02  0.49381608930E+02  0.26752415520E+02  0.10008685197E+03  0.00000000000E+00 0. -1.
        -11    1    4    4    0    0 -0.98006765716E+02 -0.73889015975E+02  0.13963021667E+02  0.12353088190E+03  0.00000000000E+00 0.  1.
         11    1    4    4    0    0 -0.14882773881E+02 -0.42058131962E+02  0.62896922594E+02  0.77112945050E+02  0.00000000000E+00 0. -1.
         21    1    1    2  502  501 -0.16502573365E+01  0.28789544385E+02 -0.50588801378E+02  0.58230473466E+02  0.00000000000E+00 0.  1.
         21    1    1    2  503  502  0.52386110429E+02  0.27407662176E+02  0.21399374104E+03  0.22201082342E+03  0.00000000000E+00 0. -1.
<scales pt_clust_5="13000.00000" pt_clust_6="13000.00000" pt_clust_7="13000.00000" pt_clust_8="13000.00000" pt_clust_9="28.83680" pt_clust_10="59.57758"></scales>
<clustering>
<clus scale="   28.837">  2  9  1 -1</clus>
<clus scale="   59.578">  1 10  2 -1</clus>
<clus scale="   90.348">  7  8 -1 -1</clus>
<clus scale="   90.961">  5  6 -1 -1</clus>
<clus scale="  149.960">  1  7  2 -1</clus>
<clus scale="   59.578">  1  5  2 -1</clus>
</clustering>
</event>
<event>
10    2  0.1133532E-006  0.1352506E+03  0.7546771E-02  0.1219939E+00
         -1   -1    0    0    0  501 -0.00000000000E+00  0.00000000000E+00  0.71280355789E+02  0.71280355789E+02  0.00000000000E+00 0.  1.
          1   -1    0    0  503    0  0.00000000000E+00 -0.00000000000E+00 -0.53591758791E+03  0.53591758791E+03  0.00000000000E+00 0. -1.
         23    2    1    2    0    0 -0.81953001746E+01 -0.10807208085E+03 -0.17789326246E+03  0.22777502024E+03  0.92134192419E+02 0.  0.
         23    2    1    2    0    0 -0.48301742490E+02  0.85794290049E+02 -0.18362876707E+03  0.22769776597E+03  0.91831530524E+02 0.  0.
        -13    1    4    4    0    0 -0.24020806161E+02 -0.16717898911E+02 -0.38268244743E+02  0.48176195661E+02  0.00000000000E+00 0.  1.
         13    1    4    4    0    0 -0.24280936329E+02  0.10251218896E+03 -0.14536052233E+03  0.17952157031E+03  0.00000000000E+00 0. -1.
        -13    1    3    3    0    0  0.20550353500E+02  0.35058336337E+01 -0.57351324424E+02  0.61022801571E+02  0.00000000000E+00 0. -1.
         13    1    3    3    0    0 -0.28745653675E+02 -0.11157791448E+03 -0.12054193804E+03  0.16675221867E+03  0.00000000000E+00 0.  1.
         21    1    1    2  502  501  0.31669532014E+02  0.69964463762E+01  0.10764607745E+02  0.34172888373E+02  0.00000000000E+00 0. -1.
         21    1    1    2  503  502  0.24827510651E+02  0.15281344423E+02 -0.11387981033E+03  0.11755226911E+03  0.00000000000E+00 0. -1.
<scales pt_clust_5="13000.00000" pt_clust_6="13000.00000" pt_clust_7="13000.00000" pt_clust_8="13000.00000" pt_clust_9="33.20130" pt_clust_10="29.15347"></scales>
<clustering>
<clus scale="   29.153">  2 10  1 -1</clus>
<clus scale="   33.201">  1  9  2 -1</clus>
<clus scale="   91.832">  5  6 -1 -1</clus>
<clus scale="   92.134">  7  8 -1 -1</clus>
<clus scale="  135.045">  2  5  1 -1</clus>
<clus scale="   29.153">  2  5  1 -1</clus>
</clustering>
</event>
<event>
10    2  0.1133532E-006  0.1164958E+03  0.7546771E-02  0.1250077E+00
          1   -1    0    0  503    0  0.00000000000E+00  0.00000000000E+00  0.61691821195E+03  0.61691821195E+03  0.00000000000E+00 0. -1.
         -1   -1    0    0    0  501 -0.00000000000E+00 -0.00000000000E+00 -0.60607556891E+02  0.60607556891E+02  0.00000000000E+00 0.  1.
         23    2    1    2    0    0  0.86936566453E+01  0.44762572906E+02  0.11380151630E+03  0.15223903984E+03  0.90258919442E+02 0.  0.
         23    2    1    2    0    0 -0.72888476415E+02 -0.63807995322E+02  0.34711173802E+03  0.37228141559E+03  0.93395414563E+02 0.  0.
        -11    1    3    3    0    0  0.92547875069E+01 -0.25500371580E+02  0.14996491888E+02  0.30997012944E+02  0.00000000000E+00 0. -1.
         11    1    3    3    0    0 -0.56113086165E+00  0.70262944486E+02  0.98805024411E+02  0.12124202689E+03  0.00000000000E+00 0.  1.
        -13    1    4    4    0    0 -0.59251172786E+02 -0.86058401471E+02  0.23513370991E+03  0.25730256796E+03  0.00000000000E+00 0. -1.
         13    1    4    4    0    0 -0.13637303629E+02  0.22250406150E+02  0.11197802811E+03  0.11497884763E+03  0.00000000000E+00 0.  1.
         21    1    1    2  502  501  0.36719247609E+02  0.22121454072E+02 -0.10019438570E+02  0.44023300927E+02  0.00000000000E+00 0. -1.
         21    1    1    2  503  502  0.27475572161E+02 -0.30760316556E+01  0.10541683931E+03  0.10898201249E+03  0.00000000000E+00 0. -1.
<scales pt_clust_5="13000.00000" pt_clust_6="13000.00000" pt_clust_7="13000.00000" pt_clust_8="13000.00000" pt_clust_9="43.60363" pt_clust_10="27.64722"></scales>
<clustering>
<clus scale="   27.647">  1 10  2 -1</clus>
<clus scale="   43.604">  2  9  1 -1</clus>
<clus scale="   90.259">  5  6 -1 -1</clus>
<clus scale="   93.395">  7  8 -1 -1</clus>
<clus scale="  113.997">  2  5  1 -1</clus>
<clus scale="   27.647">  1  5  2 -1</clus>
</clustering>
</event>
<event>
10    2  0.1133532E-006  0.1104349E+03  0.7546771E-02  0.1259964E+00
         -1   -1    0    0    0  501 -0.00000000000E+00  0.00000000000E+00  0.19356166250E+03  0.19356166250E+03  0.00000000000E+00 0.  1.
          1   -1    0    0  503    0  0.00000000000E+00 -0.00000000000E+00 -0.37907994314E+03  0.37907994314E+03  0.00000000000E+00 0. -1.
         23    2    1    2    0    0 -0.71719755898E+02 -0.27704593876E+02  0.10871223164E+03  0.16152010601E+03  0.91428263844E+02 0.  0.
         23    2    1    2    0    0  0.21437728976E+02  0.98317403305E+02 -0.12263235094E+03  0.18335239942E+03  0.91943030510E+02 0.  0.
        -11    1    3    3    0    0 -0.52927499355E+01 -0.41706860018E+02  0.12672892696E+02  0.43909880252E+02  0.00000000000E+00 0. -1.
         11    1    3    3    0    0 -0.66427005963E+02  0.14002266142E+02  0.96039338941E+02  0.11761022576E+03  0.00000000000E+00 0.  1.
        -13    1    4    4    0    0 -0.27854479978E+02  0.78164341235E+02 -0.71727128323E+02  0.10968280281E+03  0.00000000000E+00 0.  1.
         13    1    4    4    0    0  0.49292208954E+02  0.20153062070E+02 -0.50905222617E+02  0.73669596606E+02  0.00000000000E+00 0. -1.
         21    1    1    2  502  501  0.24692731718E+02  0.17443488426E+01  0.12921980162E+02  0.27924027716E+02  0.00000000000E+00 0.  1.
         21    1    1    2  503  502  0.25589295205E+02 -0.72357158272E+02 -0.18452014150E+03  0.19984507250E+03  0.00000000000E+00 0.  1.
<scales pt_clust_5="13000.00000" pt_clust_6="13000.00000" pt_clust_7="13000.00000" pt_clust_8="13000.00000" pt_clust_9="24.75427" pt_clust_10="77.04756"></scales>
<clustering>
<clus scale="   24.754">  1  9  2 -1</clus>
<clus scale="   77.048">  2 10  1 -1</clus>
<clus scale="   91.428">  5  6 -1 -1</clus>
<clus scale="   91.943">  7  8 -1 -1</clus>
<clus scale="  110.007">  1  5  2 -1</clus>
<clus scale="   77.048">  2  5  1 -1</clus>
</clustering>
</event>
<event>
10    2  0.1133532E-006  0.3661425E+03  0.7546771E-02  0.1056222E+00
          2   -1    0    0  503    0  0.00000000000E+00  0.00000000000E+00  0.64811855825E+03  0.64811855825E+03  0.00000000000E+00 0. -1.
         -2   -1    0    0    0  501 -0.00000000000E+00 -0.00000000000E+00 -0.45786072141E+03  0.45786072141E+03  0.00000000000E+00 0.  1.
         23    2    1    2    0    0  0.32374753397E+03 -0.22323443702E+02  0.54273962800E+02  0.34103862224E+03  0.89726679028E+02 0.  0.
         23    2    1    2    0    0 -0.38595573632E+03 -0.64714615802E+02  0.14083466239E+03  0.42587263880E+03  0.91560310466E+02 0.  0.
        -11    1    3    3    0    0  0.27080184223E+03  0.38917367140E+01  0.17384372357E+02  0.27138717687E+03  0.00000000000E+00 0. -1.
         11    1    3    3    0    0  0.52945691740E+02 -0.26215180416E+02  0.36889590443E+02  0.69651445363E+02  0.00000000000E+00 0.  1.
        -11    1    4    4    0    0 -0.21857271689E+02 -0.85379646906E+01  0.35765037354E+02  0.42775870110E+02  0.00000000000E+00 0. -1.
         11    1    4    4    0    0 -0.36409846463E+03 -0.56176651111E+02  0.10506962504E+03  0.38309676869E+03  0.00000000000E+00 0.  1.
         21    1    1    2  502  501  0.34283658542E+02  0.82813952048E+02 -0.15890851598E+03  0.18244296738E+03  0.00000000000E+00 0.  1.
         21    1    1    2  503  502  0.27924543812E+02  0.42241074556E+01  0.15405772763E+03  0.15662505123E+03  0.00000000000E+00 0. -1.
<scales pt_clust_5="13000.00000" pt_clust_6="13000.00000" pt_clust_7="13000.00000" pt_clust_8="13000.00000" pt_clust_9="89.98002" pt_clust_10="28.24222"></scales>
<clustering>
<clus scale="   28.242">  1 10  2 -1</clus>
<clus scale="   89.727">  5  6 -1 -1</clus>
<clus scale="   89.980">  2  9  1 -1</clus>
<clus scale="   91.560">  7  8 -1 -1</clus>
<clus scale="  365.688">  2  5  1 -1</clus>
<clus scale="   28.242">  1  5  2 -1</clus>
</clustering>
</event>
<event>
10    2  0.1133532E-006  0.2247488E+03  0.7546771E-02  0.1130437E+00
          1   -1    0    0  503    0  0.00000000000E+00  0.00000000000E+00  0.29614886137E+03  0.29614886137E+03  0.00000000000E+00 0. -1.
         -1   -1    0    0    0  501 -0.00000000000E+00 -0.00000000000E+00 -0.28445230811E+03  0.28445230811E+03  0.00000000000E+00 0.  1.
         23    2    1    2    0    0 -0.36838343565E+02  0.19856017552E+03 -0.99319884316E+02  0.24267174577E+03  0.90785075402E+02 0.  0.
         23    2    1    2    0    0 -0.33268178997E+02 -0.21901175230E+03  0.79981983372E+02  0.25263538069E+03  0.91403492998E+02 0.  0.
        -11    1    3    3    0    0 -0.57150602325E+02  0.17745657164E+03 -0.64738722931E+02  0.19735280188E+03  0.00000000000E+00 0.  1.
         11    1    3    3    0    0  0.20312258760E+02  0.21103603888E+02 -0.34581161385E+02  0.45318943895E+02  0.00000000000E+00 0. -1.
        -13    1    4    4    0    0 -0.23731436558E+02 -0.10363598764E+03 -0.88874223548E+01  0.10668919951E+03  0.00000000000E+00 0. -1.
         13    1    4    4    0    0 -0.95367424384E+01 -0.11537576466E+03  0.88869405727E+02  0.14594618118E+03  0.00000000000E+00 0.  1.
         21    1    1    2  502  501  0.41552439211E+02  0.27222264267E+02  0.23731951368E+02  0.55053268676E+02  0.00000000000E+00 0. -1.
         21    1    1    2  503  502  0.28554083350E+02 -0.67706874952E+01  0.73025028401E+01  0.30240774343E+02  0.00000000000E+00 0. -1.
<scales pt_clust_5="13000.00000" pt_clust_6="13000.00000" pt_clust_7="13000.00000" pt_clust_8="13000.00000" pt_clust_9="79.44770" pt_clust_10="24.04566"></scales>
<clustering>
<clus scale="   24.046">  9 10 -1 -1</clus>
<clus scale="   79.448">  1  9  2 -1</clus>
<clus scale="   90.785">  5  6 -1 -1</clus>
<clus scale="   91.403">  7  8 -1 -1</clus>
<clus scale="  224.498">  2  5  1 -1</clus>
<clus scale="   79.448">  1  5  2 -1</clus>
</clustering>
</event>
<event>
10    2  0.1133532E-006  0.9636277E+02  0.7546771E-02  0.1288695E+00
          2   -1    0    0  503    0  0.00000000000E+00  0.00000000000E+00  0.25201141920E+03  0.25201141920E+03  0.00000000000E+00 0. -1.
         -2   -1    0    0    0  501 -0.00000000000E+00 -0.00000000000E+00 -0.18203381341E+03  0.18203381341E+03  0.00000000000E+00 0.  1.
         23    2    1    2    0    0  0.36309198054E+02 -0.35276133481E+01 -0.80652623659E+02  0.12674729954E+03  0.90715105235E+02 0.  0.
         23    2    1    2    0    0 -0.49253860967E+02  0.12193180572E+02  0.19714247372E+02  0.10487901132E+03  0.89645630087E+02 0.  0.
        -11    1    3    3    0    0 -0.28034472896E+02 -0.14997782312E+02 -0.33281628995E+02  0.46027513222E+02  0.00000000000E+00 0.  1.
         11    1    3    3    0    0  0.64343670950E+02  0.11470168964E+02 -0.47370994664E+02  0.80719786316E+02  0.00000000000E+00 0. -1.
        -13    1    4    4    0    0 -0.23716668193E+02 -0.35889239041E+02  0.25696371617E+02  0.50108096585E+02  0.00000000000E+00 0.  1.
         13    1    4    4    0    0 -0.25537192775E+02  0.48082419612E+02 -0.59821242451E+01  0.54770914737E+02  0.00000000000E+00 0. -1.
         21    1    1    2  502  501 -0.23698455942E+02 -0.15559348563E+02 -0.27606445228E+02  0.39570518822E+02  0.00000000000E+00 0.  1.
         21    1    1    2  503  502  0.36643118856E+02  0.68937813393E+01  0.15852242730E+03  0.16284840293E+03  0.00000000000E+00 0. -1.
<scales pt_clust_5="13000.00000" pt_clust_6="13000.00000" pt_clust_7="13000.00000" pt_clust_8="13000.00000" pt_clust_9="28.34978" pt_clust_10="36.90502"></scales>
<clustering>
<clus scale="   28.350">  2  9  1 -1</clus>
<clus scale="   36.905">  1 10  2 -1</clus>
<clus scale="   89.646">  7  8 -1 -1</clus>
<clus scale="   90.715">  5  6 -1 -1</clus>
<clus scale="   95.357">  1  7  2 -1</clus>
<clus scale="   36.905">  1  5  2 -1</clus>
</clustering>
</event>
<event>
10    2  0.1133532E-006  0.1001934E+03  0.7546771E-02  0.1279973E+00
         -2   -1    0    0    0  501 -0.00000000000E+00  0.00000000000E+00  0.86360858055E+02  0.86360858055E+02  0.00000000000E+00 0.  1.
          2   -1    0    0  503    0  0.00000000000E+00 -0.00000000000E+00 -0.70621151404E+03  0.70621151404E+03  0.00000000000E+00 0. -1.
         23    2    1    2    0    0 -0.11743187580E+02 -0.95530803700E+01 -0.11647084464E+03  0.14912943834E+03  0.91896506618E+02 0.  0.
         23    2    1    2    0    0  0.60138180373E+02  0.45890349607E+02 -0.21351134887E+03  0.24438255058E+03  0.91723552077E+02 0.  0.
        -13    1    4    4    0    0  0.30685248010E+02 -0.26486945591E+02 -0.80060679134E+02  0.89737701528E+02  0.00000000000E+00 0. -1.
         13    1    4    4    0    0  0.29452932364E+02  0.72377295198E+02 -0.13345066974E+03  0.15464484905E+03  0.00000000000E+00 0.  1.
        -13    1    3    3    0    0  0.16639994318E+02  0.14734395117E+02 -0.10873159869E+03  0.11097996379E+03  0.00000000000E+00 0.  1.
         13    1    3    3    0    0 -0.28383181898E+02 -0.24287475487E+02 -0.77392459542E+01  0.38149474545E+02  0.00000000000E+00 0. -1.
         21    1    1    2  502  501  0.11775676313E+02 -0.29895835401E+02  0.46926049699E+02  0.56872503614E+02  0.00000000000E+00 0.  1.
         21    1    1    2  503  502 -0.60170669106E+02 -0.64414338363E+01 -0.33679451217E+03  0.34218787956E+03  0.00000000000E+00 0. -1.
<scales pt_clust_5="13000.00000" pt_clust_6="13000.00000" pt_clust_7="13000.00000" pt_clust_8="13000.00000" pt_clust_9="32.13141" pt_clust_10="59.89633"></scales>
<clustering>
<clus scale="   32.131">  1  9  2 -1</clus>
<clus scale="   59.896">  2 10  1 -1</clus>
<clus scale="   91.724">  5  6 -1 -1</clus>
<clus scale="   91.897">  7  8 -1 -1</clus>
<clus scale="  100.035">  2  5  1 -1</clus>
<clus scale="   59.896">  2  5  1 -1</clus>
</clustering>
</event>
<event>
10    2  0.1133532E-006  0.9259346E+02  0.7546771E-02  0.1300007E+00
          1   -1    0    0  503    0  0.00000000000E+00  0.00000000000E+00  0.22871024864E+03  0.22871024864E+03  0.00000000000E+00 0. -1.
         -1   -1    0    0    0  501 -0.00000000000E+00 -0.00000000000E+00 -0.29816056760E+03  0.29816056760E+03  0.00000000000E+00 0.  1.
         23    2    1    2    0    0 -0.49673568673E+00 -0.20241834249E+02 -0.19682733435E+03  0.21806264289E+03  0.91653358246E+02 0.  0.
         23    2    1    2    0    0  0.21779984664E+02  0.20795810224E+02  0.15759221669E+03  0.18207991335E+03  0.86086901615E+02 0.  0.
        -11    1    4    4    0    0 -0.31667325251E+02 -0.22061862239E+01  0.41773171052E+02  0.52466032496E+02  0.00000000000E+00 0.  1.
         11    1    4    4    0    0  0.53447309914E+02  0.23001996448E+02  0.11581904563E+03  0.12961388085E+03  0.00000000000E+00 0. -1.
        -13    1    3    3    0    0 -0.31694441968E+02  0.63905699792E+01 -0.15903290906E+03  0.16228630010E+03  0.00000000000E+00 0.  1.
         13    1    3    3    0    0  0.31197706282E+02 -0.26632404228E+02 -0.37794425289E+02  0.55776342791E+02  0.00000000000E+00 0. -1.
         21    1    1    2  502  501 -0.12958306070E+02  0.24220863475E+02 -0.72213467720E+02  0.77261587117E+02  0.00000000000E+00 0.  1.
         21    1    1    2  503  502 -0.83249429074E+01 -0.24774839450E+02  0.41998266422E+02  0.49466672889E+02  0.00000000000E+00 0. -1.
<scales pt_clust_5="13000.00000" pt_clust_6="13000.00000" pt_clust_7="13000.00000" pt_clust_8="13000.00000" pt_clust_9="27.22350" pt_clust_10="26.13613"></scales>
<clustering>
<clus scale="   26.136">  1 10  2 -1</clus>
<clus scale="   27.224">  2  9  1 -1</clus>
<clus scale="   86.087">  5  6 -1 -1</clus>
<clus scale="   87.087">  1  5  2 -1</clus>
<clus scale="   91.653">  7  8 -1 -1</clus>
<clus scale="   26.136">  1  5  2 -1</clus>
</clustering>
</event>
<event>
10    2  0.1133532E-006  0.9763682E+02  0.7546771E-02  0.1285849E+00
         -2   -1    0    0    0  501 -0.00000000000E+00  0.00000000000E+00  0.11847729242E+03  0.11847729242E+03  0.00000000000E+00 0.  1.
          2   -1    0    0  503    0  0.00000000000E+00 -0.00000000000E+00 -0.22244636615E+03  0.22244636615E+03  0.00000000000E+00 0. -1.
         23    2    1    2    0    0  0.64508257368E+02 -0.25396320748E+02 -0.99130514066E+01  0.11534466861E+03  0.91650617083E+02 0.  0.
         23    2    1    2    0    0  0.10395684515E+01  0.31135668212E+02 -0.10626124507E+03  0.14311697841E+03  0.90667010361E+02 0.  0.
        -11    1    3    3    0    0 -0.14437521543E+02  0.18285920166E+02 -0.93859977366E+01  0.25117998689E+02  0.00000000000E+00 0. -1.
         11    1    3    3    0    0  0.78945778910E+02 -0.43682240914E+02 -0.52705366996E+00  0.90226669919E+02  0.00000000000E+00 0.  1.
        -13    1    4    4    0    0 -0.31403009603E+02 -0.17959914141E+02 -0.31454101920E+02  0.47938169089E+02  0.00000000000E+00 0. -1.
         13    1    4    4    0    0  0.32442578054E+02  0.49095582353E+02 -0.74807143152E+02  0.95178809321E+02  0.00000000000E+00 0.  1.
         21    1    1    2  502  501 -0.23725876707E+02  0.93488113772E+01  0.25492990959E+02  0.36058426029E+02  0.00000000000E+00 0. -1.
         21    1    1    2  503  502 -0.41821949113E+02 -0.15088158841E+02 -0.13287768214E+02  0.46403585517E+02  0.00000000000E+00 0. -1.
<scales pt_clust_5="13000.00000" pt_clust_6="13000.00000" pt_clust_7="13000.00000" pt_clust_8="13000.00000" pt_clust_9="25.50132" pt_clust_10="48.18009"></scales>
<clustering>
<clus scale="   25.501">  1  9  2 -1</clus>
<clus scale="   48.180">  1 10  2 -1</clus>
<clus scale="   90.667">  7  8 -1 -1</clus>
<clus scale="   91.651">  5  6 -1 -1</clus>
<clus scale="   96.714">  2  7  1 -1</clus>
<clus scale="   96.714">  2  5  1 -1</clus>
</clustering>
</event>
<event>
10    2  0.1133532E-006  0.2331704E+03  0.7546771E-02  0.1150904E+00
         -1   -1    0    0    0  501 -0.00000000000E+00  0.00000000000E+00  0.11603969857E+04  0.11603969857E+04  0.00000000000E+00 0.  1.
          1   -1    0    0  503    0  0.00000000000E+00 -0.00000000000E+00 -0.31070247806E+03  0.31070247806E+03  0.00000000000E+00 0. -1.
         23    2    1    2    0    0 -0.17396109229E+03  0.21341052812E+03  0.93421061001E+03  0.97823439658E+03  0.91578139656E+02 0.  0.
         23    2    1    2    0    0  0.28472006200E+02 -0.73140465077E+02  0.69548548887E+02  0.13842760942E+03  0.90360498172E+02 0.  0.
        -11    1    4    4    0    0  0.56293162126E+02 -0.48609857668E+02  0.20909483306E+02  0.77259593947E+02  0.00000000000E+00 0. -1.
         11    1    4    4    0    0 -0.27821155926E+02 -0.24530607408E+02  0.48639065581E+02  0.61168015477E+02  0.00000000000E+00 0.  1.
        -13    1    3    3    0    0 -0.14417821460E+02  0.64187056374E+02  0.30995421431E+03  0.31685874889E+03  0.00000000000E+00 0. -1.
         13    1    3    3    0    0 -0.15954327083E+03  0.14922347174E+03  0.62425639570E+03  0.66137564769E+03  0.00000000000E+00 0.  1.
         21    1    1    2  502  501  0.69257495290E+02 -0.22769475031E+02  0.62834664943E+02  0.96245751935E+02  0.00000000000E+00 0.  1.
         21    1    1    2  503  502  0.76231590800E+02 -0.11750058801E+03 -0.21689931616E+03  0.25819170585E+03  0.00000000000E+00 0. -1.
<scales pt_clust_5="13000.00000" pt_clust_6="13000.00000" pt_clust_7="13000.00000" pt_clust_8="13000.00000" pt_clust_9="72.90439" pt_clust_10="214.43389"></scales>
<clustering>
<clus scale="   72.904">  1  9  2 -1</clus>
<clus scale="   90.360">  5  6 -1 -1</clus>
<clus scale="   91.578">  7  8 -1 -1</clus>
<clus scale="  122.777">  2  5  1 -1</clus>
<clus scale="  214.434">  2 10  1 -1</clus>
<clus scale="  122.777">  2  5  1 -1</clus>
</clustering>
</event>
<event>
10    2  0.1133532E-006  0.1032685E+03  0.7546771E-02  0.1273672E+00
         -2   -1    0    0    0  501 -0.00000000000E+00  0.00000000000E+00  0.35859719161E+03  0.35859719161E+03  0.00000000000E+00 0.  1.
          2   -1    0    0  503    0  0.00000000000E+00 -0.00000000000E+00 -0.32561014398E+03  0.32561014398E+03  0.00000000000E+00 0. -1.
         23    2    1    2    0    0 -0.10974456369E+02  0.11069085252E+02  0.86036576448E+02  0.12675181777E+03  0.91764739852E+02 0.  0.
         23    2    1    2    0    0 -0.95008997226E+02 -0.18672272564E+02  0.15228233382E+02  0.13442454199E+03  0.91992907772E+02 0.  0.
        -11    1    3    3    0    0  0.35035348004E+02  0.22106089304E+02  0.21340609962E+02  0.46600176262E+02  0.00000000000E+00 0.  1.
         11    1    3    3    0    0 -0.46009804373E+02 -0.11037004052E+02  0.64695966486E+02  0.80151641508E+02  0.00000000000E+00 0. -1.
        -13    1    4    4    0    0 -0.20433435422E+02 -0.44373280193E+02  0.25110878558E+02  0.54927857232E+02  0.00000000000E+00 0.  1.
         13    1    4    4    0    0 -0.74575561805E+02  0.25701007629E+02 -0.98826451756E+01  0.79496684756E+02  0.00000000000E+00 0. -1.
         21    1    1    2  502  501  0.70057807666E+02  0.94983192374E+01  0.16892121106E+03  0.18311933276E+03  0.00000000000E+00 0.  1.
         21    1    1    2  503  502  0.35925645929E+02 -0.18951319259E+01 -0.23719897326E+03  0.23991164306E+03  0.00000000000E+00 0.  1.
<scales pt_clust_5="13000.00000" pt_clust_6="13000.00000" pt_clust_7="13000.00000" pt_clust_8="13000.00000" pt_clust_9="73.58310" pt_clust_10="35.97560"></scales>
<clustering>
<clus scale="   35.976">  2 10  1 -1</clus>
<clus scale="   73.583">  1  9  2 -1</clus>
<clus scale="   91.765">  5  6 -1 -1</clus>
<clus scale="   91.993">  7  8 -1 -1</clus>
<clus scale="  103.065">  1  5  2 -1</clus>
<clus scale="   35.976">  2  5  1 -1</clus>
</clustering>
</event>
<event>
10    2  0.1133532E-006  0.9789596E+02  0.7546771E-02  0.1288091E+00
         -1   -1    0    0    0  501 -0.00000000000E+00  0.00000000000E+00  0.48981210342E+03  0.48981210342E+03  0.00000000000E+00 0.  1.
          1   -1    0    0  503    0  0.00000000000E+00 -0.00000000000E+00 -0.32504282953E+02  0.32504282953E+02  0.00000000000E+00 0. -1.
         23    2    1    2    0    0  0.10633140548E+02  0.44076467466E+01  0.21419293657E+03  0.23481950748E+03  0.95546302865E+02 0.  0.
         23    2    1    2    0    0 -0.20408422611E+02 -0.14853838360E+02  0.11492336014E+03  0.14782101453E+03  0.89479234476E+02 0.  0.
        -11    1    3    3    0    0  0.42384982065E+02 -0.79977846709E+01  0.45416079190E+02  0.62634427540E+02  0.00000000000E+00 0. -1.
         11    1    3    3    0    0 -0.31751841518E+02  0.12405431417E+02  0.16877685738E+03  0.17218507994E+03  0.00000000000E+00 0.  1.
        -11    1    4    4    0    0  0.23525163947E+02  0.13972121882E+02  0.77159061265E+01  0.28428660468E+02  0.00000000000E+00 0. -1.
         11    1    4    4    0    0 -0.43933586558E+02 -0.28825960242E+02  0.10720745401E+03  0.11939235406E+03  0.00000000000E+00 0.  1.
         21    1    1    2  502  501  0.25806563601E+02 -0.42492813255E+01  0.10358708416E+03  0.10683781691E+03  0.00000000000E+00 0.  1.
         21    1    1    2  503  502 -0.16031281538E+02  0.14695472939E+02  0.24604439595E+02  0.32838047451E+02  0.00000000000E+00 0. -1.
<scales pt_clust_5="13000.00000" pt_clust_6="13000.00000" pt_clust_7="13000.00000" pt_clust_8="13000.00000" pt_clust_9="25.12090" pt_clust_10="21.74762"></scales>
<clustering>
<clus scale="   21.748">  2 10  1 -1</clus>
<clus scale="   25.121">  1  9  2 -1</clus>
<clus scale="   89.479">  7  8 -1 -1</clus>
<clus scale="   91.984">  2  7  1 -1</clus>
<clus scale="   95.546">  5  6 -1 -1</clus>
<clus scale="   21.748">  2  5  1 -1</clus>
</clustering>
</event>
<event>
10    2  0.1133532E-006  0.9518876E+02  0.7546771E-02  0.1291153E+00
          1   -1    0    0  502    0  0.00000000000E+00  0.00000000000E+00  0.29086054607E+03  0.29086054607E+03  0.00000000000E+00 0. -1.
         -1   -1    0    0    0  501 -0.00000000000E+00 -0.00000000000E+00 -0.79409718797E+02  0.79409718797E+02  0.00000000000E+00 0.  1.
         23    2    1    2    0    0 -0.42333706632E+02 -0.19062340128E+02  0.61751303000E+02  0.11960444508E+03  0.91304350017E+02 0.  0.
         23    2    1    2    0    0  0.12109879476E+02  0.82397990761E+01  0.15754497731E+03  0.18304733888E+03  0.92040018057E+02 0.  0.
        -11    1    3    3    0    0 -0.22763960738E+02  0.33600274133E+02  0.70528270142E+01  0.41193673048E+02  0.00000000000E+00 0. -1.
         11    1    3    3    0    0 -0.19569745894E+02 -0.52662614261E+02  0.54698475986E+02  0.78410772030E+02  0.00000000000E+00 0.  1.
        -13    1    4    4    0    0  0.80489390221E+01 -0.30301480572E+02  0.13952046346E+02  0.34316537434E+02  0.00000000000E+00 0.  1.
         13    1    4    4    0    0  0.40609404540E+01  0.38541279648E+02  0.14359293097E+03  0.14873080144E+03  0.00000000000E+00 0. -1.
         21    1    1    2  502  503  0.83479104617E+01  0.26977732130E+02 -0.23058467300E+02  0.36457901122E+02  0.00000000000E+00 0.  1.
         21    1    1    2  503  501  0.21875916694E+02 -0.16155191078E+02  0.15213014262E+02  0.31160579791E+02  0.00000000000E+00 0.  1.
<scales pt_clust_5="13000.00000" pt_clust_6="13000.00000" pt_clust_7="13000.00000" pt_clust_8="13000.00000" pt_clust_9="26.73684" pt_clust_10="27.19459"></scales>
<clustering>
<clus scale="   27.195">  2 10  1 -1</clus>
<clus scale="   26.737">  2  9  1 -1</clus>
<clus scale="   91.304">  5  6 -1 -1</clus>
<clus scale="   92.040">  7  8 -1 -1</clus>
<clus scale="   94.478">  2  5  1 -1</clus>
<clus scale="   95.189">  1  5  2 -1</clus>
</clustering>
</event>
<event>
10    2  0.1133532E-006  0.1535892E+03  0.7546771E-02  0.1198378E+00
          2   -1    0    0  503    0  0.00000000000E+00  0.00000000000E+00  0.13204907390E+03  0.13204907390E+03  0.00000000000E+00 0. -1.
         -2   -1    0    0    0  501 -0.00000000000E+00 -0.00000000000E+00 -0.36872882198E+03  0.36872882198E+03  0.00000000000E+00 0.  1.
         23    2    1    2    0    0 -0.10617535009E+03 -0.99708784081E+01 -0.10212732996E+03  0.16935995334E+03  0.82946843747E+02 0.  0.
         23    2    1    2    0    0  0.13155059859E+03  0.21623917286E+02 -0.13326304379E+01  0.16388715633E+03  0.95310389339E+02 0.  0.
        -11    1    4    4    0    0  0.21227659050E+02 -0.13476404210E+02  0.34505507841E+02  0.42694930033E+02  0.00000000000E+00 0.  1.
         11    1    4    4    0    0  0.11032293954E+03  0.35100321496E+02 -0.35838138279E+02  0.12119222629E+03  0.00000000000E+00 0. -1.
        -13    1    3    3    0    0 -0.10444697987E+03  0.18880746779E+02 -0.78176209223E+02  0.13182250905E+03  0.00000000000E+00 0.  1.
         13    1    3    3    0    0 -0.17283702214E+01 -0.28851625187E+02 -0.23951120740E+02  0.37537444296E+02  0.00000000000E+00 0. -1.
         21    1    1    2  502  501 -0.20296001785E+02  0.19562050023E+02 -0.13294846155E+03  0.13590399155E+03  0.00000000000E+00 0.  1.
         21    1    1    2  503  502 -0.50792467170E+01 -0.31215088901E+02 -0.27132612716E+00  0.31626794655E+02  0.00000000000E+00 0.  1.
<scales pt_clust_5="13000.00000" pt_clust_6="13000.00000" pt_clust_7="13000.00000" pt_clust_8="13000.00000" pt_clust_9="28.18868" pt_clust_10="30.57393"></scales>
<clustering>
<clus scale="   28.189">  2  9  1 -1</clus>
<clus scale="   30.574">  1 10  2 -1</clus>
<clus scale="   82.947">  7  8 -1 -1</clus>
<clus scale="   95.310">  5  6 -1 -1</clus>
<clus scale="  146.239">  2  7  1 -1</clus>
<clus scale="   30.574">  1  5  2 -1</clus>
</clustering>
</event>
<event>
10    2  0.1133532E-006  0.1300549E+03  0.7546771E-02  0.1228951E+00
         -2   -1    0    0    0  501 -0.00000000000E+00  0.00000000000E+00  0.34669163911E+02  0.34669163911E+02  0.00000000000E+00 0.  1.
          2   -1    0    0  503    0  0.00000000000E+00 -0.00000000000E+00 -0.79802695051E+03  0.79802695051E+03  0.00000000000E+00 0. -1.
         23    2    1    2    0    0 -0.95216816216E+02  0.48335226712E+02 -0.25698536772E+03  0.29449484822E+03  0.96349365200E+02 0.  0.
         23    2    1    2    0    0  0.61749292352E+02 -0.34888061510E+02 -0.33879274011E+03  0.35780517924E+03  0.90630423113E+02 0.  0.
        -11    1    4    4    0    0  0.72423202433E+02  0.59463036017E+01 -0.22455435693E+03  0.23601935936E+03  0.00000000000E+00 0.  1.
         11    1    4    4    0    0 -0.10673910081E+02 -0.40834365112E+02 -0.11423838319E+03  0.12178581988E+03  0.00000000000E+00 0. -1.
        -11    1    3    3    0    0 -0.95834712985E+02  0.30181560403E+01 -0.14663915506E+03  0.17520400473E+03  0.00000000000E+00 0. -1.
         11    1    3    3    0    0  0.61789676937E+00  0.45317070672E+02 -0.11034621267E+03  0.11929084349E+03  0.00000000000E+00 0.  1.
         21    1    1    2  502  501  0.11568847714E+02 -0.20559765182E+02 -0.19700581033E+02  0.30735241577E+02  0.00000000000E+00 0. -1.
         21    1    1    2  503  502  0.21898676149E+02  0.71125999798E+01 -0.14787909772E+03  0.14966084538E+03  0.00000000000E+00 0. -1.
<scales pt_clust_5="13000.00000" pt_clust_6="13000.00000" pt_clust_7="13000.00000" pt_clust_8="13000.00000" pt_clust_9="23.78366" pt_clust_10="23.02479"></scales>
<clustering>
<clus scale="   23.025">  2 10  1 -1</clus>
<clus scale="   23.784">  1  9  2 -1</clus>
<clus scale="   90.630">  5  6 -1 -1</clus>
<clus scale="   96.349">  7  8 -1 -1</clus>
<clus scale="  125.877">  2  5  1 -1</clus>
<clus scale="   23.025">  2  5  1 -1</clus>
</clustering>
</event>
<event>
10    2  0.1133532E-006  0.1218943E+03  0.7546771E-02  0.1251992E+00
         -1   -1    0    0    0  501 -0.00000000000E+00  0.00000000000E+00  0.45414095958E+03  0.45414095958E+03  0.00000000000E+00 0.  1.
          1   -1    0    0  503    0  0.00000000000E+00 -0.00000000000E+00 -0.85967317853E+02  0.85967317853E+02  0.00000000000E+00 0. -1.
         23    2    1    2    0    0  0.47312661319E+02 -0.49871576496E+01  0.21311180220E+03  0.23631178432E+03  0.90350758200E+02 0.  0.
         23    2    1    2    0    0  0.23766472073E+02  0.33065155963E+02  0.12882535531E+02  0.12518519194E+03  0.11767422329E+03 0.  0.
        -11    1    3    3    0    0 -0.36267262480E+01 -0.31960776145E+02  0.13762896212E+03  0.14133780658E+03  0.00000000000E+00 0.  1.
         11    1    3    3    0    0  0.50939387567E+02  0.26973618495E+02  0.75482840089E+02  0.94973977743E+02  0.00000000000E+00 0. -1.
        -13    1    4    4    0    0 -0.24265066771E+02 -0.28477532563E+02  0.26621407375E+02  0.45917999269E+02  0.00000000000E+00 0.  1.
         13    1    4    4    0    0  0.48031538844E+02  0.61542688526E+02 -0.13738871844E+02  0.79267192673E+02  0.00000000000E+00 0. -1.
         21    1    1    2  502  501 -0.29646901119E+02 -0.30710094546E+02  0.12769645726E+03  0.13464187258E+03  0.00000000000E+00 0. -1.
         21    1    1    2  503  502 -0.41432232273E+02  0.26320962320E+01  0.14482846730E+02  0.43969428596E+02  0.00000000000E+00 0.  1.
<scales pt_clust_5="13000.00000" pt_clust_6="13000.00000" pt_clust_7="13000.00000" pt_clust_8="13000.00000" pt_clust_9="44.02323" pt_clust_10="41.51575"></scales>
<clustering>
<clus scale="   41.516">  2 10  1 -1</clus>
<clus scale="   44.023">  1  9  2 -1</clus>
<clus scale="   90.351">  5  6 -1 -1</clus>
<clus scale="   95.782">  1  5  2 -1</clus>
<clus scale="  117.674">  7  8 -1 -1</clus>
<clus scale="   41.516">  2  5  1 -1</clus>
</clustering>
</event>
<event>
10    2  0.1133532E-006  0.1559335E+03  0.7546771E-02  0.1194739E+00
          2   -1    0    0  503    0  0.00000000000E+00  0.00000000000E+00  0.10584867265E+04  0.10584867265E+04  0.00000000000E+00 0. -1.
         -2   -1    0    0    0  501 -0.00000000000E+00 -0.00000000000E+00 -0.83339159902E+02  0.83339159902E+02  0.00000000000E+00 0.  1.
         23    2    1    2    0    0  0.76499503292E+02  0.66486822194E+02  0.93919285462E+02  0.16087408511E+03  0.82383053762E+02 0.  0.
         23    2    1    2    0    0 -0.18318158177E+03 -0.48535739649E+02  0.34733991752E+03  0.40591216384E+03  0.90600532724E+02 0.  0.
        -11    1    3    3    0    0  0.43821638412E+02  0.82907172151E+02  0.62879804467E+02  0.11290617785E+03  0.00000000000E+00 0. -1.
         11    1    3    3    0    0  0.32677864880E+02 -0.16420349957E+02  0.31039480996E+02  0.47967907254E+02  0.00000000000E+00 0.  1.
        -13    1    4    4    0    0 -0.74266871752E+02 -0.52333892309E+02  0.97130568590E+02  0.13299906721E+03  0.00000000000E+00 0.  1.
         13    1    4    4    0    0 -0.10891471002E+03  0.37981526595E+01  0.25020934893E+03  0.27291309663E+03  0.00000000000E+00 0. -1.
         21    1    1    2  502  501  0.32188329874E+02 -0.49845869043E+02  0.33514030549E+02  0.68146089282E+02  0.00000000000E+00 0.  1.
         21    1    1    2  503  502  0.74493748603E+02  0.31894786498E+02  0.50037433303E+03  0.50689354814E+03  0.00000000000E+00 0.  1.
<scales pt_clust_5="13000.00000" pt_clust_6="13000.00000" pt_clust_7="13000.00000" pt_clust_8="13000.00000" pt_clust_9="59.33548" pt_clust_10="81.57795"></scales>
<clustering>
<clus scale="   59.335">  2  9  1 -1</clus>
<clus scale="   81.578">  1 10  2 -1</clus>
<clus scale="   82.383">  5  6 -1 -1</clus>
<clus scale="   90.601">  7  8 -1 -1</clus>
<clus scale="  151.307">  2  5  1 -1</clus>
<clus scale="   81.578">  1  5  2 -1</clus>
</clustering>
</event>
<event>
10    2  0.1133532E-006  0.1221582E+03  0.7546771E-02  0.1240255E+00
          2   -1    0    0  503    0  0.00000000000E+00  0.00000000000E+00  0.28015829537E+03  0.28015829537E+03  0.00000000000E+00 0. -1.
         -2   -1    0    0    0  501 -0.00000000000E+00 -0.00000000000E+00 -0.11132148177E+03  0.11132148177E+03  0.00000000000E+00 0.  1.
         23    2    1    2    0    0 -0.52584424927E+02  0.31958933071E+02  0.99176537692E+01  0.10982629332E+03  0.90426543115E+02 0.  0.
         23    2    1    2    0    0  0.10148458787E+03 -0.43670506206E+02  0.82867010364E+02  0.16384738878E+03  0.88163431847E+02 0.  0.
        -11    1    3    3    0    0 -0.19851280730E+01  0.47947094692E+02  0.25735916277E+02  0.54453668467E+02  0.00000000000E+00 0. -1.
         11    1    3    3    0    0 -0.50599296854E+02 -0.15988161621E+02 -0.15818262508E+02  0.55372624851E+02  0.00000000000E+00 0.  1.
        -13    1    4    4    0    0  0.10058166755E+03 -0.22923901482E+02  0.94622862886E+02  0.13998451089E+03  0.00000000000E+00 0. -1.
         13    1    4    4    0    0  0.90292031153E+00 -0.20746604724E+02 -0.11755852521E+02  0.23862877890E+02  0.00000000000E+00 0.  1.
         21    1    1    2  502  501 -0.23321781084E+02 -0.17042568005E+02 -0.38290039035E+01  0.29137876862E+02  0.00000000000E+00 0.  1.
         21    1    1    2  503  502 -0.25578381855E+02  0.28754141140E+02  0.79881153376E+02  0.88668218183E+02  0.00000000000E+00 0.  1.
<scales pt_clust_5="13000.00000" pt_clust_6="13000.00000" pt_clust_7="13000.00000" pt_clust_8="13000.00000" pt_clust_9="28.88520" pt_clust_10="38.63562"></scales>
<clustering>
<clus scale="   28.885">  2  9  1 -1</clus>
<clus scale="   38.636">  1 10  2 -1</clus>
<clus scale="   88.163">  7  8 -1 -1</clus>
<clus scale="   90.427">  5  6 -1 -1</clus>
<clus scale="  120.493">  1  7  2 -1</clus>
<clus scale="   38.636">  1  5  2 -1</clus>
</clustering>
</event>
<event>
10    2  0.1133532E-006  0.1955827E+03  0.7546771E-02  0.1154448E+00
          1   -1    0    0  503    0  0.00000000000E+00  0.00000000000E+00  0.21127592922E+03  0.21127592922E+03  0.00000000000E+00 0. -1.
         -1   -1    0    0    0  501 -0.00000000000E+00 -0.00000000000E+00 -0.33324523387E+03  0.33324523387E+03  0.00000000000E+00 0.  1.
         23    2    1    2    0    0  0.69819712774E+02  0.12125345748E+03 -0.93190628221E+02  0.19068661144E+03  0.89998318605E+02 0.  0.
         23    2    1    2    0    0 -0.43183959719E+02 -0.18088905836E+03  0.77960972785E+02  0.22449510644E+03  0.98663233929E+02 0.  0.
        -11    1    3    3    0    0  0.18179338364E+02  0.17685541404E+02  0.17285413892E+02  0.30692869718E+02  0.00000000000E+00 0. -1.
         11    1    3    3    0    0  0.51640374410E+02  0.10356791608E+03 -0.11047604211E+03  0.15999374172E+03  0.00000000000E+00 0.  1.
        -13    1    4    4    0    0 -0.35205395792E+02 -0.68836705938E+01  0.19036704014E+02  0.40610354756E+02  0.00000000000E+00 0.  1.
         13    1    4    4    0    0 -0.79785639274E+01 -0.17400538776E+03  0.58924268770E+02  0.18388475169E+03  0.00000000000E+00 0. -1.
         21    1    1    2  502  501 -0.12764954326E+02  0.17555733043E+02 -0.64769607663E+02  0.68309954607E+02  0.00000000000E+00 0.  1.
         21    1    1    2  503  502 -0.13870798729E+02  0.42079867835E+02 -0.41970041556E+02  0.61029490598E+02  0.00000000000E+00 0.  1.
<scales pt_clust_5="13000.00000" pt_clust_6="13000.00000" pt_clust_7="13000.00000" pt_clust_8="13000.00000" pt_clust_9="21.70594" pt_clust_10="48.31519"></scales>
<clustering>
<clus scale="   21.706">  2  9  1 -1</clus>
<clus scale="   48.315">  2 10  1 -1</clus>
<clus scale="   89.998">  5  6 -1 -1</clus>
<clus scale="   98.663">  7  8 -1 -1</clus>
<clus scale="  191.358">  2  5  1 -1</clus>
<clus scale="  195.583">  1  5  2 -1</clus>
</clustering>
</event>
<event>
10    2  0.1133532E-006  0.1024441E+03  0.7546771E-02  0.1275347E+00
          1   -1    0    0  503    0  0.00000000000E+00  0.00000000000E+00  0.28360062860E+03  0.28360062860E+03  0.00000000000E+00 0. -1.
         -1   -1    0    0    0  501 -0.00000000000E+00 -0.00000000000E+00 -0.99422397890E+02  0.99422397890E+02  0.00000000000E+00 0.  1.
         23    2    1    2    0    0 -0.36989246498E+02  0.51082653376E+02  0.85654773906E+02  0.13969294228E+03  0.90552393663E+02 0.  0.
         23    2    1    2    0    0 -0.27976931159E+02 -0.46243321509E+02  0.75709642330E+02  0.12965073192E+03  0.90311731707E+02 0.  0.
        -11    1    3    3    0    0 -0.14066063917E+02  0.63489801383E+02  0.18428063664E+02  0.67589959048E+02  0.00000000000E+00 0.  1.
         11    1    3    3    0    0 -0.22923182581E+02 -0.12407148007E+02  0.67226710242E+02  0.72102983234E+02  0.00000000000E+00 0. -1.
        -13    1    4    4    0    0  0.87056823641E+01 -0.57671748271E+02  0.19370755724E+02  0.61457673495E+02  0.00000000000E+00 0. -1.
         13    1    4    4    0    0 -0.36682613523E+02  0.11428426762E+02  0.56338886606E+02  0.68193058423E+02  0.00000000000E+00 0.  1.
         21    1    1    2  502  501  0.38205777920E+02 -0.36693282684E+02 -0.17460498607E+02  0.55775868189E+02  0.00000000000E+00 0. -1.
         21    1    1    2  503  502  0.26760399737E+02  0.31853950817E+02  0.40274313077E+02  0.57903484097E+02  0.00000000000E+00 0. -1.
<scales pt_clust_5="13000.00000" pt_clust_6="13000.00000" pt_clust_7="13000.00000" pt_clust_8="13000.00000" pt_clust_9="52.85552" pt_clust_10="41.60280"></scales>
<clustering>
<clus scale="   41.603">  1 10  2 -1</clus>
<clus scale="   52.856">  2  9  1 -1</clus>
<clus scale="   90.312">  7  8 -1 -1</clus>
<clus scale="   90.552">  5  6 -1 -1</clus>
<clus scale="  102.231">  1  7  2 -1</clus>
<clus scale="   41.603">  1  5  2 -1</clus>
</clustering>
</event>
<event>
10    2  0.1133532E-006  0.1506038E+03  0.7546771E-02  0.1199816E+00
         -1   -1    0    0    0  501 -0.00000000000E+00  0.00000000000E+00  0.15677379997E+03  0.15677379997E+03  0.00000000000E+00 0.  1.
          1   -1    0    0  503    0  0.00000000000E+00 -0.00000000000E+00 -0.50665465116E+03  0.50665465116E+03  0.00000000000E+00 0. -1.
         23    2    1    2    0    0  0.10844659769E+03 -0.65118681851E+02  0.50195047594E+02  0.16406882275E+03  0.91640212345E+02 0.  0.
         23    2    1    2    0    0 -0.66872494266E+02  0.36114868950E+02 -0.18255918589E+03  0.21813617243E+03  0.92083218456E+02 0.  0.
        -13    1    4    4    0    0 -0.85509398219E+01 -0.28489115642E+02 -0.68365599305E+02  0.74556042346E+02  0.00000000000E+00 0.  1.
         13    1    4    4    0    0 -0.58321554444E+02  0.64603984593E+02 -0.11419358658E+03  0.14358013008E+03  0.00000000000E+00 0. -1.
        -13    1    3    3    0    0  0.11186547301E+03 -0.29124661019E+02  0.20755562689E+02  0.11744327701E+03  0.00000000000E+00 0.  1.
         13    1    3    3    0    0 -0.34188753233E+01 -0.35994020832E+02  0.29439484905E+02  0.46625545741E+02  0.00000000000E+00 0. -1.
         21    1    1    2  502  501  0.25953319413E+02  0.28590560753E+02  0.13215569545E+02  0.40812329401E+02  0.00000000000E+00 0. -1.
         21    1    1    2  503  502 -0.67527422835E+02  0.41325214792E+00 -0.23073228244E+03  0.24041112656E+03  0.00000000000E+00 0. -1.
<scales pt_clust_5="13000.00000" pt_clust_6="13000.00000" pt_clust_7="13000.00000" pt_clust_8="13000.00000" pt_clust_9="38.61340" pt_clust_10="66.57593"></scales>
<clustering>
<clus scale="   38.613">  1  9  2 -1</clus>
<clus scale="   66.576">  2 10  1 -1</clus>
<clus scale="   91.640">  7  8 -1 -1</clus>
<clus scale="   92.083">  5  6 -1 -1</clus>
<clus scale="  150.333">  1  7  2 -1</clus>
<clus scale="   66.576">  2  5  1 -1</clus>
</clustering>
</event>
<event>
10    2  0.1133532E-006  0.1336608E+03  0.7546771E-02  0.1222413E+00
          1   -1    0    0  503    0  0.00000000000E+00  0.00000000000E+00  0.50412374133E+03  0.50412374133E+03  0.00000000000E+00 0. -1.
         -1   -1    0    0    0  501 -0.00000000000E+00 -0.00000000000E+00 -0.13172440610E+03  0.13172440610E+03  0.00000000000E+00 0.  1.
         23    2    1    2    0    0  0.65909525858E+02  0.38928478588E+02 -0.43996706106E+02  0.12662729626E+03  0.90770424507E+02 0.  0.
         23    2    1    2    0    0 -0.11470499928E+03 -0.63089788387E+02  0.14645860732E+03  0.21689341564E+03  0.91951464534E+02 0.  0.
        -11    1    4    4    0    0 -0.55123471317E+02  0.16062619303E+02  0.76328939262E+02  0.95512888124E+02  0.00000000000E+00 0. -1.
         11    1    4    4    0    0 -0.59581527967E+02 -0.79152407690E+02  0.70129668059E+02  0.12138052752E+03  0.00000000000E+00 0.  1.
        -11    1    3    3    0    0  0.63668609704E+02 -0.24597953374E+01 -0.54525969293E+02  0.83861932855E+02  0.00000000000E+00 0. -1.
         11    1    3    3    0    0  0.22409161540E+01  0.41388273925E+02  0.10529263187E+02  0.42765363403E+02  0.00000000000E+00 0.  1.
         21    1    1    2  502  501  0.51541416394E+01  0.21355188012E+02  0.34043842004E+01  0.22230588450E+02  0.00000000000E+00 0. -1.
         21    1    1    2  503  502  0.43641331786E+02  0.28061217874E+01  0.26653304981E+03  0.27009684708E+03  0.00000000000E+00 0. -1.
<scales pt_clust_5="13000.00000" pt_clust_6="13000.00000" pt_clust_7="13000.00000" pt_clust_8="13000.00000" pt_clust_9="21.96837" pt_clust_10="43.82742"></scales>
<clustering>
<clus scale="   21.968">  2  9  1 -1</clus>
<clus scale="   43.827">  1 10  2 -1</clus>
<clus scale="   90.770">  7  8 -1 -1</clus>
<clus scale="   91.951">  5  6 -1 -1</clus>
<clus scale="  132.851">  2  7  1 -1</clus>
<clus scale="   43.827">  1  5  2 -1</clus>
</clustering>
</event>
<event>
10    2  0.1133532E-006  0.9967952E+02  0.7546771E-02  0.1282820E+00
          2   -1    0    0  503    0  0.00000000000E+00  0.00000000000E+00  0.95232333365E+02  0.95232333365E+02  0.00000000000E+00 0. -1.
         -2   -1    0    0    0  501 -0.00000000000E+00 -0.00000000000E+00 -0.65777941351E+03  0.65777941351E+03  0.00000000000E+00 0.  1.
         23    2    1    2    0    0 -0.24502175245E+02  0.63113770815E+01 -0.32354682418E+03  0.33673297729E+03  0.89812919385E+02 0.  0.
         23    2    1    2    0    0  0.33558595705E+02 -0.21788686603E+02 -0.59096177273E+02  0.11761239289E+03  0.93484707752E+02 0.  0.
        -11    1    3    3    0    0 -0.65219619369E+01  0.42713419860E+02 -0.91847728546E+02  0.10150358350E+03  0.00000000000E+00 0. -1.
         11    1    3    3    0    0 -0.17980213308E+02 -0.36402042778E+02 -0.23169909563E+03  0.23522939379E+03  0.00000000000E+00 0.  1.
        -11    1    4    4    0    0 -0.22138115445E+02  0.48105169256E+01  0.10172867138E+02  0.24833937552E+02  0.00000000000E+00 0.  1.
         11    1    4    4    0    0  0.55696711150E+02 -0.26599203529E+02 -0.69269044411E+02  0.92778455338E+02  0.00000000000E+00 0. -1.
         21    1    1    2  502  501  0.11807199744E+02  0.33030437616E+02 -0.23478227931E+03  0.23738815988E+03  0.00000000000E+00 0. -1.
         21    1    1    2  503  502 -0.20863620204E+02 -0.17553128094E+02  0.54878200609E+02  0.61278216815E+02  0.00000000000E+00 0. -1.
<scales pt_clust_5="13000.00000" pt_clust_6="13000.00000" pt_clust_7="13000.00000" pt_clust_8="13000.00000" pt_clust_9="34.25481" pt_clust_10="27.26542"></scales>
<clustering>
<clus scale="   27.265">  1 10  2 -1</clus>
<clus scale="   34.255">  2  9  1 -1</clus>
<clus scale="   89.813">  5  6 -1 -1</clus>
<clus scale="   93.485">  7  8 -1 -1</clus>
<clus scale="   96.244">  2  5  1 -1</clus>
<clus scale="   27.265">  1  5  2 -1</clus>
</clustering>
</event>
<event>
10    2  0.1133532E-006  0.1091715E+03  0.7546771E-02  0.1270394E+00
          1   -1    0    0  503    0  0.00000000000E+00  0.00000000000E+00  0.16601195403E+03  0.16601195403E+03  0.00000000000E+00 0. -1.
         -1   -1    0    0    0  501 -0.00000000000E+00 -0.00000000000E+00 -0.19803363782E+03  0.19803363782E+03  0.00000000000E+00 0.  1.
         23    2    1    2    0    0 -0.67892122943E+01  0.35690772979E+00 -0.94899185825E+01  0.10696230215E+03  0.10632334992E+03 0.  0.
         23    2    1    2    0    0  0.65633517022E+01  0.45712612858E+02  0.13409748498E+02  0.10165367598E+03  0.89559633344E+02 0.  0.
        -13    1    4    4    0    0  0.45973689901E+02  0.39958155305E+02  0.92229195492E+01  0.61605978472E+02  0.00000000000E+00 0.  1.
         13    1    4    4    0    0 -0.39410338199E+02  0.57544575524E+01  0.41868289490E+01  0.40047697503E+02  0.00000000000E+00 0. -1.
        -13    1    3    3    0    0 -0.35590446334E+02  0.40856520936E+02  0.69252977404E+01  0.54625039332E+02  0.00000000000E+00 0. -1.
         13    1    3    3    0    0  0.28801234039E+02 -0.40499613206E+02 -0.16415216323E+02  0.52337262815E+02  0.00000000000E+00 0.  1.
         21    1    1    2  502  501 -0.13183600288E+02 -0.19159491750E+02 -0.90334396594E+02  0.93280205021E+02  0.00000000000E+00 0. -1.
         21    1    1    2  503  502  0.13409460880E+02 -0.26910028837E+02  0.54392882894E+02  0.62149408707E+02  0.00000000000E+00 0.  1.
<scales pt_clust_5="13000.00000" pt_clust_6="13000.00000" pt_clust_7="13000.00000" pt_clust_8="13000.00000" pt_clust_9="23.25712" pt_clust_10="30.48644"></scales>
<clustering>
<clus scale="   23.257">  2  9  1 -1</clus>
<clus scale="   30.486">  1 10  2 -1</clus>
<clus scale="   89.560">  5  6 -1 -1</clus>
<clus scale="   92.923">  1  5  2 -1</clus>
<clus scale="  106.323">  7  8 -1 -1</clus>
<clus scale="   30.486">  1  5  2 -1</clus>
</clustering>
</event>
<event>
10    2  0.1133532E-006  0.1490519E+03  0.7546771E-02  0.1218341E+00
          2   -1    0    0  503    0  0.00000000000E+00  0.00000000000E+00  0.37774020296E+03  0.37774020296E+03  0.00000000000E+00 0. -1.
         -2   -1    0    0    0  501 -0.00000000000E+00 -0.00000000000E+00 -0.14775419236E+03  0.14775419236E+03  0.00000000000E+00 0.  1.
         23    2    1    2    0    0  0.69396357578E+02  0.48378756253E+02  0.25530289803E+02  0.12862773309E+03  0.93471597397E+02 0.  0.
         23    2    1    2    0    0  0.36942170087E+02  0.13335122585E+02  0.17396094855E+03  0.20025007142E+03  0.91077604600E+02 0.  0.
        -11    1    3    3    0    0  0.88438337895E+02  0.54750194235E+02  0.29591541170E+02  0.10814149383E+03  0.00000000000E+00 0. -1.
         11    1    3    3    0    0 -0.19041980317E+02 -0.63714379824E+01 -0.40612513671E+01  0.20486239260E+02  0.00000000000E+00 0.  1.
        -13    1    4    4    0    0  0.26949804398E+02  0.50338061209E+02  0.12962503601E+03  0.14164343374E+03  0.00000000000E+00 0. -1.
         13    1    4    4    0    0  0.99923656886E+01 -0.37002938624E+02  0.44335912540E+02  0.58606637676E+02  0.00000000000E+00 0.  1.
         21    1    1    2  502  501 -0.12716068633E+03 -0.63395705891E+02 -0.18564271236E+02  0.14329510752E+03  0.00000000000E+00 0.  1.
         21    1    1    2  503  502  0.20822158662E+02  0.16818270543E+01  0.49059043488E+02  0.53321483302E+02  0.00000000000E+00 0.  1.
<scales pt_clust_5="13000.00000" pt_clust_6="13000.00000" pt_clust_7="13000.00000" pt_clust_8="13000.00000" pt_clust_9="116.10139" pt_clust_10="20.88997"></scales>
<clustering>
<clus scale="   20.890">  1 10  2 -1</clus>
<clus scale="   91.078">  7  8 -1 -1</clus>
<clus scale="   93.472">  5  6 -1 -1</clus>
<clus scale="  104.346">  1  7  2 -1</clus>
<clus scale="  116.101">  1  9  2 -1</clus>
<clus scale="   20.890">  1  5  2 -1</clus>
</clustering>
</event>
<event>
10    2  0.1133532E-006  0.1020078E+03  0.7546771E-02  0.1278096E+00
          1   -1    0    0  503    0  0.00000000000E+00  0.00000000000E+00  0.30026612560E+03  0.30026612560E+03  0.00000000000E+00 0. -1.
         -1   -1    0    0    0  501 -0.00000000000E+00 -0.00000000000E+00 -0.26624633965E+03  0.26624633965E+03  0.00000000000E+00 0.  1.
         23    2    1    2    0    0  0.16837234128E+02 -0.94035402132E+02 -0.19813859419E+03  0.23616849978E+03  0.85968066579E+02 0.  0.
         23    2    1    2    0    0  0.64361229700E+01  0.20793007777E+02  0.15931716478E+03  0.18439106764E+03  0.90245963787E+02 0.  0.
        -13    1    3    3    0    0 -0.18572820522E+02 -0.77091607901E+02 -0.84222110132E+02  0.11567812890E+03  0.00000000000E+00 0. -1.
         13    1    3    3    0    0  0.35410054650E+02 -0.16943794230E+02 -0.11391648406E+03  0.12049037088E+03  0.00000000000E+00 0.  1.
        -13    1    4    4    0    0 -0.15883016145E+02 -0.23188383066E+02  0.14957308325E+02  0.31838536138E+02  0.00000000000E+00 0.  1.
         13    1    4    4    0    0  0.22319139115E+02  0.43981390843E+02  0.14435985645E+03  0.15255253150E+03  0.00000000000E+00 0. -1.
         21    1    1    2  502  501 -0.23158534643E+02  0.45277348354E+02 -0.15600467588E+02  0.53195212094E+02  0.00000000000E+00 0.  1.
         21    1    1    2  503  502 -0.11482245540E+00  0.27965046000E+02  0.88441682947E+02  0.92757685743E+02  0.00000000000E+00 0. -1.
<scales pt_clust_5="13000.00000" pt_clust_6="13000.00000" pt_clust_7="13000.00000" pt_clust_8="13000.00000" pt_clust_9="53.10513" pt_clust_10="27.96528"></scales>
<clustering>
<clus scale="   27.965">  1 10  2 -1</clus>
<clus scale="   53.105">  2  9  1 -1</clus>
<clus scale="   85.968">  5  6 -1 -1</clus>
<clus scale="   90.246">  7  8 -1 -1</clus>
<clus scale="   98.243">  2  5  1 -1</clus>
<clus scale="   27.965">  1  5  2 -1</clus>
</clustering>
</event>
<event>
10    2  0.1246938E-006  0.1087446E+03  0.7546771E-02  0.1265050E+00
          1   -1    0    0  503    0  0.00000000000E+00  0.00000000000E+00  0.75084358128E+02  0.75084358128E+02  0.00000000000E+00 0. -1.
         -1   -1    0    0    0  501 -0.00000000000E+00 -0.00000000000E+00 -0.61093891214E+03  0.61093891214E+03  0.00000000000E+00 0.  1.
         23    2    1    2    0    0 -0.67395354012E+01 -0.51482713709E+02 -0.39604685063E+03  0.40865703097E+03  0.86322476345E+02 0.  0.
         23    2    1    2    0    0 -0.10510519812E+02  0.35068527792E+02 -0.11684048907E+02  0.99375105611E+02  0.91643995702E+02 0.  0.
        -13    1    3    3    0    0  0.24401550880E+02 -0.56214209948E+02 -0.32797099322E+03  0.33364718713E+03  0.00000000000E+00 0.  1.
         13    1    3    3    0    0 -0.31141086281E+02  0.47314962387E+01 -0.68075857400E+02  0.75009843835E+02  0.00000000000E+00 0. -1.
        -13    1    4    4    0    0  0.34838233677E+02 -0.25172087120E-01 -0.21872477520E+02  0.41135245620E+02  0.00000000000E+00 0.  1.
         13    1    4    4    0    0 -0.45348753489E+02  0.35093699879E+02  0.10188428612E+02  0.58239859991E+02  0.00000000000E+00 0. -1.
         21    1    1    2  502  501  0.28940198004E+02 -0.10865210498E+02 -0.14193062375E+03  0.14525801120E+03  0.00000000000E+00 0.  1.
         21    1    1    2  503  502 -0.11690142790E+02  0.27279396416E+02  0.13806969272E+02  0.32733122487E+02  0.00000000000E+00 0.  1.
<scales pt_clust_5="13000.00000" pt_clust_6="13000.00000" pt_clust_7="13000.00000" pt_clust_8="13000.00000" pt_clust_9="30.26114" pt_clust_10="29.67869"></scales>
<clustering>
<clus scale="   29.679">  1 10  2 -1</clus>
<clus scale="   30.261">  2  9  1 -1</clus>
<clus scale="   86.322">  5  6 -1 -1</clus>
<clus scale="   91.644">  7  8 -1 -1</clus>
<clus scale="  104.299">  2  5  1 -1</clus>
<clus scale="   29.679">  1  5  2 -1</clus>
</clustering>
</event>
<event>
10    2  0.1133532E-006  0.1488328E+03  0.7546771E-02  0.1212037E+00
         -1   -1    0    0    0  501 -0.00000000000E+00  0.00000000000E+00  0.75952356089E+03  0.75952356089E+03  0.00000000000E+00 0.  1.
          1   -1    0    0  503    0  0.00000000000E+00 -0.00000000000E+00 -0.43647329094E+03  0.43647329094E+03  0.00000000000E+00 0. -1.
         23    2    1    2    0    0 -0.30526260771E+02 -0.65721359013E+02  0.61182854503E+03  0.62349257605E+03  0.95695737904E+02 0.  0.
         23    2    1    2    0    0 -0.10643220735E+03 -0.10366039022E+03 -0.27934872904E+03  0.32235266010E+03  0.61662255802E+02 0.  0.
        -11    1    4    4    0    0 -0.79718402061E+02 -0.85649310279E+02 -0.15683459665E+03  0.19567298916E+03  0.00000000000E+00 0.  1.
         11    1    4    4    0    0 -0.26713805290E+02 -0.18011079941E+02 -0.12251413239E+03  0.12667967094E+03  0.00000000000E+00 0. -1.
        -13    1    3    3    0    0 -0.55430586840E+02 -0.73168500155E+02  0.52069589938E+03  0.52872525853E+03  0.00000000000E+00 0.  1.
         13    1    3    3    0    0  0.24904326069E+02  0.74471411420E+01  0.91132645646E+02  0.94767317523E+02  0.00000000000E+00 0. -1.
         21    1    1    2  502  501  0.12094873224E+03  0.14454256805E+03  0.39899939811E+02  0.19264774851E+03  0.00000000000E+00 0.  1.
         21    1    1    2  503  502  0.16009735883E+02  0.24839181181E+02 -0.49329485847E+02  0.57503867163E+02  0.00000000000E+00 0.  1.
<scales pt_clust_5="13000.00000" pt_clust_6="13000.00000" pt_clust_7="13000.00000" pt_clust_8="13000.00000" pt_clust_9="135.45838" pt_clust_10="29.55159"></scales>
<clustering>
<clus scale="   29.552">  2 10  1 -1</clus>
<clus scale="   61.662">  5  6 -1 -1</clus>
<clus scale="   95.696">  7  8 -1 -1</clus>
<clus scale="  119.768">  1  7  2 -1</clus>
<clus scale="  135.458">  1  9  2 -1</clus>
<clus scale="   29.552">  2  5  1 -1</clus>
</clustering>
</event>
<event>
10    2  0.1133532E-006  0.1778658E+03  0.7546771E-02  0.1170129E+00
          1   -1    0    0  503    0  0.00000000000E+00  0.00000000000E+00  0.18396915336E+03  0.18396915336E+03  0.00000000000E+00 0. -1.
         -1   -1    0    0    0  501 -0.00000000000E+00 -0.00000000000E+00 -0.76558424636E+03  0.76558424636E+03  0.00000000000E+00 0.  1.
         23    2    1    2    0    0 -0.13229531873E+03 -0.46052656424E+02 -0.70240686876E+02  0.18061886234E+03  0.89813811960E+02 0.  0.
         23    2    1    2    0    0  0.12124448454E+03  0.12873805423E+03 -0.53359953416E+01  0.19930058170E+03  0.91752587858E+02 0.  0.
        -13    1    3    3    0    0 -0.12123534240E+03 -0.70016598641E+02 -0.58486225609E+02  0.15172663220E+03  0.00000000000E+00 0.  1.
         13    1    3    3    0    0 -0.11059976334E+02  0.23963942217E+02 -0.11754461267E+02  0.28892230145E+02  0.00000000000E+00 0. -1.
        -13    1    4    4    0    0  0.89857496335E+02  0.31873309569E+02 -0.16878640936E+02  0.96825441028E+02  0.00000000000E+00 0.  1.
         13    1    4    4    0    0  0.31386988207E+02  0.96864744666E+02  0.11542645594E+02  0.10247514067E+03  0.00000000000E+00 0. -1.
         21    1    1    2  502  501  0.39417050559E+02 -0.80650726838E+02 -0.52681855216E+03  0.53441185476E+03  0.00000000000E+00 0.  1.
         21    1    1    2  503  502 -0.28366216369E+02 -0.20346709734E+01  0.20780141377E+02  0.35222100913E+02  0.00000000000E+00 0. -1.
<scales pt_clust_5="13000.00000" pt_clust_6="13000.00000" pt_clust_7="13000.00000" pt_clust_8="13000.00000" pt_clust_9="89.51132" pt_clust_10="28.43909"></scales>
<clustering>
<clus scale="   28.439">  1 10  2 -1</clus>
<clus scale="   89.511">  2  9  1 -1</clus>
<clus scale="   89.814">  5  6 -1 -1</clus>
<clus scale="   91.753">  7  8 -1 -1</clus>
<clus scale="  176.873">  2  5  1 -1</clus>
<clus scale="   28.439">  1  5  2 -1</clus>
</clustering>
</event>
<event>
10    2  0.1133532E-006  0.1034978E+03  0.7546771E-02  0.1273416E+00
         -2   -1    0    0    0  501 -0.00000000000E+00  0.00000000000E+00  0.36262852851E+03  0.36262852851E+03  0.00000000000E+00 0.  1.
          2   -1    0    0  503    0  0.00000000000E+00 -0.00000000000E+00 -0.13880237577E+03  0.13880237577E+03  0.00000000000E+00 0. -1.
         23    2    1    2    0    0 -0.84169351912E+02 -0.12577803676E+02  0.66181856809E+02  0.13880118576E+03  0.87424539178E+02 0.  0.
         23    2    1    2    0    0  0.90974868503E+01 -0.55769057501E+02 -0.46551021030E+02  0.11458272782E+03  0.88143360010E+02 0.  0.
        -11    1    4    4    0    0  0.37344922337E+02 -0.58889838606E+02 -0.50210538944E+02  0.85928775951E+02  0.00000000000E+00 0.  1.
         11    1    4    4    0    0 -0.28247435487E+02  0.31207811051E+01  0.36595179135E+01  0.28653951868E+02  0.00000000000E+00 0. -1.
        -13    1    3    3    0    0 -0.90623553713E+02  0.16451242324E+02  0.53079936564E+02  0.10630499296E+03  0.00000000000E+00 0. -1.
         13    1    3    3    0    0  0.64542018010E+01 -0.29029046000E+02  0.13101920245E+02  0.32496192802E+02  0.00000000000E+00 0.  1.
         21    1    1    2  502  501  0.34240126642E+02  0.41086576953E+02  0.18934666393E+03  0.19675531053E+03  0.00000000000E+00 0.  1.
         21    1    1    2  503  502  0.40831738420E+02  0.27260284224E+02  0.14848653027E+02  0.51291680174E+02  0.00000000000E+00 0.  1.
<scales pt_clust_5="13000.00000" pt_clust_6="13000.00000" pt_clust_7="13000.00000" pt_clust_8="13000.00000" pt_clust_9="54.93163" pt_clust_10="49.09536"></scales>
<clustering>
<clus scale="   49.095">  2 10  1 -1</clus>
<clus scale="   54.932">  1  9  2 -1</clus>
<clus scale="   87.425">  7  8 -1 -1</clus>
<clus scale="   88.143">  5  6 -1 -1</clus>
<clus scale="  102.886">  1  7  2 -1</clus>
<clus scale="   49.095">  2  5  1 -1</clus>
</clustering>
</event>
<event>
10    2  0.1133532E-006  0.2990443E+03  0.7546771E-02  0.1085930E+00
         -2   -1    0    0    0  501 -0.00000000000E+00  0.00000000000E+00  0.24644582607E+03  0.24644582607E+03  0.00000000000E+00 0.  1.
          2   -1    0    0  503    0  0.00000000000E+00 -0.00000000000E+00 -0.52736587169E+03  0.52736587169E+03  0.00000000000E+00 0. -1.
         23    2    1    2    0    0 -0.77326116628E+02 -0.24152885104E+03 -0.98346273791E+02  0.28558239727E+03  0.87004608307E+02 0.  0.
         23    2    1    2    0    0  0.19619365236E+02  0.32180881246E+03 -0.16795796991E+03  0.37513143155E+03  0.92562843618E+02 0.  0.
        -11    1    3    3    0    0 -0.43391040743E+02 -0.19984179045E+03 -0.10753700618E+03  0.23104919677E+03  0.00000000000E+00 0.  1.
         11    1    3    3    0    0 -0.33935075886E+02 -0.41687060585E+02  0.91907323893E+01  0.54533200506E+02  0.00000000000E+00 0. -1.
        -11    1    4    4    0    0  0.24718007535E+02  0.59066429317E+02 -0.14828988078E+01  0.64047029264E+02  0.00000000000E+00 0.  1.
         11    1    4    4    0    0 -0.50986422994E+01  0.26274238314E+03 -0.16647507110E+03  0.31108440229E+03  0.00000000000E+00 0. -1.
         21    1    1    2  502  501  0.26333188687E+02 -0.54444803686E+02  0.15595568343E+02  0.62457147123E+02  0.00000000000E+00 0. -1.
         21    1    1    2  503  502  0.31373562706E+02 -0.25835157732E+02 -0.30211370275E+02  0.50640721813E+02  0.00000000000E+00 0. -1.
<scales pt_clust_5="13000.00000" pt_clust_6="13000.00000" pt_clust_7="13000.00000" pt_clust_8="13000.00000" pt_clust_9="62.26051" pt_clust_10="40.64180"></scales>
<clustering>
<clus scale="   40.642">  2 10  1 -1</clus>
<clus scale="   62.261">  1  9  2 -1</clus>
<clus scale="   87.005">  5  6 -1 -1</clus>
<clus scale="   92.563">  7  8 -1 -1</clus>
<clus scale="  297.371">  1  5  2 -1</clus>
<clus scale="   40.642">  2  5  1 -1</clus>
</clustering>
</event>
<event>
10    2  0.1133532E-006  0.1518825E+03  0.7546771E-02  0.1219305E+00
          1   -1    0    0  503    0  0.00000000000E+00  0.00000000000E+00  0.13064701516E+04  0.13064701516E+04  0.00000000000E+00 0. -1.
         -1   -1    0    0    0  501 -0.00000000000E+00 -0.00000000000E+00 -0.42471519952E+02  0.42471519952E+02  0.00000000000E+00 0.  1.
         23    2    1    2    0    0 -0.22722787608E+02  0.35025426599E+02  0.27157359843E+03  0.28928398125E+03  0.90498048912E+02 0.  0.
         23    2    1    2    0    0  0.10693339525E+03 -0.81686351444E+02  0.44526092590E+03  0.47352973577E+03  0.88688823923E+02 0.  0.
        -11    1    3    3    0    0 -0.46542822051E+01  0.62374824146E+02  0.21485938402E+03  0.22377854216E+03  0.00000000000E+00 0. -1.
         11    1    3    3    0    0 -0.18068505403E+02 -0.27349397548E+02  0.56714214408E+02  0.65505439085E+02  0.00000000000E+00 0.  1.
        -11    1    4    4    0    0  0.15451267240E+02  0.18144302942E+02  0.96648881852E+02  0.99543778067E+02  0.00000000000E+00 0. -1.
         11    1    4    4    0    0  0.91482128009E+02 -0.99830654387E+02  0.34861204405E+03  0.37398595770E+03  0.00000000000E+00 0.  1.
         21    1    1    2  502  501  0.10365766823E+02 -0.24343835483E+02  0.13325859262E+00  0.26459198886E+02  0.00000000000E+00 0.  1.
         21    1    1    2  503  502 -0.94576374464E+02  0.71004760329E+02  0.54703084870E+03  0.55966875563E+03  0.00000000000E+00 0. -1.
<scales pt_clust_5="13000.00000" pt_clust_6="13000.00000" pt_clust_7="13000.00000" pt_clust_8="13000.00000" pt_clust_9="26.45886" pt_clust_10="123.29875"></scales>
<clustering>
<clus scale="   26.459">  2  9  1 -1</clus>
<clus scale="   88.689">  7  8 -1 -1</clus>
<clus scale="   90.498">  5  6 -1 -1</clus>
<clus scale="   96.640">  2  5  1 -1</clus>
<clus scale="  123.299">  1 10  2 -1</clus>
<clus scale="  123.299">  1  5  2 -1</clus>
</clustering>
</event>
<event>
10    2  0.1133532E-006  0.1270037E+03  0.7546771E-02  0.1232537E+00
          2   -1    0    0  503    0  0.00000000000E+00  0.00000000000E+00  0.54876474197E+03  0.54876474197E+03  0.00000000000E+00 0. -1.
         -2   -1    0    0    0  501 -0.00000000000E+00 -0.00000000000E+00 -0.61350197804E+02  0.61350197804E+02  0.00000000000E+00 0.  1.
         23    2    1    2    0    0  0.75645716636E+02 -0.29430425603E+02  0.66395026558E+02  0.14074219616E+03  0.93870345857E+02 0.  0.
         23    2    1    2    0    0 -0.73430435319E+02  0.12036846343E+01  0.19431522784E+03  0.22876802327E+03  0.95827569178E+02 0.  0.
        -11    1    3    3    0    0  0.40499178024E+02 -0.56207469385E+02  0.11422177097E+02  0.70213454301E+02  0.00000000000E+00 0. -1.
         11    1    3    3    0    0  0.35146538612E+02  0.26777043782E+02  0.54972849461E+02  0.70528741857E+02  0.00000000000E+00 0.  1.
        -11    1    4    4    0    0 -0.10803479373E+02  0.26797205749E+02  0.71701040162E+01  0.29769376784E+02  0.00000000000E+00 0.  1.
         11    1    4    4    0    0 -0.62626955945E+02 -0.25593521114E+02  0.18714512382E+03  0.19899864649E+03  0.00000000000E+00 0. -1.
         21    1    1    2  502  501  0.28114610604E+02  0.11932967370E+02  0.37841123286E+02  0.48628979541E+02  0.00000000000E+00 0.  1.
         21    1    1    2  503  502 -0.30329891921E+02  0.16293773598E+02  0.18886316649E+03  0.19197574080E+03  0.00000000000E+00 0. -1.
<scales pt_clust_5="13000.00000" pt_clust_6="13000.00000" pt_clust_7="13000.00000" pt_clust_8="13000.00000" pt_clust_9="30.54222" pt_clust_10="33.90419"></scales>
<clustering>
<clus scale="   30.542">  2  9  1 -1</clus>
<clus scale="   33.904">  1 10  2 -1</clus>
<clus scale="   93.870">  5  6 -1 -1</clus>
<clus scale="   95.828">  7  8 -1 -1</clus>
<clus scale="  125.533">  2  5  1 -1</clus>
<clus scale="   33.904">  1  5  2 -1</clus>
</clustering>
</event>
<event>
10    2  0.1133532E-006  0.1107111E+03  0.7546771E-02  0.1260641E+00
         -2   -1    0    0    0  501 -0.00000000000E+00  0.00000000000E+00  0.33427649030E+03  0.33427649030E+03  0.00000000000E+00 0.  1.
          2   -1    0    0  503    0  0.00000000000E+00 -0.00000000000E+00 -0.43217487518E+03  0.43217487518E+03  0.00000000000E+00 0. -1.
         23    2    1    2    0    0  0.55050259511E+02 -0.94112769157E+00  0.22964454429E+03  0.25484130972E+03  0.95791751336E+02 0.  0.
         23    2    1    2    0    0 -0.55523543429E+02 -0.53429354264E+02 -0.32610577822E+02  0.12461482146E+03  0.92346327318E+02 0.  0.
        -11    1    3    3    0    0  0.52076798816E+02  0.41143587876E+02  0.16264405836E+03  0.17566410423E+03  0.00000000000E+00 0. -1.
         11    1    3    3    0    0  0.29734606956E+01 -0.42084715568E+02  0.67000485931E+02  0.79177205482E+02  0.00000000000E+00 0.  1.
        -13    1    4    4    0    0 -0.49149522618E+02  0.99991674444E+01  0.53168468899E+01  0.50437364959E+02  0.00000000000E+00 0.  1.
         13    1    4    4    0    0 -0.63740208108E+01 -0.63428521708E+02 -0.37927424711E+02  0.74177456499E+02  0.00000000000E+00 0. -1.
         21    1    1    2  502  501 -0.48590559825E+02  0.29009676010E+02  0.25332629374E+02  0.62002789593E+02  0.00000000000E+00 0.  1.
         21    1    1    2  503  502  0.49063843743E+02  0.25360805945E+02 -0.32026498072E+03  0.32499244471E+03  0.00000000000E+00 0. -1.
<scales pt_clust_5="13000.00000" pt_clust_6="13000.00000" pt_clust_7="13000.00000" pt_clust_8="13000.00000" pt_clust_9="52.30951" pt_clust_10="55.23071"></scales>
<clustering>
<clus scale="   55.231">  2 10  1 -1</clus>
<clus scale="   52.310">  2  9  1 -1</clus>
<clus scale="   92.346">  7  8 -1 -1</clus>
<clus scale="   95.792">  5  6 -1 -1</clus>
<clus scale="  107.744">  2  7  1 -1</clus>
<clus scale="   55.231">  2  5  1 -1</clus>
</clustering>
</event>
<event>
10    2  0.1133532E-006  0.1025998E+03  0.7546771E-02  0.1278695E+00
          3   -1    0    0  503    0  0.00000000000E+00  0.00000000000E+00  0.38297933705E+03  0.38297933705E+03  0.00000000000E+00 0. -1.
         -3   -1    0    0    0  501 -0.00000000000E+00 -0.00000000000E+00 -0.95934084796E+02  0.95934084796E+02  0.00000000000E+00 0.  1.
         23    2    1    2    0    0  0.70296207892E+02 -0.47263903664E+02  0.27406917380E+02  0.12219671140E+03  0.83698648269E+02 0.  0.
         23    2    1    2    0    0 -0.74776200637E+01  0.57656524964E+01  0.36254016361E+02  0.99115327321E+02  0.91762393480E+02 0.  0.
        -11    1    3    3    0    0  0.35323226225E+02 -0.66582814244E+02  0.32187695480E+02  0.81957606139E+02  0.00000000000E+00 0.  1.
         11    1    3    3    0    0  0.34972981667E+02  0.19318910580E+02 -0.47807780998E+01  0.40239105257E+02  0.00000000000E+00 0. -1.
        -11    1    4    4    0    0  0.26157793715E+02 -0.18906524055E+02  0.46080824987E+02  0.56259481470E+02  0.00000000000E+00 0.  1.
         11    1    4    4    0    0 -0.33635413778E+02  0.24672176551E+02 -0.98268086255E+01  0.42855845851E+02  0.00000000000E+00 0. -1.
         21    1    1    2  502  501 -0.25050955791E+02  0.44908621414E+01 -0.25353697077E+01  0.25576284491E+02  0.00000000000E+00 0.  1.
         21    1    1    2  503  502 -0.37767632038E+02  0.37007389026E+02  0.22591968822E+03  0.23202509864E+03  0.00000000000E+00 0. -1.
<scales pt_clust_5="13000.00000" pt_clust_6="13000.00000" pt_clust_7="13000.00000" pt_clust_8="13000.00000" pt_clust_9="25.45031" pt_clust_10="53.66361"></scales>
<clustering>
<clus scale="   25.450">  2  9  1 -1</clus>
<clus scale="   53.664">  1 10  2 -1</clus>
<clus scale="   83.699">  5  6 -1 -1</clus>
<clus scale="   91.762">  7  8 -1 -1</clus>
<clus scale="   95.456">  2  5  1 -1</clus>
<clus scale="   53.664">  1  5  2 -1</clus>
</clustering>
</event>
<event>
10    2  0.1133532E-006  0.1279697E+03  0.7546771E-02  0.1231173E+00
          3   -1    0    0  503    0  0.00000000000E+00  0.00000000000E+00  0.19410991310E+03  0.19410991310E+03  0.00000000000E+00 0. -1.
         -3   -1    0    0    0  501 -0.00000000000E+00 -0.00000000000E+00 -0.49938291686E+03  0.49938291686E+03  0.00000000000E+00 0.  1.
         23    2    1    2    0    0  0.37511154935E+02 -0.16875645714E+02 -0.21698312097E+03  0.23945215573E+03  0.92540725835E+02 0.  0.
         23    2    1    2    0    0 -0.11321894537E+03  0.13542827852E+02  0.95289083016E+02  0.17377402762E+03  0.90085878785E+02 0.  0.
        -11    1    3    3    0    0  0.54462618394E+02  0.19249917971E+02 -0.15809036958E+03  0.16831310436E+03  0.00000000000E+00 0.  1.
         11    1    3    3    0    0 -0.16951463459E+02 -0.36125563685E+02 -0.58892751388E+02  0.71139051378E+02  0.00000000000E+00 0. -1.
        -11    1    4    4    0    0 -0.14619716947E+02 -0.22309564498E+02  0.55482423087E+02  0.61560962170E+02  0.00000000000E+00 0.  1.
         11    1    4    4    0    0 -0.98599228426E+02  0.35852392350E+02  0.39806659929E+02  0.11221306545E+03  0.00000000000E+00 0. -1.
         21    1    1    2  502  501  0.40637528649E+02 -0.45262301307E+02 -0.20712972962E+03  0.21587683884E+03  0.00000000000E+00 0.  1.
         21    1    1    2  503  502  0.35070261788E+02  0.48595119170E+02  0.23550763809E+02  0.64389807773E+02  0.00000000000E+00 0.  1.
<scales pt_clust_5="13000.00000" pt_clust_6="13000.00000" pt_clust_7="13000.00000" pt_clust_8="13000.00000" pt_clust_9="60.48155" pt_clust_10="59.92836"></scales>
<clustering>
<clus scale="   59.928">  1 10  2 -1</clus>
<clus scale="   60.482">  2  9  1 -1</clus>
<clus scale="   90.086">  7  8 -1 -1</clus>
<clus scale="   92.541">  5  6 -1 -1</clus>
<clus scale="  126.206">  1  7  2 -1</clus>
<clus scale="   59.928">  1  5  2 -1</clus>
</clustering>
</event>
<event>
10    2  0.1133532E-006  0.4534669E+03  0.7546771E-02  0.1052827E+00
         -1   -1    0    0    0  501 -0.00000000000E+00  0.00000000000E+00  0.91014718525E+03  0.91014718525E+03  0.00000000000E+00 0.  1.
          1   -1    0    0  503    0  0.00000000000E+00 -0.00000000000E+00 -0.80966229913E+03  0.80966229913E+03  0.00000000000E+00 0. -1.
         23    2    1    2    0    0  0.23989957576E+03  0.42233158679E+03  0.27251508009E+03  0.56437411365E+03  0.91312078198E+02 0.  0.
         23    2    1    2    0    0  0.18347834956E+03  0.42435957585E+02 -0.10209274380E+03  0.23521031867E+03  0.97138305610E+02 0.  0.
        -11    1    4    4    0    0  0.16024298405E+03  0.69712504228E+02 -0.94188916270E+02  0.19851750334E+03  0.00000000000E+00 0.  1.
         11    1    4    4    0    0  0.23235365515E+02 -0.27276546643E+02 -0.79038275298E+01  0.36692815332E+02  0.00000000000E+00 0. -1.
        -13    1    3    3    0    0  0.20872500782E+03  0.36641023855E+03  0.26914519174E+03  0.50026165758E+03  0.00000000000E+00 0.  1.
         13    1    3    3    0    0  0.31174567940E+02  0.55921348245E+02  0.33698883447E+01  0.64112456070E+02  0.00000000000E+00 0. -1.
         21    1    1    2  502  501 -0.23077452381E+03 -0.34327364262E+03  0.28230065250E+03  0.50078671404E+03  0.00000000000E+00 0. -1.
         21    1    1    2  503  502 -0.19260340152E+03 -0.12149390176E+03 -0.35223810266E+03  0.41943833803E+03  0.00000000000E+00 0. -1.
<scales pt_clust_5="13000.00000" pt_clust_6="13000.00000" pt_clust_7="13000.00000" pt_clust_8="13000.00000" pt_clust_9="444.17825" pt_clust_10="126.32279"></scales>
<clustering>
<clus scale="   91.312">  7  8 -1 -1</clus>
<clus scale="   97.138">  5  6 -1 -1</clus>
<clus scale="  211.898">  2  5  1 -1</clus>
<clus scale="  126.323">  2 10  1 -1</clus>
<clus scale="  444.178">  1  9  2 -1</clus>
<clus scale="  211.898">  2  5  1 -1</clus>
</clustering>
</event>
<event>
10    2  0.1133532E-006  0.9803976E+02  0.7546771E-02  0.1287550E+00
         -2   -1    0    0    0  501 -0.00000000000E+00  0.00000000000E+00  0.52542142687E+02  0.52542142687E+02  0.00000000000E+00 0.  1.
          2   -1    0    0  503    0  0.00000000000E+00 -0.00000000000E+00 -0.42044611757E+03  0.42044611757E+03  0.00000000000E+00 0. -1.
         23    2    1    2    0    0 -0.23704899099E+00  0.37836388184E+02 -0.11991689925E+03  0.15351287064E+03  0.88059583602E+02 0.  0.
         23    2    1    2    0    0 -0.52421022094E+02  0.16459325582E+02 -0.16057457880E+03  0.19393372275E+03  0.93846792732E+02 0.  0.
        -11    1    3    3    0    0  0.19815989893E+02 -0.80371217080E+01  0.22339778924E+01  0.21500219488E+02  0.00000000000E+00 0.  1.
         11    1    3    3    0    0 -0.20053038884E+02  0.45873509892E+02 -0.12215087714E+03  0.13201265116E+03  0.00000000000E+00 0. -1.
        -13    1    4    4    0    0  0.11415767818E+02  0.27989720019E+02 -0.10250647127E+03  0.10687057983E+03  0.00000000000E+00 0.  1.
         13    1    4    4    0    0 -0.63836789911E+02 -0.11530394438E+02 -0.58068107531E+02  0.87063142915E+02  0.00000000000E+00 0. -1.
         21    1    1    2  502  501  0.53297897564E+02 -0.34050712168E+02 -0.42293097619E+02  0.76084315007E+02  0.00000000000E+00 0.  1.
         21    1    1    2  503  502 -0.63982647891E+00 -0.20245001598E+02 -0.45119399211E+02  0.49457351858E+02  0.00000000000E+00 0.  1.
<scales pt_clust_5="13000.00000" pt_clust_6="13000.00000" pt_clust_7="13000.00000" pt_clust_8="13000.00000" pt_clust_9="64.94849" pt_clust_10="20.25511"></scales>
<clustering>
<clus scale="   20.255">  2 10  1 -1</clus>
<clus scale="   64.948">  1  9  2 -1</clus>
<clus scale="   88.060">  5  6 -1 -1</clus>
<clus scale="   92.515">  1  5  2 -1</clus>
<clus scale="   93.847">  7  8 -1 -1</clus>
<clus scale="   20.255">  2  5  1 -1</clus>
</clustering>
</event>
<event>
10    2  0.1133532E-006  0.1168729E+03  0.7546771E-02  0.1252798E+00
         -3   -1    0    0    0  501 -0.00000000000E+00  0.00000000000E+00  0.26165690138E+03  0.26165690138E+03  0.00000000000E+00 0.  1.
          3   -1    0    0  503    0  0.00000000000E+00 -0.00000000000E+00 -0.20547747681E+03  0.20547747681E+03  0.00000000000E+00 0. -1.
         23    2    1    2    0    0  0.44174031105E+02  0.60258635260E+02  0.16614906194E+03  0.20333514253E+03  0.90317336411E+02 0.  0.
         23    2    1    2    0    0 -0.84516681301E+01 -0.49316953324E+02  0.50334228133E+01  0.11362060431E+03  0.10188578801E+03 0.  0.
        -11    1    4    4    0    0 -0.46672183588E+02 -0.55235501919E+02 -0.81223252073E+01  0.72768300515E+02  0.00000000000E+00 0.  1.
         11    1    4    4    0    0  0.38220515458E+02  0.59185485947E+01  0.13155748021E+02  0.40852303795E+02  0.00000000000E+00 0. -1.
        -13    1    3    3    0    0  0.28136410091E+02  0.14902242401E+02  0.14884059666E+03  0.15220794203E+03  0.00000000000E+00 0.  1.
         13    1    3    3    0    0  0.16037621015E+02  0.45356392858E+02  0.17308465280E+02  0.51127200503E+02  0.00000000000E+00 0. -1.
         21    1    1    2  502  501 -0.47987049085E+01 -0.20640642117E+02  0.82465817047E+01  0.22739168534E+02  0.00000000000E+00 0.  1.
         21    1    1    2  503  502 -0.30923658067E+02  0.96989601815E+01 -0.12324964189E+03  0.12743946282E+03  0.00000000000E+00 0. -1.
<scales pt_clust_5="13000.00000" pt_clust_6="13000.00000" pt_clust_7="13000.00000" pt_clust_8="13000.00000" pt_clust_9="21.19112" pt_clust_10="32.39588"></scales>
<clustering>
<clus scale="   21.191">  1  9  2 -1</clus>
<clus scale="   32.396">  2 10  1 -1</clus>
<clus scale="   90.317">  7  8 -1 -1</clus>
<clus scale="  101.886">  5  6 -1 -1</clus>
<clus scale="  106.938">  1  7  2 -1</clus>
<clus scale="   32.396">  2  5  1 -1</clus>
</clustering>
</event>
<event>
10    2  0.1133532E-006  0.1034474E+03  0.7546771E-02  0.1274627E+00
         -2   -1    0    0    0  501 -0.00000000000E+00  0.00000000000E+00  0.97802362095E+02  0.97802362095E+02  0.00000000000E+00 0.  1.
          2   -1    0    0  503    0  0.00000000000E+00 -0.00000000000E+00 -0.51551384693E+03  0.51551384693E+03  0.00000000000E+00 0. -1.
         23    2    1    2    0    0 -0.91732321113E+01 -0.38334307142E+02  0.14878927096E+02  0.10052090260E+03  0.91265558110E+02 0.  0.
         23    2    1    2    0    0 -0.73867399988E+01  0.69553757712E+01 -0.10771721851E+03  0.14353670755E+03  0.94323094046E+02 0.  0.
        -11    1    4    4    0    0  0.25374969904E+02  0.40327062186E+02 -0.47331069119E+02  0.67159445696E+02  0.00000000000E+00 0. -1.
         11    1    4    4    0    0 -0.32761709903E+02 -0.33371686414E+02 -0.60386149391E+02  0.76377261853E+02  0.00000000000E+00 0.  1.
        -13    1    3    3    0    0  0.27257575677E+02  0.17131917580E+02 -0.12858761584E+01  0.32220048250E+02  0.00000000000E+00 0. -1.
         13    1    3    3    0    0 -0.36430807788E+02 -0.55466224723E+02  0.16164803254E+02  0.68300854353E+02  0.00000000000E+00 0.  1.
         21    1    1    2  502  501  0.10383339776E+02 -0.39061024674E+02 -0.39185155771E+01  0.40607045667E+02  0.00000000000E+00 0.  1.
         21    1    1    2  503  502  0.61766323342E+01  0.70439956046E+02 -0.32095467785E+03  0.32865155321E+03  0.00000000000E+00 0. -1.
<scales pt_clust_5="13000.00000" pt_clust_6="13000.00000" pt_clust_7="13000.00000" pt_clust_8="13000.00000" pt_clust_9="40.41754" pt_clust_10="68.87276"></scales>
<clustering>
<clus scale="   40.418">  1  9  2 -1</clus>
<clus scale="   68.873">  2 10  1 -1</clus>
<clus scale="   91.266">  7  8 -1 -1</clus>
<clus scale="   94.323">  5  6 -1 -1</clus>
<clus scale="  100.667">  1  7  2 -1</clus>
<clus scale="   68.873">  2  5  1 -1</clus>
</clustering>
</event>
<event>
10    2  0.1133532E-006  0.1264613E+03  0.7546771E-02  0.1234256E+00
         -3   -1    0    0    0  501 -0.00000000000E+00  0.00000000000E+00  0.22126588324E+03  0.22126588324E+03  0.00000000000E+00 0.  1.
          3   -1    0    0  503    0  0.00000000000E+00 -0.00000000000E+00 -0.20268392540E+03  0.20268392540E+03  0.00000000000E+00 0. -1.
         23    2    1    2    0    0 -0.71895366118E+02  0.80265703957E+02 -0.57360492226E+02  0.14904993299E+03  0.85522684446E+02 0.  0.
         23    2    1    2    0    0  0.20655385012E+02 -0.70173226164E+02 -0.31921126764E+02  0.12087288795E+03  0.90776484333E+02 0.  0.
        -11    1    3    3    0    0 -0.45997627086E+02 -0.50112881264E+01 -0.32439394169E+02  0.56508486091E+02  0.00000000000E+00 0. -1.
         11    1    3    3    0    0 -0.25897739032E+02  0.85276992083E+02 -0.24921098056E+02  0.92541446898E+02  0.00000000000E+00 0.  1.
        -13    1    4    4    0    0  0.44734860942E+02 -0.15335296789E+02  0.92611120935E+01  0.48188663691E+02  0.00000000000E+00 0.  1.
         13    1    4    4    0    0 -0.24079475930E+02 -0.54837929375E+02 -0.41182238858E+02  0.72684224262E+02  0.00000000000E+00 0. -1.
         21    1    1    2  502  501  0.19746437263E+02  0.37024861544E+01  0.11678950484E+03  0.11850493082E+03  0.00000000000E+00 0.  1.
         21    1    1    2  503  502  0.31493543843E+02 -0.13794963947E+02 -0.89259280022E+01  0.35522056877E+02  0.00000000000E+00 0.  1.
<scales pt_clust_5="13000.00000" pt_clust_6="13000.00000" pt_clust_7="13000.00000" pt_clust_8="13000.00000" pt_clust_9="20.09055" pt_clust_10="36.54181"></scales>
<clustering>
<clus scale="   20.091">  1  9  2 -1</clus>
<clus scale="   36.542">  1 10  2 -1</clus>
<clus scale="   85.523">  5  6 -1 -1</clus>
<clus scale="   90.776">  7  8 -1 -1</clus>
<clus scale="  122.745">  1  5  2 -1</clus>
<clus scale="  126.461">  2  5  1 -1</clus>
</clustering>
</event>
<event>
10    2  0.1133532E-006  0.1360961E+03  0.7546771E-02  0.1218978E+00
          1   -1    0    0  502    0  0.00000000000E+00  0.00000000000E+00  0.11272309370E+04  0.11272309370E+04  0.00000000000E+00 0. -1.
         -1   -1    0    0    0  501 -0.00000000000E+00 -0.00000000000E+00 -0.35916841388E+02  0.35916841388E+02  0.00000000000E+00 0.  1.
         23    2    1    2    0    0 -0.10890449447E+03 -0.62608964912E+02  0.26861602895E+03  0.31076284031E+03  0.92945685777E+02 0.  0.
         23    2    1    2    0    0  0.32915885132E+02  0.58839008606E+02  0.42504092720E+03  0.44001611969E+03  0.91700116490E+02 0.  0.
        -13    1    4    4    0    0 -0.26131063850E+02  0.46540209959E+02  0.21002155054E+03  0.21669765880E+03  0.00000000000E+00 0. -1.
         13    1    4    4    0    0  0.59046948981E+02  0.12298798647E+02  0.21501937667E+03  0.22331846089E+03  0.00000000000E+00 0.  1.
        -13    1    3    3    0    0 -0.61794462329E+02 -0.81654784768E+02  0.20661721470E+03  0.23060080846E+03  0.00000000000E+00 0.  1.
         13    1    3    3    0    0 -0.47110032140E+02  0.19045819856E+02  0.61998814244E+02  0.80162031847E+02  0.00000000000E+00 0. -1.
         21    1    1    2  502  503  0.28119114642E+02 -0.36254418179E+02  0.14307834433E+03  0.15025471727E+03  0.00000000000E+00 0.  1.
         21    1    1    2  503  501  0.47869494695E+02  0.40024374485E+02  0.25457879517E+03  0.26211410116E+03  0.00000000000E+00 0.  1.
<scales pt_clust_5="13000.00000" pt_clust_6="13000.00000" pt_clust_7="13000.00000" pt_clust_8="13000.00000" pt_clust_9="45.88101" pt_clust_10="63.12074"></scales>
<clustering>
<clus scale="   45.881">  1  9  2 -1</clus>
<clus scale="   63.121">  1 10  2 -1</clus>
<clus scale="   91.700">  5  6 -1 -1</clus>
<clus scale="   92.946">  7  8 -1 -1</clus>
<clus scale="  135.248">  1  5  2 -1</clus>
<clus scale="   45.881">  1  5  2 -1</clus>
</clustering>
</event>
<event>
10    2  0.1133532E-006  0.9366417E+02  0.7546771E-02  0.1295556E+00
         -1   -1    0    0    0  501 -0.00000000000E+00  0.00000000000E+00  0.10651111698E+03  0.10651111698E+03  0.00000000000E+00 0.  1.
          1   -1    0    0  503    0  0.00000000000E+00 -0.00000000000E+00 -0.33778251103E+03  0.33778251103E+03  0.00000000000E+00 0. -1.
         23    2    1    2    0    0  0.36496931503E+02 -0.44486005682E+02 -0.74705318103E+02  0.13153536019E+03  0.91704065981E+02 0.  0.
         23    2    1    2    0    0 -0.16460356236E+01 -0.14197648345E+02 -0.13280535742E+03  0.16069856093E+03  0.89344736121E+02 0.  0.
        -11    1    3    3    0    0  0.45743586939E+02  0.14532059301E+02 -0.26874693986E+02  0.55008232751E+02  0.00000000000E+00 0. -1.
         11    1    3    3    0    0 -0.92466554358E+01 -0.59018064982E+02 -0.47830624118E+02  0.76527127442E+02  0.00000000000E+00 0.  1.
        -13    1    4    4    0    0 -0.43028464801E+02 -0.41811990659E+01 -0.41372448780E+02  0.59838204576E+02  0.00000000000E+00 0.  1.
         13    1    4    4    0    0  0.41382429178E+02 -0.10016449279E+02 -0.91432908643E+02  0.10086035635E+03  0.00000000000E+00 0. -1.
         21    1    1    2  502  501 -0.28551469834E+02  0.38003058177E+02  0.53655172641E+02  0.71681911328E+02  0.00000000000E+00 0.  1.
         21    1    1    2  503  502 -0.62994260452E+01  0.20680595849E+02 -0.77415891170E+02  0.80377795558E+02  0.00000000000E+00 0.  1.
<scales pt_clust_5="13000.00000" pt_clust_6="13000.00000" pt_clust_7="13000.00000" pt_clust_8="13000.00000" pt_clust_9="48.24142" pt_clust_10="21.61874"></scales>
<clustering>
<clus scale="   21.619">  2 10  1 -1</clus>
<clus scale="   48.241">  1  9  2 -1</clus>
<clus scale="   89.345">  7  8 -1 -1</clus>
<clus scale="   91.355">  2  7  1 -1</clus>
<clus scale="   91.704">  5  6 -1 -1</clus>
<clus scale="   21.619">  2  5  1 -1</clus>
</clustering>
</event>
<event>
10    2  0.1133532E-006  0.1081277E+03  0.7546771E-02  0.1266075E+00
          2   -1    0    0  503    0  0.00000000000E+00  0.00000000000E+00  0.22735952307E+03  0.22735952307E+03  0.00000000000E+00 0. -1.
         -2   -1    0    0    0  501 -0.00000000000E+00 -0.00000000000E+00 -0.10765127697E+03  0.10765127697E+03  0.00000000000E+00 0.  1.
         23    2    1    2    0    0 -0.15863125228E+02  0.58365943509E+00  0.45263169067E+02  0.11078652609E+03  0.99864510656E+02 0.  0.
         23    2    1    2    0    0  0.56860427246E+02 -0.31034580561E+02  0.88983899569E+02  0.14564003304E+03  0.95376262584E+02 0.  0.
        -11    1    4    4    0    0  0.50646008541E+02 -0.63203661180E+02  0.52084209421E+02  0.96293747662E+02  0.00000000000E+00 0. -1.
         11    1    4    4    0    0  0.62144187043E+01  0.32169080619E+02  0.36899690148E+02  0.49346285379E+02  0.00000000000E+00 0.  1.
        -13    1    3    3    0    0 -0.53922694160E+02  0.12923108953E+02  0.78374699086E+01  0.56000800218E+02  0.00000000000E+00 0.  1.
         13    1    3    3    0    0  0.38059568932E+02 -0.12339449518E+02  0.37425699159E+02  0.54785725871E+02  0.00000000000E+00 0. -1.
         21    1    1    2  502  501 -0.22505792213E+02 -0.47612448947E+01 -0.28325790657E+02  0.36490143223E+02  0.00000000000E+00 0.  1.
         21    1    1    2  503  502 -0.18491509804E+02  0.35212166020E+02  0.13786968119E+02  0.42094097693E+02  0.00000000000E+00 0.  1.
<scales pt_clust_5="13000.00000" pt_clust_6="13000.00000" pt_clust_7="13000.00000" pt_clust_8="13000.00000" pt_clust_9="23.00392" pt_clust_10="41.15883"></scales>
<clustering>
<clus scale="   23.004">  2  9  1 -1</clus>
<clus scale="   41.159">  2 10  1 -1</clus>
<clus scale="   95.376">  5  6 -1 -1</clus>
<clus scale="   99.865">  7  8 -1 -1</clus>
<clus scale="  103.997">  1  5  2 -1</clus>
<clus scale="  103.997">  1  5  2 -1</clus>
</clustering>
</event>
<event>
10    2  0.1133532E-006  0.1250306E+03  0.7546771E-02  0.1241607E+00
          1   -1    0    0  503    0  0.00000000000E+00  0.00000000000E+00  0.66287294165E+02  0.66287294165E+02  0.00000000000E+00 0. -1.
         -1   -1    0    0    0  501 -0.00000000000E+00 -0.00000000000E+00 -0.48364393542E+03  0.48364393542E+03  0.00000000000E+00 0.  1.
         23    2    1    2    0    0  0.52267789380E+01 -0.50777752580E+02 -0.17035141508E+03  0.20052612800E+03  0.92657563187E+02 0.  0.
         23    2    1    2    0    0 -0.32384815956E+02  0.42399212157E+02 -0.47587615351E+02  0.13181229616E+03  0.11074037560E+03 0.  0.
        -13    1    4    4    0    0  0.22606141306E+02 -0.26415991184E+02 -0.11537216079E+02  0.36632629851E+02  0.00000000000E+00 0.  1.
         13    1    4    4    0    0 -0.54990957262E+02  0.68815203341E+02 -0.36050399272E+02  0.95179666311E+02  0.00000000000E+00 0. -1.
        -13    1    3    3    0    0  0.31296524101E+02  0.14498110677E+02 -0.69616868551E+02  0.77692831206E+02  0.00000000000E+00 0. -1.
         13    1    3    3    0    0 -0.26069745163E+02 -0.65275863257E+02 -0.10073454653E+03  0.12283329679E+03  0.00000000000E+00 0.  1.
         21    1    1    2  502  501  0.22277543366E+02 -0.17424621337E+02 -0.18593411546E+03  0.18807286264E+03  0.00000000000E+00 0.  1.
         21    1    1    2  503  502  0.48804936519E+01  0.25803161760E+02 -0.13483495366E+02  0.29519942791E+02  0.00000000000E+00 0.  1.
<scales pt_clust_5="13000.00000" pt_clust_6="13000.00000" pt_clust_7="13000.00000" pt_clust_8="13000.00000" pt_clust_9="28.06469" pt_clust_10="26.26066"></scales>
<clustering>
<clus scale="   26.261">  1 10  2 -1</clus>
<clus scale="   28.065">  2  9  1 -1</clus>
<clus scale="   92.658">  7  8 -1 -1</clus>
<clus scale="  109.337">  2  7  1 -1</clus>
<clus scale="  110.740">  5  6 -1 -1</clus>
<clus scale="   26.261">  1  5  2 -1</clus>
</clustering>
</event>
<event>
10    2  0.1133532E-006  0.1090262E+03  0.7546771E-02  0.1262466E+00
         -1   -1    0    0    0  501 -0.00000000000E+00  0.00000000000E+00  0.12435868256E+03  0.12435868256E+03  0.00000000000E+00 0.  1.
          1   -1    0    0  503    0  0.00000000000E+00 -0.00000000000E+00 -0.43697431388E+03  0.43697431388E+03  0.00000000000E+00 0. -1.
         23    2    1    2    0    0  0.45804269461E+02 -0.50920336150E+02 -0.13083204195E+03  0.17382625309E+03  0.91693136762E+02 0.  0.
         23    2    1    2    0    0  0.12355812443E+02  0.61994494992E+02 -0.25345153476E+03  0.27691093076E+03  0.91902119637E+02 0.  0.
        -11    1    3    3    0    0  0.69970505513E+02 -0.38914684758E+02 -0.66553164397E+02  0.10411315010E+03  0.00000000000E+00 0. -1.
         11    1    3    3    0    0 -0.24166236052E+02 -0.12005651392E+02 -0.64278877550E+02  0.69713102996E+02  0.00000000000E+00 0.  1.
        -13    1    4    4    0    0 -0.34672494839E+02  0.52383205426E+02 -0.15906778312E+03  0.17102263516E+03  0.00000000000E+00 0.  1.
         13    1    4    4    0    0  0.47028307282E+02  0.96112895653E+01 -0.94383751639E+02  0.10588829561E+03  0.00000000000E+00 0. -1.
         21    1    1    2  502  501 -0.15454472685E+02 -0.27028048436E+02  0.77475724386E+01  0.32083968067E+02  0.00000000000E+00 0.  1.
         21    1    1    2  503  502 -0.42705609219E+02  0.15953889594E+02  0.63920372952E+02  0.78511844522E+02  0.00000000000E+00 0.  1.
<scales pt_clust_5="13000.00000" pt_clust_6="13000.00000" pt_clust_7="13000.00000" pt_clust_8="13000.00000" pt_clust_9="31.13448" pt_clust_10="53.30102"></scales>
<clustering>
<clus scale="   31.134">  1  9  2 -1</clus>
<clus scale="   53.301">  1 10  2 -1</clus>
<clus scale="   91.693">  5  6 -1 -1</clus>
<clus scale="   91.902">  7  8 -1 -1</clus>
<clus scale="  108.850">  1  5  2 -1</clus>
<clus scale="  109.026">  2  5  1 -1</clus>
</clustering>
</event>
<event>
10    2  0.1133532E-006  0.2329814E+03  0.7546771E-02  0.1124633E+00
         -1   -1    0    0    0  501 -0.00000000000E+00  0.00000000000E+00  0.15060850784E+03  0.15060850784E+03  0.00000000000E+00 0.  1.
          1   -1    0    0  503    0  0.00000000000E+00 -0.00000000000E+00 -0.93992683668E+03  0.93992683668E+03  0.00000000000E+00 0. -1.
         23    2    1    2    0    0  0.66373164567E+02  0.24760750817E+03 -0.48615319984E+02  0.27612829675E+03  0.90379819945E+02 0.  0.
         23    2    1    2    0    0 -0.10185528224E+03 -0.14975371637E+03 -0.40229460862E+03  0.45012209851E+03  0.89265207993E+02 0.  0.
        -13    1    3    3    0    0  0.61079271743E+02  0.21619876104E+03 -0.72770992064E+02  0.23615291444E+03  0.00000000000E+00 0.  1.
         13    1    3    3    0    0  0.52938928242E+01  0.31408747134E+02  0.24155672080E+02  0.39975382317E+02  0.00000000000E+00 0. -1.
        -13    1    4    4    0    0 -0.48832715337E+01 -0.84744706957E+02 -0.15772085997E+03  0.17911276160E+03  0.00000000000E+00 0.  1.
         13    1    4    4    0    0 -0.96972010707E+02 -0.65009009410E+02 -0.24457374865E+03  0.27100933691E+03  0.00000000000E+00 0. -1.
         21    1    1    2  502  501  0.84680017754E+01 -0.40877599292E+02 -0.35247448056E+02  0.54635773742E+02  0.00000000000E+00 0. -1.
         21    1    1    2  503  502  0.27014115898E+02 -0.56976192513E+02 -0.30316095218E+03  0.30964917552E+03  0.00000000000E+00 0. -1.
<scales pt_clust_5="13000.00000" pt_clust_6="13000.00000" pt_clust_7="13000.00000" pt_clust_8="13000.00000" pt_clust_9="41.74548" pt_clust_10="63.99018"></scales>
<clustering>
<clus scale="   41.745">  1  9  2 -1</clus>
<clus scale="   63.990">  2 10  1 -1</clus>
<clus scale="   89.265">  7  8 -1 -1</clus>
<clus scale="   90.380">  5  6 -1 -1</clus>
<clus scale="  232.551">  2  7  1 -1</clus>
<clus scale="   63.990">  2  5  1 -1</clus>
</clustering>
</event>
<event>
10    2  0.1133532E-006  0.1474001E+03  0.7546771E-02  0.1224981E+00
          1   -1    0    0  503    0  0.00000000000E+00  0.00000000000E+00  0.36402531346E+03  0.36402531346E+03  0.00000000000E+00 0. -1.
         -1   -1    0    0    0  501 -0.00000000000E+00 -0.00000000000E+00 -0.40252898528E+03  0.40252898528E+03  0.00000000000E+00 0.  1.
         23    2    1    2    0    0 -0.58646047283E+01  0.10534968425E+03 -0.31482356058E+03  0.34467421428E+03  0.92485080619E+02 0.  0.
         23    2    1    2    0    0 -0.20440312432E+01 -0.16891015780E+02  0.24822754298E+03  0.26541364099E+03  0.92401316290E+02 0.  0.
        -11    1    4    4    0    0  0.40774915839E+02  0.56753433260E+01  0.75053375861E+02  0.85602643135E+02  0.00000000000E+00 0.  1.
         11    1    4    4    0    0 -0.42818947082E+02 -0.22566359106E+02  0.17317416712E+03  0.17981099786E+03  0.00000000000E+00 0. -1.
        -11    1    3    3    0    0 -0.28992361996E+02  0.10360234261E+03 -0.29553712466E+03  0.31450945058E+03  0.00000000000E+00 0.  1.
         11    1    3    3    0    0  0.23127757268E+02  0.17473416313E+01 -0.19286435915E+02  0.30164763704E+02  0.00000000000E+00 0. -1.
         21    1    1    2  502  501  0.23647869136E+02  0.13292576587E+02 -0.28192833420E+02  0.39124802405E+02  0.00000000000E+00 0. -1.
         21    1    1    2  503  502 -0.15739233165E+02 -0.10175124505E+03  0.56285179201E+02  0.11734164107E+03  0.00000000000E+00 0. -1.
<scales pt_clust_5="13000.00000" pt_clust_6="13000.00000" pt_clust_7="13000.00000" pt_clust_8="13000.00000" pt_clust_9="27.12774" pt_clust_10="114.77493"></scales>
<clustering>
<clus scale="   27.128">  2  9  1 -1</clus>
<clus scale="   92.401">  5  6 -1 -1</clus>
<clus scale="   92.485">  7  8 -1 -1</clus>
<clus scale="   93.889">  1  5  2 -1</clus>
<clus scale="  114.775">  1 10  2 -1</clus>
<clus scale="   93.889">  1  5  2 -1</clus>
</clustering>
</event>
<event>
10    2  0.1133532E-006  0.1118162E+03  0.7546771E-02  0.1268616E+00
          4   -1    0    0  503    0  0.00000000000E+00  0.00000000000E+00  0.15609032180E+03  0.15609032180E+03  0.00000000000E+00 0. -1.
         -4   -1    0    0    0  501 -0.00000000000E+00 -0.00000000000E+00 -0.15197861820E+03  0.15197861820E+03  0.00000000000E+00 0.  1.
         23    2    1    2    0    0  0.17434779036E+02  0.57029054235E+02 -0.41359867957E+02  0.10889122064E+03  0.81181122855E+02 0.  0.
         23    2    1    2    0    0 -0.13501890516E+02 -0.11648361717E+02 -0.30066451210E+01  0.10680743926E+03  0.10526539692E+03 0.  0.
        -11    1    3    3    0    0  0.41725493646E+01  0.76684859663E+02 -0.34616621478E+02  0.84239470276E+02  0.00000000000E+00 0.  1.
         11    1    3    3    0    0  0.13262229672E+02 -0.19655805429E+02 -0.67432464785E+01  0.24651750363E+02  0.00000000000E+00 0. -1.
        -11    1    4    4    0    0 -0.31835343700E+02 -0.51324175444E+02  0.99737196834E+01  0.61213847926E+02  0.00000000000E+00 0. -1.
         11    1    4    4    0    0  0.18333453185E+02  0.39675813727E+02 -0.12980364804E+02  0.45593591337E+02  0.00000000000E+00 0.  1.
         21    1    1    2  502  501 -0.10448051989E+02 -0.25376883976E+02 -0.10782682286E+02  0.29485831648E+02  0.00000000000E+00 0.  1.
         21    1    1    2  503  502  0.65151634683E+01 -0.20003808541E+02  0.59260898966E+02  0.62884448454E+02  0.00000000000E+00 0. -1.
<scales pt_clust_5="13000.00000" pt_clust_6="13000.00000" pt_clust_7="13000.00000" pt_clust_8="13000.00000" pt_clust_9="29.05096" pt_clust_10="21.03805"></scales>
<clustering>
<clus scale="   21.038">  1 10  2 -1</clus>
<clus scale="   29.051">  2  9  1 -1</clus>
<clus scale="   81.181">  5  6 -1 -1</clus>
<clus scale="   89.512">  2  5  1 -1</clus>
<clus scale="  105.265">  7  8 -1 -1</clus>
<clus scale="   21.038">  1  5  2 -1</clus>
</clustering>
</event>
<event>
10    2  0.1133532E-006  0.1550476E+03  0.7546771E-02  0.1215828E+00
          1   -1    0    0  503    0  0.00000000000E+00  0.00000000000E+00  0.38961389230E+03  0.38961389230E+03  0.00000000000E+00 0. -1.
         -1   -1    0    0    0  501 -0.00000000000E+00 -0.00000000000E+00 -0.21654899696E+03  0.21654899696E+03  0.00000000000E+00 0.  1.
         23    2    1    2    0    0  0.25395045613E+02 -0.19373741584E+02 -0.71074356373E+02  0.12070202371E+03  0.92180063952E+02 0.  0.
         23    2    1    2    0    0 -0.47216368583E+02  0.12598762256E+03  0.29442151769E+03  0.33672624420E+03  0.92726840523E+02 0.  0.
        -13    1    4    4    0    0 -0.24918110965E+02  0.73744963084E+02  0.25742847657E+03  0.26893986760E+03  0.00000000000E+00 0. -1.
         13    1    4    4    0    0 -0.22298257617E+02  0.52242659471E+02  0.36993041123E+02  0.67786376603E+02  0.00000000000E+00 0.  1.
        -13    1    3    3    0    0 -0.13276973108E+02  0.30777751257E+02 -0.17847250153E+02  0.37974627389E+02  0.00000000000E+00 0.  1.
         13    1    3    3    0    0  0.38672018721E+02 -0.50151492841E+02 -0.53227106220E+02  0.82727396325E+02  0.00000000000E+00 0. -1.
         21    1    1    2  502  501 -0.22136750299E+02 -0.18646275180E+02 -0.40682646596E+02  0.49927918302E+02  0.00000000000E+00 0.  1.
         21    1    1    2  503  502  0.43958073269E+02 -0.87967605791E+02 -0.95996193892E+01  0.98806703045E+02  0.00000000000E+00 0. -1.
<scales pt_clust_5="13000.00000" pt_clust_6="13000.00000" pt_clust_7="13000.00000" pt_clust_8="13000.00000" pt_clust_9="28.94338" pt_clust_10="124.26378"></scales>
<clustering>
<clus scale="   28.943">  2  9  1 -1</clus>
<clus scale="   92.180">  7  8 -1 -1</clus>
<clus scale="   92.727">  5  6 -1 -1</clus>
<clus scale="   97.750">  2  7  1 -1</clus>
<clus scale="  124.264">  2 10  1 -1</clus>
<clus scale="  155.048">  1  5  2 -1</clus>
</clustering>
</event>
<event>
10    2  0.1133532E-006  0.9711091E+02  0.7546771E-02  0.1288765E+00
         -2   -1    0    0    0  501 -0.00000000000E+00  0.00000000000E+00  0.29509178248E+03  0.29509178248E+03  0.00000000000E+00 0.  1.
          2   -1    0    0  503    0  0.00000000000E+00 -0.00000000000E+00 -0.14363697873E+03  0.14363697873E+03  0.00000000000E+00 0. -1.
         23    2    1    2    0    0 -0.22681733131E+02  0.40048827040E+02  0.18380632473E+03  0.20901270104E+03  0.88222302289E+02 0.  0.
         23    2    1    2    0    0  0.43409009248E+02 -0.17397992036E+02 -0.79486839658E+02  0.13061787160E+03  0.92497775611E+02 0.  0.
        -11    1    3    3    0    0  0.69805963515E+01 -0.24644753994E+02  0.72565225086E+02  0.76953261897E+02  0.00000000000E+00 0. -1.
         11    1    3    3    0    0 -0.29662329483E+02  0.64693581034E+02  0.11124109964E+03  0.13205943914E+03  0.00000000000E+00 0.  1.
        -13    1    4    4    0    0  0.19031527162E+01 -0.49497887545E+02 -0.50213221305E+02  0.70533895791E+02  0.00000000000E+00 0.  1.
         13    1    4    4    0    0  0.41505856532E+02  0.32099895509E+02 -0.29273618353E+02  0.60083975813E+02  0.00000000000E+00 0. -1.
         21    1    1    2  502  501 -0.30095127116E+01 -0.36187908618E+02  0.62315602516E+02  0.72123894888E+02  0.00000000000E+00 0. -1.
         21    1    1    2  503  502 -0.17717763405E+02  0.13537073614E+02 -0.15180283839E+02  0.26974293680E+02  0.00000000000E+00 0. -1.
<scales pt_clust_5="13000.00000" pt_clust_6="13000.00000" pt_clust_7="13000.00000" pt_clust_8="13000.00000" pt_clust_9="35.83966" pt_clust_10="22.29734"></scales>
<clustering>
<clus scale="   22.297">  2 10  1 -1</clus>
<clus scale="   35.840">  1  9  2 -1</clus>
<clus scale="   88.222">  5  6 -1 -1</clus>
<clus scale="   92.498">  7  8 -1 -1</clus>
<clus scale="   93.048">  1  5  2 -1</clus>
<clus scale="   22.297">  2  5  1 -1</clus>
</clustering>
</event>
<event>
10    2  0.1133532E-006  0.1317282E+03  0.7546771E-02  0.1227583E+00
          1   -1    0    0  503    0  0.00000000000E+00  0.00000000000E+00  0.59427171566E+03  0.59427171566E+03  0.00000000000E+00 0. -1.
         -1   -1    0    0    0  501 -0.00000000000E+00 -0.00000000000E+00 -0.13078652848E+03  0.13078652848E+03  0.00000000000E+00 0.  1.
         23    2    1    2    0    0 -0.13414334968E+02  0.11064847038E+03 -0.50518427820E+02  0.15150940994E+03  0.89330629522E+02 0.  0.
         23    2    1    2    0    0 -0.26691837448E+02 -0.65564950421E+02  0.47703445385E+03  0.49231603026E+03  0.99004982610E+02 0.  0.
        -11    1    4    4    0    0 -0.51378962035E+02 -0.65366734360E+01  0.29133400107E+03  0.29590205477E+03  0.00000000000E+00 0.  1.
         11    1    4    4    0    0  0.24687124587E+02 -0.59028276985E+02  0.18570045278E+03  0.19641397548E+03  0.00000000000E+00 0. -1.
        -13    1    3    3    0    0 -0.32212108680E+02  0.17401530380E+01 -0.13282095085E+02  0.34886417530E+02  0.00000000000E+00 0. -1.
         13    1    3    3    0    0  0.18797773713E+02  0.10890831735E+03 -0.37236332735E+02  0.11662299241E+03  0.00000000000E+00 0.  1.
         21    1    1    2  502  501  0.91646214851E+01 -0.24959597196E+02 -0.30828643659E+01  0.26767066180E+02  0.00000000000E+00 0.  1.
         21    1    1    2  503  502  0.30941550930E+02 -0.20123922767E+02  0.40052025522E+02  0.54465737761E+02  0.00000000000E+00 0.  1.
<scales pt_clust_5="13000.00000" pt_clust_6="13000.00000" pt_clust_7="13000.00000" pt_clust_8="13000.00000" pt_clust_9="26.58894" pt_clust_10="38.24723"></scales>
<clustering>
<clus scale="   26.589">  2  9  1 -1</clus>
<clus scale="   38.247">  1 10  2 -1</clus>
<clus scale="   89.331">  7  8 -1 -1</clus>
<clus scale="   99.005">  5  6 -1 -1</clus>
<clus scale="  124.621">  2  7  1 -1</clus>
<clus scale="   38.247">  1  5  2 -1</clus>
</clustering>
</event>
<event>
10    2  0.1133532E-006  0.9911842E+02  0.7546771E-02  0.1283848E+00
          1   -1    0    0  503    0  0.00000000000E+00  0.00000000000E+00  0.10689036084E+03  0.10689036084E+03  0.00000000000E+00 0. -1.
         -1   -1    0    0    0  501 -0.00000000000E+00 -0.00000000000E+00 -0.30860939865E+03  0.30860939865E+03  0.00000000000E+00 0.  1.
         23    2    1    2    0    0 -0.24696703579E+02 -0.18286427566E+02 -0.16630857504E+03  0.19450042838E+03  0.96060157753E+02 0.  0.
         23    2    1    2    0    0  0.19211433690E+02 -0.19017397436E+02  0.58790768415E+02  0.11316535142E+03  0.92840194540E+02 0.  0.
        -13    1    3    3    0    0  0.34987161533E+02 -0.18096535843E+02 -0.84542728325E+02  0.93268746074E+02  0.00000000000E+00 0. -1.
         13    1    3    3    0    0 -0.59683865112E+02 -0.18989172326E+00 -0.81765846720E+02  0.10123168231E+03  0.00000000000E+00 0.  1.
        -13    1    4    4    0    0  0.56331714833E+02 -0.16577254384E+02  0.28914925847E+02  0.65453345183E+02  0.00000000000E+00 0. -1.
         13    1    4    4    0    0 -0.37120281143E+02 -0.24401430526E+01  0.29875842568E+02  0.47712006240E+02  0.00000000000E+00 0.  1.
         21    1    1    2  502  501 -0.90970463987E+01  0.18757710098E+02 -0.73656763277E+02  0.76550158182E+02  0.00000000000E+00 0.  1.
         21    1    1    2  503  502  0.14582316287E+02  0.18546114905E+02 -0.20544467900E+02  0.31283821500E+02  0.00000000000E+00 0. -1.
<scales pt_clust_5="13000.00000" pt_clust_6="13000.00000" pt_clust_7="13000.00000" pt_clust_8="13000.00000" pt_clust_9="20.84725" pt_clust_10="24.69263"></scales>
<clustering>
<clus scale="   20.847">  2  9  1 -1</clus>
<clus scale="   24.693">  2 10  1 -1</clus>
<clus scale="   92.840">  7  8 -1 -1</clus>
<clus scale="   96.001">  1  7  2 -1</clus>
<clus scale="   96.060">  5  6 -1 -1</clus>
<clus scale="   96.001">  1  5  2 -1</clus>
</clustering>
</event>
<event>
10    2  0.1133532E-006  0.1277515E+03  0.7546771E-02  0.1231573E+00
         -1   -1    0    0    0  501 -0.00000000000E+00  0.00000000000E+00  0.11320540747E+03  0.11320540747E+03  0.00000000000E+00 0.  1.
          1   -1    0    0  503    0  0.00000000000E+00 -0.00000000000E+00 -0.46185058198E+03  0.46185058198E+03  0.00000000000E+00 0. -1.
         23    2    1    2    0    0 -0.23530794324E+01  0.14589504197E+03 -0.53033514604E+02  0.17950647670E+03  0.90106166548E+02 0.  0.
         23    2    1    2    0    0  0.38478153868E+02 -0.40638538400E+02 -0.15783819160E+03  0.19145612112E+03  0.92792739255E+02 0.  0.
        -11    1    3    3    0    0  0.43726156264E+02  0.78043156311E+02 -0.26431421449E+02  0.93280925319E+02  0.00000000000E+00 0.  1.
         11    1    3    3    0    0 -0.46079235696E+02  0.67851885661E+02 -0.26602093156E+02  0.86225551377E+02  0.00000000000E+00 0. -1.
        -13    1    4    4    0    0  0.52677521741E+02  0.84974261681E+01 -0.55161784350E+02  0.76746009675E+02  0.00000000000E+00 0.  1.
         13    1    4    4    0    0 -0.14199367874E+02 -0.49135964568E+02 -0.10267640725E+03  0.11471011145E+03  0.00000000000E+00 0. -1.
         21    1    1    2  502  501  0.10454549140E+00 -0.57057922075E+02 -0.38093869891E+01  0.57185040269E+02  0.00000000000E+00 0.  1.
         21    1    1    2  503  502 -0.36229619927E+02 -0.48198581497E+02 -0.13396408131E+03  0.14690835136E+03  0.00000000000E+00 0. -1.
<scales pt_clust_5="13000.00000" pt_clust_6="13000.00000" pt_clust_7="13000.00000" pt_clust_8="13000.00000" pt_clust_9="57.05802" pt_clust_10="63.75576"></scales>
<clustering>
<clus scale="   57.058">  1  9  2 -1</clus>
<clus scale="   63.756">  2 10  1 -1</clus>
<clus scale="   90.106">  5  6 -1 -1</clus>
<clus scale="   92.793">  7  8 -1 -1</clus>
<clus scale="  125.814">  1  5  2 -1</clus>
<clus scale="   63.756">  2  5  1 -1</clus>
</clustering>
</event>
<event>
10    2  0.1133532E-006  0.1633506E+03  0.7546771E-02  0.1191877E+00
         -1   -1    0    0    0  501 -0.00000000000E+00  0.00000000000E+00  0.14449425461E+03  0.14449425461E+03  0.00000000000E+00 0.  1.
          1   -1    0    0  503    0  0.00000000000E+00 -0.00000000000E+00 -0.76795086814E+03  0.76795086814E+03  0.00000000000E+00 0. -1.
         23    2    1    2    0    0 -0.62711975806E+02 -0.27356806402E+02 -0.13830760838E+03  0.19780685378E+03  0.12376336331E+03 0.  0.
         23    2    1    2    0    0  0.11886296405E+03  0.78730613659E+02 -0.34514120283E+03  0.38435303452E+03  0.90982918749E+02 0.  0.
        -11    1    3    3    0    0 -0.10059082806E+03 -0.16308122551E+02 -0.97211021801E+02  0.14083484054E+03  0.00000000000E+00 0.  1.
         11    1    3    3    0    0  0.37878852257E+02 -0.11048683850E+02 -0.41096586580E+02  0.56972013231E+02  0.00000000000E+00 0. -1.
        -13    1    4    4    0    0 -0.26883441012E+00  0.44970328456E+02 -0.10297550757E+03  0.11236706756E+03  0.00000000000E+00 0.  1.
         13    1    4    4    0    0  0.11913179846E+03  0.33760285203E+02 -0.24216569526E+03  0.27198596696E+03  0.00000000000E+00 0. -1.
         21    1    1    2  502  501 -0.31258791278E+02 -0.33281973600E+02  0.88569340253E+02  0.99646022659E+02  0.00000000000E+00 0. -1.
         21    1    1    2  503  502 -0.24892196963E+02 -0.18091833657E+02 -0.22857714256E+03  0.23063921180E+03  0.00000000000E+00 0.  1.
<scales pt_clust_5="13000.00000" pt_clust_6="13000.00000" pt_clust_7="13000.00000" pt_clust_8="13000.00000" pt_clust_9="45.97065" pt_clust_10="30.77232"></scales>
<clustering>
<clus scale="   30.772">  2 10  1 -1</clus>
<clus scale="   45.971">  1  9  2 -1</clus>
<clus scale="   90.983">  7  8 -1 -1</clus>
<clus scale="  123.763">  5  6 -1 -1</clus>
<clus scale="  140.157">  2  7  1 -1</clus>
<clus scale="   30.772">  2  5  1 -1</clus>
</clustering>
</event>
<event>
10    2  0.1133532E-006  0.1156486E+03  0.7546771E-02  0.1254174E+00
         -3   -1    0    0    0  501 -0.00000000000E+00  0.00000000000E+00  0.59246111533E+02  0.59246111533E+02  0.00000000000E+00 0.  1.
          3   -1    0    0  503    0  0.00000000000E+00 -0.00000000000E+00 -0.41911813123E+03  0.41911813123E+03  0.00000000000E+00 0. -1.
         23    2    1    2    0    0 -0.49853451855E+02 -0.20877386446E+02 -0.51767801095E+02  0.11758571868E+03  0.90693241650E+02 0.  0.
         23    2    1    2    0    0  0.41394702806E+02 -0.63645005516E+00 -0.25848254981E+03  0.28034536219E+03  0.10033128655E+03 0.  0.
        -13    1    4    4    0    0 -0.12572549336E+02 -0.33881872330E+02 -0.15362480997E+03  0.15781835289E+03  0.00000000000E+00 0.  1.
         13    1    4    4    0    0  0.53967252142E+02  0.33245422275E+02 -0.10485773983E+03  0.12252700930E+03  0.00000000000E+00 0. -1.
        -13    1    3    3    0    0  0.14586725794E+02 -0.19136172979E+02  0.12020001513E+02  0.26896953769E+02  0.00000000000E+00 0. -1.
         13    1    3    3    0    0 -0.64440177649E+02 -0.17412134667E+01 -0.63787802608E+02  0.90688764912E+02  0.00000000000E+00 0.  1.
         21    1    1    2  502  501 -0.21519627050E+02  0.86119126096E+01 -0.27830390238E+01  0.23345335581E+02  0.00000000000E+00 0.  1.
         21    1    1    2  503  502  0.29978376099E+02  0.12901923892E+02 -0.46838629768E+02  0.57087826305E+02  0.00000000000E+00 0.  1.
<scales pt_clust_5="13000.00000" pt_clust_6="13000.00000" pt_clust_7="13000.00000" pt_clust_8="13000.00000" pt_clust_9="23.17886" pt_clust_10="30.97208"></scales>
<clustering>
<clus scale="   23.179">  1  9  2 -1</clus>
<clus scale="   30.972">  2 10  1 -1</clus>
<clus scale="   90.693">  7  8 -1 -1</clus>
<clus scale="  100.331">  5  6 -1 -1</clus>
<clus scale="  107.394">  1  7  2 -1</clus>
<clus scale="   30.972">  2  5  1 -1</clus>
</clustering>
</event>
<event>
10    2  0.1133532E-006  0.1083250E+03  0.7546771E-02  0.1263897E+00
          1   -1    0    0  503    0  0.00000000000E+00  0.00000000000E+00  0.43030829555E+03  0.43030829555E+03  0.00000000000E+00 0. -1.
         -1   -1    0    0    0  501 -0.00000000000E+00 -0.00000000000E+00 -0.10166995322E+03  0.10166995322E+03  0.00000000000E+00 0.  1.
         23    2    1    2    0    0 -0.51903699693E+02 -0.10875521458E+02 -0.32187352843E+02  0.10943400305E+03  0.90152672346E+02 0.  0.
         23    2    1    2    0    0  0.21805210017E+02  0.61755913624E+02  0.31445191458E+03  0.33374427041E+03  0.90641995778E+02 0.  0.
        -11    1    4    4    0    0 -0.39789704017E+00  0.80322869403E+02  0.19628189306E+03  0.21208135990E+03  0.00000000000E+00 0.  1.
         11    1    4    4    0    0  0.22203107057E+02 -0.18566955778E+02  0.11817002151E+03  0.12166291051E+03  0.00000000000E+00 0. -1.
        -13    1    3    3    0    0 -0.22387861936E+02 -0.30779033935E+02  0.22475527715E+02  0.44200844314E+02  0.00000000000E+00 0. -1.
         13    1    3    3    0    0 -0.29515837758E+02  0.19903512477E+02 -0.54662880558E+02  0.65233158733E+02  0.00000000000E+00 0.  1.
         21    1    1    2  502  501  0.12303229104E+02 -0.37447283918E+02  0.23914603076E+01  0.39489082056E+02  0.00000000000E+00 0.  1.
         21    1    1    2  503  502  0.17795260572E+02 -0.13433108248E+02  0.43982320281E+02  0.49310893253E+02  0.00000000000E+00 0.  1.
<scales pt_clust_5="13000.00000" pt_clust_6="13000.00000" pt_clust_7="13000.00000" pt_clust_8="13000.00000" pt_clust_9="40.42227" pt_clust_10="22.29618"></scales>
<clustering>
<clus scale="   22.296">  1 10  2 -1</clus>
<clus scale="   40.422">  2  9  1 -1</clus>
<clus scale="   90.153">  7  8 -1 -1</clus>
<clus scale="   90.642">  5  6 -1 -1</clus>
<clus scale="  107.916">  2  7  1 -1</clus>
<clus scale="   22.296">  1  5  2 -1</clus>
</clustering>
</event>
<event>
10    2  0.1133532E-006  0.3214982E+03  0.7546771E-02  0.1075799E+00
         -2   -1    0    0    0  501 -0.00000000000E+00  0.00000000000E+00  0.19665423194E+03  0.19665423194E+03  0.00000000000E+00 0.  1.
          2   -1    0    0  503    0  0.00000000000E+00 -0.00000000000E+00 -0.96550712749E+03  0.96550712749E+03  0.00000000000E+00 0. -1.
         23    2    1    2    0    0 -0.21683450406E+03  0.18035999866E+03 -0.76121057338E+02  0.31424146136E+03  0.11578579099E+03 0.  0.
         23    2    1    2    0    0  0.29250590566E+03 -0.11641100612E+03 -0.44016496732E+03  0.54924004232E+03  0.93852002857E+02 0.  0.
        -13    1    3    3    0    0 -0.19448471558E+03  0.18587369318E+03 -0.40826231157E+02  0.27210313406E+03  0.00000000000E+00 0.  1.
         13    1    3    3    0    0 -0.22349788483E+02 -0.55136945215E+01 -0.35294826181E+02  0.42138327300E+02  0.00000000000E+00 0. -1.
        -13    1    4    4    0    0  0.52249165921E+02 -0.44591721686E+02 -0.15477939200E+03  0.16933711102E+03  0.00000000000E+00 0.  1.
         13    1    4    4    0    0  0.24025673974E+03 -0.71819284436E+02 -0.28538557533E+03  0.37990293130E+03  0.00000000000E+00 0. -1.
         21    1    1    2  502  501 -0.52812683797E+02 -0.29918128054E+02 -0.22101647203E+02  0.64596878912E+02  0.00000000000E+00 0.  1.
         21    1    1    2  503  502 -0.22858717799E+02 -0.34030864487E+02 -0.23046522368E+03  0.23408297684E+03  0.00000000000E+00 0.  1.
<scales pt_clust_5="13000.00000" pt_clust_6="13000.00000" pt_clust_7="13000.00000" pt_clust_8="13000.00000" pt_clust_9="62.87511" pt_clust_10="40.99537"></scales>
<clustering>
<clus scale="   40.995">  2 10  1 -1</clus>
<clus scale="   62.875">  1  9  2 -1</clus>
<clus scale="   93.852">  7  8 -1 -1</clus>
<clus scale="  115.786">  5  6 -1 -1</clus>
<clus scale="  314.266">  2  7  1 -1</clus>
<clus scale="   40.995">  2  5  1 -1</clus>
</clustering>
</event>
<event>
10    2  0.1133532E-006  0.1132568E+03  0.7546771E-02  0.1255696E+00
          2   -1    0    0  503    0  0.00000000000E+00  0.00000000000E+00  0.44115259140E+03  0.44115259140E+03  0.00000000000E+00 0. -1.
         -2   -1    0    0    0  501 -0.00000000000E+00 -0.00000000000E+00 -0.74703810689E+02  0.74703810689E+02  0.00000000000E+00 0.  1.
         23    2    1    2    0    0  0.20605683493E+02  0.21519538591E+02  0.39194729684E+02  0.10369972920E+03  0.91267312153E+02 0.  0.
         23    2    1    2    0    0 -0.80304331400E+02 -0.13478075720E+02  0.23557341035E+03  0.26640806037E+03  0.94063695441E+02 0.  0.
        -11    1    4    4    0    0  0.10145058361E+02 -0.25879327600E+02  0.93378523464E+02  0.97427975708E+02  0.00000000000E+00 0.  1.
         11    1    4    4    0    0 -0.90449389761E+02  0.12401251879E+02  0.14219488688E+03  0.16898008466E+03  0.00000000000E+00 0. -1.
        -13    1    3    3    0    0  0.23258523984E+02 -0.32468061448E+02  0.63234097141E+01  0.40436610423E+02  0.00000000000E+00 0.  1.
         13    1    3    3    0    0 -0.26528404912E+01  0.53987600039E+02  0.32871319970E+02  0.63263118776E+02  0.00000000000E+00 0. -1.
         21    1    1    2  502  501 -0.24538552870E+02  0.96903845748E+01  0.14354396008E+02  0.30034859995E+02  0.00000000000E+00 0. -1.
         21    1    1    2  503  502  0.84237200778E+02 -0.17731847446E+02  0.77326244674E+02  0.11571375253E+03  0.00000000000E+00 0.  1.
<scales pt_clust_5="13000.00000" pt_clust_6="13000.00000" pt_clust_7="13000.00000" pt_clust_8="13000.00000" pt_clust_9="26.38265" pt_clust_10="78.62759"></scales>
<clustering>
<clus scale="   26.383">  2  9  1 -1</clus>
<clus scale="   78.628">  2 10  1 -1</clus>
<clus scale="   91.267">  7  8 -1 -1</clus>
<clus scale="   94.064">  5  6 -1 -1</clus>
<clus scale="  110.945">  2  7  1 -1</clus>
<clus scale="  113.257">  1  5  2 -1</clus>
</clustering>
</event>
<event>
10    2  0.1133532E-006  0.1644597E+03  0.7546771E-02  0.1184771E+00
         -2   -1    0    0    0  501 -0.00000000000E+00  0.00000000000E+00  0.18559172315E+03  0.18559172315E+03  0.00000000000E+00 0.  1.
          2   -1    0    0  503    0  0.00000000000E+00 -0.00000000000E+00 -0.28327197660E+03  0.28327197660E+03  0.00000000000E+00 0. -1.
         23    2    1    2    0    0 -0.98261051971E+02  0.61519077665E+02  0.72948553929E+02  0.16198445435E+03  0.86473352418E+02 0.  0.
         23    2    1    2    0    0  0.95297503979E+02 -0.84968251144E+02 -0.14415088422E+03  0.21391831598E+03  0.93168398737E+02 0.  0.
        -13    1    3    3    0    0 -0.79627060169E+02  0.57269835592E+00  0.51085931935E+02  0.94607447573E+02  0.00000000000E+00 0.  1.
         13    1    3    3    0    0 -0.18633991802E+02  0.60946379309E+02  0.21862621993E+02  0.67377006773E+02  0.00000000000E+00 0. -1.
        -13    1    4    4    0    0  0.73718082521E+02 -0.66737178818E+02 -0.42021223543E+02  0.10795364725E+03  0.00000000000E+00 0. -1.
         13    1    4    4    0    0  0.21579421458E+02 -0.18231072326E+02 -0.10212966067E+03  0.10596466872E+03  0.00000000000E+00 0.  1.
         21    1    1    2  502  501 -0.30422769930E+02  0.18785783150E+02  0.15629173140E+02  0.39022065960E+02  0.00000000000E+00 0.  1.
         21    1    1    2  503  502  0.33386317922E+02  0.46633903301E+01 -0.42107096301E+02  0.53938863472E+02  0.00000000000E+00 0. -1.
<scales pt_clust_5="13000.00000" pt_clust_6="13000.00000" pt_clust_7="13000.00000" pt_clust_8="13000.00000" pt_clust_9="34.48145" pt_clust_10="33.71044"></scales>
<clustering>
<clus scale="   33.710">  2 10  1 -1</clus>
<clus scale="   34.481">  1  9  2 -1</clus>
<clus scale="   86.473">  5  6 -1 -1</clus>
<clus scale="   93.168">  7  8 -1 -1</clus>
<clus scale="  160.762">  1  5  2 -1</clus>
<clus scale="   33.710">  2  5  1 -1</clus>
</clustering>
</event>
<event>
10    2  0.1133532E-006  0.2366600E+03  0.7546771E-02  0.1146706E+00
          1   -1    0    0  503    0  0.00000000000E+00  0.00000000000E+00  0.10485825323E+04  0.10485825323E+04  0.00000000000E+00 0. -1.
         -1   -1    0    0    0  501 -0.00000000000E+00 -0.00000000000E+00 -0.10585864540E+03  0.10585864540E+03  0.00000000000E+00 0.  1.
         23    2    1    2    0    0  0.24867689903E+03  0.52803045394E+02  0.21049785133E+03  0.34241734185E+03  0.91169780469E+02 0.  0.
         23    2    1    2    0    0 -0.65389560855E+02 -0.65291249504E+02  0.46292552033E+03  0.48076051479E+03  0.91059833456E+02 0.  0.
        -11    1    4    4    0    0 -0.63737052230E+02  0.24111919947E+00  0.24806326831E+03  0.25612078215E+03  0.00000000000E+00 0.  1.
         11    1    4    4    0    0 -0.16525086254E+01 -0.65532368704E+02  0.21486225203E+03  0.22463973264E+03  0.00000000000E+00 0. -1.
        -13    1    3    3    0    0  0.11687756627E+02 -0.17505320548E+02  0.68444976684E+01  0.22133392212E+02  0.00000000000E+00 0.  1.
         13    1    3    3    0    0  0.23698914240E+03  0.70308365942E+02  0.20365335366E+03  0.32028394964E+03  0.00000000000E+00 0. -1.
         21    1    1    2  502  501 -0.16196168805E+03  0.89677425151E+01  0.19378035105E+03  0.25271096782E+03  0.00000000000E+00 0. -1.
         21    1    1    2  503  502 -0.21325650127E+02  0.35204615953E+01  0.75520164152E+02  0.78552353222E+02  0.00000000000E+00 0. -1.
<scales pt_clust_5="13000.00000" pt_clust_6="13000.00000" pt_clust_7="13000.00000" pt_clust_8="13000.00000" pt_clust_9="226.18228" pt_clust_10="21.47937"></scales>
<clustering>
<clus scale="   21.479">  9 10 -1 -1</clus>
<clus scale="   91.060">  5  6 -1 -1</clus>
<clus scale="   91.170">  7  8 -1 -1</clus>
<clus scale="  129.733">  1  5  2 -1</clus>
<clus scale="  226.182">  1  9  2 -1</clus>
<clus scale="  129.733">  1  5  2 -1</clus>
</clustering>
</event>
<event>
10    2  0.1133532E-006  0.1278364E+03  0.7546771E-02  0.1230761E+00
          1   -1    0    0  503    0  0.00000000000E+00  0.00000000000E+00  0.44665312932E+03  0.44665312932E+03  0.00000000000E+00 0. -1.
         -1   -1    0    0    0  501 -0.00000000000E+00 -0.00000000000E+00 -0.67368243112E+02  0.67368243112E+02  0.00000000000E+00 0.  1.
         23    2    1    2    0    0  0.95447960078E+02 -0.34106469550E+02  0.16439309348E+03  0.21413721315E+03  0.92499148752E+02 0.  0.
         23    2    1    2    0    0 -0.74705783295E+02  0.18622286775E+02  0.17880040554E+03  0.21562354452E+03  0.92715609835E+02 0.  0.
        -13    1    4    4    0    0 -0.35471525531E+02 -0.24536078320E+02  0.13763145006E+03  0.14423128755E+03  0.00000000000E+00 0. -1.
         13    1    4    4    0    0 -0.39234257764E+02  0.43158365095E+02  0.41168955486E+02  0.71392256974E+02  0.00000000000E+00 0.  1.
        -13    1    3    3    0    0 -0.10834664517E+02 -0.21051727954E+02  0.60375910115E+02  0.64852260772E+02  0.00000000000E+00 0.  1.
         13    1    3    3    0    0  0.10628262460E+03 -0.13054741597E+02  0.10401718337E+03  0.14928495237E+03  0.00000000000E+00 0. -1.
         21    1    1    2  502  501 -0.97290817611E+01  0.38225424578E+02 -0.91030377261E+00  0.39454616574E+02  0.00000000000E+00 0. -1.
         21    1    1    2  503  502 -0.11013095022E+02 -0.22741241802E+02  0.37001690955E+02  0.44805998194E+02  0.00000000000E+00 0.  1.
<scales pt_clust_5="13000.00000" pt_clust_6="13000.00000" pt_clust_7="13000.00000" pt_clust_8="13000.00000" pt_clust_9="38.53412" pt_clust_10="25.26761"></scales>
<clustering>
<clus scale="   25.268">  1 10  2 -1</clus>
<clus scale="   38.534">  2  9  1 -1</clus>
<clus scale="   92.499">  7  8 -1 -1</clus>
<clus scale="   92.716">  5  6 -1 -1</clus>
<clus scale="  127.679">  2  7  1 -1</clus>
<clus scale="   25.268">  1  5  2 -1</clus>
</clustering>
</event>
<event>
10    2  0.1133532E-006  0.2690892E+03  0.7546771E-02  0.1115155E+00
          1   -1    0    0  503    0  0.00000000000E+00  0.00000000000E+00  0.50101480763E+03  0.50101480763E+03  0.00000000000E+00 0. -1.
         -1   -1    0    0    0  501 -0.00000000000E+00 -0.00000000000E+00 -0.49229224267E+03  0.49229224267E+03  0.00000000000E+00 0.  1.
         23    2    1    2    0    0 -0.17598586938E+03 -0.30985391498E+03  0.12791755333E+03  0.38971577318E+03  0.92385110091E+02 0.  0.
         23    2    1    2    0    0  0.10890708855E+03  0.12766041982E+03  0.21217920738E+02  0.19414093997E+03  0.95302506200E+02 0.  0.
        -11    1    4    4    0    0  0.66492112463E+02  0.12144402989E+03  0.44407602042E+02  0.14540250525E+03  0.00000000000E+00 0.  1.
         11    1    4    4    0    0  0.42414976083E+02  0.62163899385E+01 -0.23189681304E+02  0.48738434720E+02  0.00000000000E+00 0. -1.
        -11    1    3    3    0    0 -0.15840951285E+03 -0.19332413888E+03  0.94711698622E+02  0.26727907193E+03  0.00000000000E+00 0. -1.
         11    1    3    3    0    0 -0.17576356530E+02 -0.11652977610E+03  0.33205854704E+02  0.12243670125E+03  0.00000000000E+00 0.  1.
         21    1    1    2  502  501  0.22026778915E+02  0.23522182712E+03 -0.20628279353E+03  0.31363526244E+03  0.00000000000E+00 0.  1.
         21    1    1    2  503  502  0.45052001923E+02 -0.53028331958E+02  0.65869884418E+02  0.95815074705E+02  0.00000000000E+00 0.  1.
<scales pt_clust_5="13000.00000" pt_clust_6="13000.00000" pt_clust_7="13000.00000" pt_clust_8="13000.00000" pt_clust_9="252.73303" pt_clust_10="69.58223"></scales>
<clustering>
<clus scale="   69.582">  1 10  2 -1</clus>
<clus scale="   92.385">  7  8 -1 -1</clus>
<clus scale="   95.303">  5  6 -1 -1</clus>
<clus scale="  191.321">  1  5  2 -1</clus>
<clus scale="  252.733">  2  9  1 -1</clus>
<clus scale="   69.582">  1  5  2 -1</clus>
</clustering>
</event>
<event>
10    2  0.1133532E-006  0.1687568E+03  0.7546771E-02  0.1179717E+00
          1   -1    0    0  503    0  0.00000000000E+00  0.00000000000E+00  0.36404489563E+03  0.36404489563E+03  0.00000000000E+00 0. -1.
         -1   -1    0    0    0  501 -0.00000000000E+00 -0.00000000000E+00 -0.18691511862E+03  0.18691511862E+03  0.00000000000E+00 0.  1.
         23    2    1    2    0    0 -0.90519096274E+01 -0.16156198494E+03 -0.84858439115E+02  0.20535139493E+03  0.93723149031E+02 0.  0.
         23    2    1    2    0    0 -0.23649099695E+02  0.12010866927E+03  0.22799929450E+03  0.27392768205E+03  0.89818285184E+02 0.  0.
        -13    1    3    3    0    0  0.93971830728E+01 -0.40761616233E+02 -0.70947393257E+02  0.82361089221E+02  0.00000000000E+00 0.  1.
         13    1    3    3    0    0 -0.18449092700E+02 -0.12080036871E+03 -0.13911045858E+02  0.12299030571E+03  0.00000000000E+00 0. -1.
        -13    1    4    4    0    0 -0.49508318099E+02  0.11439791772E+03  0.19737314322E+03  0.23343974556E+03  0.00000000000E+00 0. -1.
         13    1    4    4    0    0  0.25859218404E+02  0.57107515447E+01  0.30626151273E+02  0.40487936493E+02  0.00000000000E+00 0.  1.
         21    1    1    2  502  501  0.31028511241E+02  0.21114219896E+02  0.75516246212E+01  0.38283231656E+02  0.00000000000E+00 0. -1.
         21    1    1    2  503  502  0.16724980822E+01  0.20339095777E+02  0.26437297007E+02  0.33397705608E+02  0.00000000000E+00 0. -1.
<scales pt_clust_5="13000.00000" pt_clust_6="13000.00000" pt_clust_7="13000.00000" pt_clust_8="13000.00000" pt_clust_9="38.42613" pt_clust_10="20.40775"></scales>
<clustering>
<clus scale="   20.408">  1 10  2 -1</clus>
<clus scale="   38.426">  2  9  1 -1</clus>
<clus scale="   89.818">  7  8 -1 -1</clus>
<clus scale="   93.723">  5  6 -1 -1</clus>
<clus scale="  166.620">  1  7  2 -1</clus>
<clus scale="   20.408">  1  5  2 -1</clus>
</clustering>
</event>
<event>
10    2  0.1133532E-006  0.1039833E+03  0.7546771E-02  0.1272267E+00
          1   -1    0    0  503    0  0.00000000000E+00  0.00000000000E+00  0.12684606435E+03  0.12684606435E+03  0.00000000000E+00 0. -1.
         -1   -1    0    0    0  501 -0.00000000000E+00 -0.00000000000E+00 -0.64892867763E+03  0.64892867763E+03  0.00000000000E+00 0.  1.
         23    2    1    2    0    0  0.44917654424E+01 -0.46920656756E+02 -0.22427544008E+02  0.10543628629E+03  0.91608360694E+02 0.  0.
         23    2    1    2    0    0 -0.76135581435E+02  0.69366202379E+01  0.41071570541E+01  0.11916023975E+03  0.91310188576E+02 0.  0.
        -13    1    3    3    0    0 -0.17706034893E+02 -0.23626908070E+02 -0.53244430467E+02  0.60882705528E+02  0.00000000000E+00 0.  1.
         13    1    3    3    0    0  0.22197800336E+02 -0.23293748686E+02  0.30816886460E+02  0.44553580761E+02  0.00000000000E+00 0. -1.
        -13    1    4    4    0    0 -0.16407239855E+02  0.39557158686E+02  0.22892400423E+02  0.48559533771E+02  0.00000000000E+00 0.  1.
         13    1    4    4    0    0 -0.59728341580E+02 -0.32620538448E+02 -0.18785243368E+02  0.70600705980E+02  0.00000000000E+00 0. -1.
         21    1    1    2  502  501  0.77863829248E+02  0.59187043616E+02 -0.51756487502E+03  0.52672505341E+03  0.00000000000E+00 0.  1.
         21    1    1    2  503  502 -0.62200132548E+01 -0.19203007099E+02  0.13802648694E+02  0.24453162525E+02  0.00000000000E+00 0.  1.
<scales pt_clust_5="13000.00000" pt_clust_6="13000.00000" pt_clust_7="13000.00000" pt_clust_8="13000.00000" pt_clust_9="97.10191" pt_clust_10="20.18524"></scales>
<clustering>
<clus scale="   20.185">  1 10  2 -1</clus>
<clus scale="   91.310">  7  8 -1 -1</clus>
<clus scale="   91.608">  5  6 -1 -1</clus>
<clus scale="   97.102">  2  9  1 -1</clus>
<clus scale="  103.721">  1  7  2 -1</clus>
<clus scale="   20.185">  1  5  2 -1</clus>
</clustering>
</event>
<event>
10    2  0.1133532E-006  0.1047434E+03  0.7546771E-02  0.1270693E+00
         -1   -1    0    0    0  501 -0.00000000000E+00  0.00000000000E+00  0.55550021511E+03  0.55550021511E+03  0.00000000000E+00 0.  1.
          1   -1    0    0  503    0  0.00000000000E+00 -0.00000000000E+00 -0.16022845374E+03  0.16022845374E+03  0.00000000000E+00 0. -1.
         23    2    1    2    0    0  0.29080959158E+02 -0.14771540782E+02  0.38603743270E+03  0.39799032561E+03  0.91145483872E+02 0.  0.
         23    2    1    2    0    0 -0.23266762919E+02  0.21399586643E+02  0.10652384193E+02  0.96912056779E+02  0.90990048329E+02 0.  0.
        -13    1    3    3    0    0  0.37485846259E+02 -0.47298115844E+02  0.29093104938E+03  0.29712484905E+03  0.00000000000E+00 0.  1.
         13    1    3    3    0    0 -0.84048871003E+01  0.32526575063E+02  0.95106383324E+02  0.10086547656E+03  0.00000000000E+00 0. -1.
        -13    1    4    4    0    0 -0.57588381875E+02  0.68531831460E+01 -0.51930160414E+00  0.57997047514E+02  0.00000000000E+00 0. -1.
         13    1    4    4    0    0  0.34321618956E+02  0.14546403497E+02  0.11171685797E+02  0.38915009264E+02  0.00000000000E+00 0.  1.
         21    1    1    2  502  501  0.11107577684E+02 -0.31124939557E+02  0.10512722803E+03  0.11019924781E+03  0.00000000000E+00 0.  1.
         21    1    1    2  503  502 -0.16921773924E+02  0.24496893695E+02 -0.10654528355E+03  0.11062703865E+03  0.00000000000E+00 0. -1.
<scales pt_clust_5="13000.00000" pt_clust_6="13000.00000" pt_clust_7="13000.00000" pt_clust_8="13000.00000" pt_clust_9="31.63752" pt_clust_10="29.77321"></scales>
<clustering>
<clus scale="   29.773">  2 10  1 -1</clus>
<clus scale="   31.638">  1  9  2 -1</clus>
<clus scale="   90.990">  7  8 -1 -1</clus>
<clus scale="   91.145">  5  6 -1 -1</clus>
<clus scale="  104.608">  2  7  1 -1</clus>
<clus scale="   29.773">  2  5  1 -1</clus>
</clustering>
</event>
<event>
10    2  0.1133532E-006  0.3161111E+03  0.7546771E-02  0.1077461E+00
          1   -1    0    0  503    0  0.00000000000E+00  0.00000000000E+00  0.14538870438E+04  0.14538870438E+04  0.00000000000E+00 0. -1.
         -1   -1    0    0    0  501 -0.00000000000E+00 -0.00000000000E+00 -0.97995585566E+02  0.97995585566E+02  0.00000000000E+00 0.  1.
         23    2    1    2    0    0  0.30424957216E+03  0.90461262270E+02  0.71292509419E+03  0.78566645838E+03  0.90876574365E+02 0.  0.
         23    2    1    2    0    0 -0.27262738533E+03 -0.95543716550E+02  0.59695194868E+03  0.66940686518E+03  0.91102300243E+02 0.  0.
        -11    1    3    3    0    0  0.11510858863E+03  0.60951499229E+02  0.37907113218E+03  0.40082414558E+03  0.00000000000E+00 0. -1.
         11    1    3    3    0    0  0.18914098353E+03  0.29509763041E+02  0.33385396201E+03  0.38484231279E+03  0.00000000000E+00 0.  1.
        -13    1    4    4    0    0 -0.17652256960E+03 -0.10538217018E+03  0.42706510854E+03  0.47397281177E+03  0.00000000000E+00 0.  1.
         13    1    4    4    0    0 -0.96104815735E+02  0.98384536293E+01  0.16988684015E+03  0.19543405341E+03  0.00000000000E+00 0. -1.
         21    1    1    2  502  501 -0.41719762795E+02 -0.16352396865E+02 -0.27191294086E+00  0.44810862830E+02  0.00000000000E+00 0.  1.
         21    1    1    2  503  502  0.10097575965E+02  0.21434851144E+02  0.46286328314E+02  0.51998442984E+02  0.00000000000E+00 0. -1.
<scales pt_clust_5="13000.00000" pt_clust_6="13000.00000" pt_clust_7="13000.00000" pt_clust_8="13000.00000" pt_clust_9="44.53774" pt_clust_10="23.69417"></scales>
<clustering>
<clus scale="   23.694">  1 10  2 -1</clus>
<clus scale="   44.538">  2  9  1 -1</clus>
<clus scale="   90.877">  5  6 -1 -1</clus>
<clus scale="   91.102">  7  8 -1 -1</clus>
<clus scale="  316.046">  2  5  1 -1</clus>
<clus scale="   23.694">  1  5  2 -1</clus>
</clustering>
</event>
<event>
10    2  0.1133532E-006  0.9814298E+02  0.7546771E-02  0.1286682E+00
          1   -1    0    0  503    0  0.00000000000E+00  0.00000000000E+00  0.34121262274E+03  0.34121262274E+03  0.00000000000E+00 0. -1.
         -1   -1    0    0    0  501 -0.00000000000E+00 -0.00000000000E+00 -0.11493700211E+03  0.11493700211E+03  0.00000000000E+00 0.  1.
         23    2    1    2    0    0  0.80488165105E+02  0.28739232554E+01 -0.18141584592E+01  0.12496395438E+03  0.95530594926E+02 0.  0.
         23    2    1    2    0    0  0.54199672645E+01 -0.14548902018E+01  0.11182801829E+03  0.14428678400E+03  0.91003723068E+02 0.  0.
        -11    1    3    3    0    0  0.40767478952E+02 -0.45477085314E+02  0.80975430513E+01  0.61609437850E+02  0.00000000000E+00 0. -1.
         11    1    3    3    0    0  0.39720686154E+02  0.48351008569E+02 -0.99117015105E+01  0.63354516532E+02  0.00000000000E+00 0.  1.
        -13    1    4    4    0    0  0.35433185376E+02  0.14947568064E+02  0.14459134237E+02  0.41085362111E+02  0.00000000000E+00 0.  1.
         13    1    4    4    0    0 -0.30013218112E+02 -0.16402458266E+02  0.97368884049E+02  0.10320142189E+03  0.00000000000E+00 0. -1.
         21    1    1    2  502  501 -0.66448191980E+02  0.12383540370E+02 -0.63205633870E+00  0.67595220133E+02  0.00000000000E+00 0. -1.
         21    1    1    2  503  502 -0.19459940390E+02 -0.13802573424E+02  0.11689381715E+03  0.11930366634E+03  0.00000000000E+00 0. -1.
<scales pt_clust_5="13000.00000" pt_clust_6="13000.00000" pt_clust_7="13000.00000" pt_clust_8="13000.00000" pt_clust_9="70.13076" pt_clust_10="23.85792"></scales>
<clustering>
<clus scale="   23.858">  1 10  2 -1</clus>
<clus scale="   70.131">  2  9  1 -1</clus>
<clus scale="   91.004">  7  8 -1 -1</clus>
<clus scale="   93.742">  1  7  2 -1</clus>
<clus scale="   95.531">  5  6 -1 -1</clus>
<clus scale="   23.858">  1  5  2 -1</clus>
</clustering>
</event>
<event>
10    2  0.1133532E-006  0.9997792E+02  0.7546771E-02  0.1282103E+00
          1   -1    0    0  503    0  0.00000000000E+00  0.00000000000E+00  0.28463661467E+03  0.28463661467E+03  0.00000000000E+00 0. -1.
         -1   -1    0    0    0  501 -0.00000000000E+00 -0.00000000000E+00 -0.21629586290E+03  0.21629586290E+03  0.00000000000E+00 0.  1.
         23    2    1    2    0    0 -0.19176118092E+02  0.45649818234E+02 -0.99936899284E+02  0.14804298887E+03  0.97353547984E+02 0.  0.
         23    2    1    2    0    0 -0.38755221696E+02 -0.26470375407E+02  0.29118424460E+02  0.10900230424E+03  0.93973249941E+02 0.  0.
        -11    1    4    4    0    0  0.26918251352E+02 -0.16471335919E+02  0.28570709459E+02  0.42569738099E+02  0.00000000000E+00 0. -1.
         11    1    4    4    0    0 -0.65673473048E+02 -0.99990394876E+01  0.54771500080E+00  0.66432566145E+02  0.00000000000E+00 0.  1.
        -11    1    3    3    0    0  0.33767873765E+02  0.34313443553E+02 -0.73313997687E+02  0.87707604938E+02  0.00000000000E+00 0. -1.
         11    1    3    3    0    0 -0.52943991858E+02  0.11336374682E+02 -0.26622901597E+02  0.60335383932E+02  0.00000000000E+00 0.  1.
         21    1    1    2  502  501 -0.24265694472E+01 -0.38699406236E+02 -0.38864019092E+02  0.54899401292E+02  0.00000000000E+00 0.  1.
         21    1    1    2  503  502  0.60357909235E+02  0.19519963408E+02  0.17802324569E+03  0.18898778317E+03  0.00000000000E+00 0. -1.
<scales pt_clust_5="13000.00000" pt_clust_6="13000.00000" pt_clust_7="13000.00000" pt_clust_8="13000.00000" pt_clust_9="38.77541" pt_clust_10="62.98659"></scales>
<clustering>
<clus scale="   38.775">  2  9  1 -1</clus>
<clus scale="   62.987">  1 10  2 -1</clus>
<clus scale="   93.973">  5  6 -1 -1</clus>
<clus scale="   96.689">  1  5  2 -1</clus>
<clus scale="   97.354">  7  8 -1 -1</clus>
<clus scale="   62.987">  1  5  2 -1</clus>
</clustering>
</event>
<event>
10    2  0.1133532E-006  0.9543729E+02  0.7546771E-02  0.1290620E+00
         -1   -1    0    0    0  501 -0.00000000000E+00  0.00000000000E+00  0.88602450187E+02  0.88602450187E+02  0.00000000000E+00 0.  1.
          1   -1    0    0  503    0  0.00000000000E+00 -0.00000000000E+00 -0.17603302301E+03  0.17603302301E+03  0.00000000000E+00 0. -1.
         23    2    1    2    0    0  0.27522126100E+00  0.13527042568E+02 -0.12630063752E+02  0.93482916259E+02  0.91632311411E+02 0.  0.
         23    2    1    2    0    0 -0.11153316028E+02 -0.33752932001E+02 -0.55542254220E+02  0.11225509406E+03  0.90843861991E+02 0.  0.
        -11    1    3    3    0    0  0.40616673402E+02  0.25196133027E+02  0.47516594734E+01  0.48032671647E+02  0.00000000000E+00 0.  1.
         11    1    3    3    0    0 -0.40341452141E+02 -0.11669090459E+02 -0.17381723226E+02  0.45450244612E+02  0.00000000000E+00 0. -1.
        -11    1    4    4    0    0  0.12858713750E+02 -0.43041263106E+02  0.62123857755E+01  0.45348545578E+02  0.00000000000E+00 0.  1.
         11    1    4    4    0    0 -0.24012029777E+02  0.92883311053E+01 -0.61754639995E+02  0.66906548481E+02  0.00000000000E+00 0. -1.
         21    1    1    2  502  501 -0.84601172883E+01  0.28553573574E+02  0.83639945097E+00  0.29792276053E+02  0.00000000000E+00 0.  1.
         21    1    1    2  503  502  0.19338212055E+02 -0.83276841418E+01 -0.20094654304E+02  0.29105186827E+02  0.00000000000E+00 0. -1.
<scales pt_clust_5="13000.00000" pt_clust_6="13000.00000" pt_clust_7="13000.00000" pt_clust_8="13000.00000" pt_clust_9="28.53387" pt_clust_10="21.05509"></scales>
<clustering>
<clus scale="   21.055">  2 10  1 -1</clus>
<clus scale="   28.534">  1  9  2 -1</clus>
<clus scale="   90.844">  7  8 -1 -1</clus>
<clus scale="   91.632">  5  6 -1 -1</clus>
<clus scale="   94.681">  2  7  1 -1</clus>
<clus scale="   21.055">  2  5  1 -1</clus>
</clustering>
</event>
<event>
10    2  0.1133532E-006  0.3619834E+03  0.7546771E-02  0.1057865E+00
          1   -1    0    0  503    0  0.00000000000E+00  0.00000000000E+00  0.15237108803E+04  0.15237108803E+04  0.00000000000E+00 0. -1.
         -1   -1    0    0    0  501 -0.00000000000E+00 -0.00000000000E+00 -0.32182470231E+03  0.32182470231E+03  0.00000000000E+00 0.  1.
         23    2    1    2    0    0 -0.24701599154E+03 -0.33827046734E+03 -0.68370337754E+02  0.43509005210E+03  0.95838620616E+02 0.  0.
         23    2    1    2    0    0  0.22444914244E+03  0.30583753383E+03  0.94714860983E+03  0.10245581995E+04  0.93354166703E+02 0.  0.
        -11    1    3    3    0    0 -0.13107338340E+03 -0.11298660074E+03 -0.54145416133E+02  0.18132272299E+03  0.00000000000E+00 0. -1.
         11    1    3    3    0    0 -0.11594260815E+03 -0.22528386660E+03 -0.14224921621E+02  0.25376732912E+03  0.00000000000E+00 0.  1.
        -11    1    4    4    0    0  0.87476769581E+02  0.19723084413E+03  0.51095695768E+03  0.55464331213E+03  0.00000000000E+00 0.  1.
         11    1    4    4    0    0  0.13697237286E+03  0.10860668970E+03  0.43619165215E+03  0.46991488738E+03  0.00000000000E+00 0. -1.
         21    1    1    2  502  501  0.52690399193E+02  0.73115130635E+02  0.40540056023E+02  0.98821033375E+02  0.00000000000E+00 0.  1.
         21    1    1    2  503  502 -0.30123550088E+02 -0.40682197127E+02  0.28256784990E+03  0.28706629762E+03  0.00000000000E+00 0. -1.
<scales pt_clust_5="13000.00000" pt_clust_6="13000.00000" pt_clust_7="13000.00000" pt_clust_8="13000.00000" pt_clust_9="87.27582" pt_clust_10="50.62084"></scales>
<clustering>
<clus scale="   50.621">  1 10  2 -1</clus>
<clus scale="   87.276">  2  9  1 -1</clus>
<clus scale="   93.354">  7  8 -1 -1</clus>
<clus scale="   95.839">  5  6 -1 -1</clus>
<clus scale="  361.334">  1  7  2 -1</clus>
<clus scale="   50.621">  1  5  2 -1</clus>
</clustering>
</event>
<event>
10    2  0.1133532E-006  0.1364859E+03  0.7546771E-02  0.1219764E+00
         -1   -1    0    0    0  501 -0.00000000000E+00  0.00000000000E+00  0.69327093552E+03  0.69327093552E+03  0.00000000000E+00 0.  1.
          1   -1    0    0  503    0  0.00000000000E+00 -0.00000000000E+00 -0.59593218663E+03  0.59593218663E+03  0.00000000000E+00 0. -1.
         23    2    1    2    0    0  0.65904041554E+02 -0.15419353346E+02  0.32173392465E+03  0.33828956628E+03  0.79661868157E+02 0.  0.
         23    2    1    2    0    0  0.70371765392E+01 -0.47354164913E+02 -0.21632062934E+03  0.23885197413E+03  0.89239632912E+02 0.  0.
        -11    1    3    3    0    0  0.83044992187E+02 -0.26513430695E+01  0.25071298378E+03  0.26412213195E+03  0.00000000000E+00 0.  1.
         11    1    3    3    0    0 -0.17140950633E+02 -0.12768010276E+02  0.71020940860E+02  0.74167434334E+02  0.00000000000E+00 0. -1.
        -13    1    4    4    0    0  0.23476458774E+02  0.20068198209E+02 -0.52039749148E+02  0.60514561779E+02  0.00000000000E+00 0.  1.
         13    1    4    4    0    0 -0.16439282235E+02 -0.67422363122E+02 -0.16428088019E+03  0.17833741235E+03  0.00000000000E+00 0. -1.
         21    1    1    2  502  501 -0.21450604929E+03  0.10929050542E+03  0.29114772449E+03  0.37778864095E+03  0.00000000000E+00 0.  1.
         21    1    1    2  503  502  0.14156483120E+03 -0.46516987158E+02 -0.29922227091E+03  0.33427294078E+03  0.00000000000E+00 0. -1.
<scales pt_clust_5="13000.00000" pt_clust_6="13000.00000" pt_clust_7="13000.00000" pt_clust_8="13000.00000" pt_clust_9="13000.00000" pt_clust_10="177.76082"></scales>
<clustering>
<clus scale="   79.662">  5  6 -1 -1</clus>
<clus scale="   89.240">  7  8 -1 -1</clus>
<clus scale="  101.270">  2  7  1 -1</clus>
<clus scale="  104.795">  1  5  2 -1</clus>
<clus scale="  177.761">  2 10  1 -1</clus>
<clus scale="  101.270">  2  5  1 -1</clus>
</clustering>
</event>
<event>
10    2  0.1133532E-006  0.1004068E+03  0.7546771E-02  0.1279824E+00
         -1   -1    0    0    0  501 -0.00000000000E+00  0.00000000000E+00  0.33108627480E+02  0.33108627480E+02  0.00000000000E+00 0.  1.
          1   -1    0    0  503    0  0.00000000000E+00 -0.00000000000E+00 -0.56164091483E+03  0.56164091483E+03  0.00000000000E+00 0. -1.
         23    2    1    2    0    0  0.36479553728E+02 -0.18805796176E+02 -0.12829931761E+03  0.16306925832E+03  0.91904582581E+02 0.  0.
         23    2    1    2    0    0 -0.11869898691E+02  0.34342096928E+02 -0.24814650962E+03  0.26682947905E+03  0.91109859708E+02 0.  0.
        -11    1    3    3    0    0 -0.19113698676E+02  0.17285581189E+02 -0.70725739703E+02  0.75274531222E+02  0.00000000000E+00 0. -1.
         11    1    3    3    0    0  0.55593252404E+02 -0.36091377365E+02 -0.57573577908E+02  0.87794727097E+02  0.00000000000E+00 0.  1.
        -11    1    4    4    0    0  0.18268027253E+02  0.55522615064E+02 -0.11975475052E+03  0.13325795239E+03  0.00000000000E+00 0.  1.
         11    1    4    4    0    0 -0.30137925944E+02 -0.21180518136E+02 -0.12839175909E+03  0.13357152665E+03  0.00000000000E+00 0. -1.
         21    1    1    2  502  501 -0.95366520883E+01 -0.33417722714E+02 -0.55572965101E+02  0.65544232199E+02  0.00000000000E+00 0. -1.
         21    1    1    2  503  502 -0.15073002949E+02  0.17881421962E+02 -0.96513495020E+02  0.99306572744E+02  0.00000000000E+00 0. -1.
<scales pt_clust_5="13000.00000" pt_clust_6="13000.00000" pt_clust_7="13000.00000" pt_clust_8="13000.00000" pt_clust_9="33.14352" pt_clust_10="23.38676"></scales>
<clustering>
<clus scale="   23.387">  2 10  1 -1</clus>
<clus scale="   33.144">  1  9  2 -1</clus>
<clus scale="   91.110">  7  8 -1 -1</clus>
<clus scale="   91.905">  5  6 -1 -1</clus>
<clus scale="   99.680">  2  7  1 -1</clus>
<clus scale="   23.387">  2  5  1 -1</clus>
</clustering>
</event>
<event>
10    2  0.1133532E-006  0.1127447E+03  0.7546771E-02  0.1256844E+00
         -1   -1    0    0    0  501 -0.00000000000E+00  0.00000000000E+00  0.38889065137E+03  0.38889065137E+03  0.00000000000E+00 0.  1.
          1   -1    0    0  503    0  0.00000000000E+00 -0.00000000000E+00 -0.18883876734E+03  0.18883876734E+03  0.00000000000E+00 0. -1.
         23    2    1    2    0    0  0.81132439334E+02 -0.74556538815E+02  0.13021887998E+03  0.19396800132E+03  0.92333518517E+02 0.  0.
         23    2    1    2    0    0 -0.76042188859E+02  0.19827373730E+02 -0.79982844014E+02  0.14308638060E+03  0.88887106728E+02 0.  0.
        -11    1    3    3    0    0  0.39198913186E+02 -0.38331040840E+02  0.12715314822E+03  0.13846929836E+03  0.00000000000E+00 0.  1.
         11    1    3    3    0    0  0.41933526148E+02 -0.36225497974E+02  0.30657317548E+01  0.55498702957E+02  0.00000000000E+00 0. -1.
        -11    1    4    4    0    0 -0.93028538478E+01  0.45575202991E+02 -0.38598363912E+02  0.60443989892E+02  0.00000000000E+00 0. -1.
         11    1    4    4    0    0 -0.66739335011E+02 -0.25747829261E+02 -0.41384480102E+02  0.82642390712E+02  0.00000000000E+00 0.  1.
         21    1    1    2  502  501 -0.30762200488E+02  0.67899788097E+02  0.18246440540E+03  0.19710391534E+03  0.00000000000E+00 0.  1.
         21    1    1    2  503  502  0.25671950013E+02 -0.13170623012E+02 -0.32648557336E+02  0.43571121447E+02  0.00000000000E+00 0. -1.
<scales pt_clust_5="13000.00000" pt_clust_6="13000.00000" pt_clust_7="13000.00000" pt_clust_8="13000.00000" pt_clust_9="73.45134" pt_clust_10="28.85332"></scales>
<clustering>
<clus scale="   28.853">  2 10  1 -1</clus>
<clus scale="   73.451">  1  9  2 -1</clus>
<clus scale="   88.887">  7  8 -1 -1</clus>
<clus scale="   92.334">  5  6 -1 -1</clus>
<clus scale="  109.940">  2  7  1 -1</clus>
<clus scale="   28.853">  2  5  1 -1</clus>
</clustering>
</event>
<event>
10    2  0.1133532E-006  0.2333494E+03  0.7546771E-02  0.1124335E+00
         -1   -1    0    0    0  501 -0.00000000000E+00  0.00000000000E+00  0.10893164699E+03  0.10893164699E+03  0.00000000000E+00 0.  1.
          1   -1    0    0  502    0  0.00000000000E+00 -0.00000000000E+00 -0.80799709777E+03  0.80799709777E+03  0.00000000000E+00 0. -1.
         23    2    1    2    0    0  0.85977856127E+02  0.19241373998E+03 -0.15905190538E+03  0.27832322998E+03  0.88040176417E+02 0.  0.
         23    2    1    2    0    0 -0.61405221063E+02 -0.20999462324E+03 -0.50287974020E+03  0.55550977128E+03  0.88514009706E+02 0.  0.
        -11    1    4    4    0    0 -0.48636628524E+02 -0.16699638554E+03 -0.46612655282E+03  0.49752113288E+03  0.00000000000E+00 0. -1.
         11    1    4    4    0    0 -0.12768592538E+02 -0.42998237694E+02 -0.36753187384E+02  0.57988638396E+02  0.00000000000E+00 0.  1.
        -13    1    3    3    0    0  0.10233236793E+03  0.17097332356E+03 -0.12636575928E+03  0.23594935053E+03  0.00000000000E+00 0.  1.
         13    1    3    3    0    0 -0.16354511807E+02  0.21440416416E+02 -0.32686146104E+02  0.42373879450E+02  0.00000000000E+00 0. -1.
         21    1    1    2  502  503 -0.48133868921E+02  0.13229494634E+02 -0.20693485677E+02  0.54038034893E+02  0.00000000000E+00 0. -1.
         21    1    1    2  503  501  0.23561233857E+02  0.43513886251E+01 -0.16440319527E+02  0.29057708615E+02  0.00000000000E+00 0.  1.
<scales pt_clust_5="13000.00000" pt_clust_6="13000.00000" pt_clust_7="13000.00000" pt_clust_8="13000.00000" pt_clust_9="46.44623" pt_clust_10="23.95968"></scales>
<clustering>
<clus scale="   23.960">  1 10  2 -1</clus>
<clus scale="   46.446">  1  9  2 -1</clus>
<clus scale="   88.040">  7  8 -1 -1</clus>
<clus scale="   88.514">  5  6 -1 -1</clus>
<clus scale="  233.170">  1  7  2 -1</clus>
<clus scale="  233.349">  2  5  1 -1</clus>
</clustering>
</event>
<event>
10    2  0.1133532E-006  0.2619544E+03  0.7546771E-02  0.1105976E+00
          1   -1    0    0  503    0  0.00000000000E+00  0.00000000000E+00  0.34301267242E+03  0.34301267242E+03  0.00000000000E+00 0. -1.
         -1   -1    0    0    0  501 -0.00000000000E+00 -0.00000000000E+00 -0.65306159151E+03  0.65306159151E+03  0.00000000000E+00 0.  1.
         23    2    1    2    0    0  0.32280093925E+02  0.25312263455E+03 -0.21468597416E+03  0.34579143145E+03  0.91479910233E+02 0.  0.
         23    2    1    2    0    0  0.19598558857E+03 -0.20163793200E+03 -0.91123652327E+02  0.30941240922E+03  0.91456614953E+02 0.  0.
        -11    1    3    3    0    0 -0.20102088723E+02  0.28511984071E+02 -0.55494996449E+02  0.65549384723E+02  0.00000000000E+00 0. -1.
         11    1    3    3    0    0  0.52382182648E+02  0.22461065048E+03 -0.15919097771E+03  0.28024204672E+03  0.00000000000E+00 0.  1.
        -11    1    4    4    0    0  0.94930830867E+02 -0.15049669794E+03 -0.29152181288E+02  0.18030798211E+03  0.00000000000E+00 0.  1.
         11    1    4    4    0    0  0.10105475771E+03 -0.51141234054E+02 -0.61971471039E+02  0.12910442711E+03  0.00000000000E+00 0. -1.
         21    1    1    2  502  501 -0.19096725679E+03 -0.28069332829E+02 -0.11290802135E+03  0.22361708767E+03  0.00000000000E+00 0.  1.
         21    1    1    2  503  502 -0.37298425710E+02 -0.23415369727E+02  0.10866872875E+03  0.11725333560E+03  0.00000000000E+00 0. -1.
<scales pt_clust_5="13000.00000" pt_clust_6="13000.00000" pt_clust_7="13000.00000" pt_clust_8="13000.00000" pt_clust_9="202.76266" pt_clust_10="44.03921"></scales>
<clustering>
<clus scale="   44.039">  1 10  2 -1</clus>
<clus scale="   91.457">  7  8 -1 -1</clus>
<clus scale="   91.480">  5  6 -1 -1</clus>
<clus scale="  202.763">  2  9  1 -1</clus>
<clus scale="  261.946">  1  7  2 -1</clus>
<clus scale="   44.039">  1  5  2 -1</clus>
</clustering>
</event>
<event>
10    2  0.1133532E-006  0.3483735E+03  0.7546771E-02  0.1063547E+00
          1   -1    0    0  503    0  0.00000000000E+00  0.00000000000E+00  0.14819394477E+04  0.14819394477E+04  0.00000000000E+00 0. -1.
         -1   -1    0    0    0  501 -0.00000000000E+00 -0.00000000000E+00 -0.16953956935E+03  0.16953956935E+03  0.00000000000E+00 0.  1.
         23    2    1    2    0    0  0.67186010078E+02  0.31253224268E+03  0.95987682605E+02  0.34960389479E+03  0.10401387106E+03 0.  0.
         23    2    1    2    0    0 -0.23760552053E+02 -0.34276643006E+03  0.11347697244E+04  0.11894619096E+04  0.95204609315E+02 0.  0.
        -11    1    3    3    0    0 -0.23005313448E+02  0.64998384820E+02  0.41817042397E+02  0.80639317401E+02  0.00000000000E+00 0. -1.
         11    1    3    3    0    0  0.90191323527E+02  0.24753385786E+03  0.54170640208E+02  0.26896457739E+03  0.00000000000E+00 0.  1.
        -13    1    4    4    0    0 -0.45102746835E+02 -0.99588856945E+02  0.28234059923E+03  0.30276791800E+03  0.00000000000E+00 0.  1.
         13    1    4    4    0    0  0.21342194783E+02 -0.24317757311E+03  0.85242912517E+03  0.88669399162E+03  0.00000000000E+00 0. -1.
         21    1    1    2  502  501 -0.20775928676E+02  0.17809123120E+02  0.61935932472E+00  0.27371293076E+02  0.00000000000E+00 0.  1.
         21    1    1    2  503  502 -0.22649529349E+02  0.12425064252E+02  0.81023112007E+02  0.85041919550E+02  0.00000000000E+00 0. -1.
<scales pt_clust_5="13000.00000" pt_clust_6="13000.00000" pt_clust_7="13000.00000" pt_clust_8="13000.00000" pt_clust_9="27.61728" pt_clust_10="25.83376"></scales>
<clustering>
<clus scale="   25.834">  1 10  2 -1</clus>
<clus scale="   27.617">  2  9  1 -1</clus>
<clus scale="   95.205">  7  8 -1 -1</clus>
<clus scale="  104.014">  5  6 -1 -1</clus>
<clus scale="  345.846">  1  7  2 -1</clus>
<clus scale="   25.834">  1  5  2 -1</clus>
</clustering>
</event>
<event>
10    2  0.1133532E-006  0.1150397E+03  0.7546771E-02  0.1252605E+00
         -1   -1    0    0    0  501 -0.00000000000E+00  0.00000000000E+00  0.27392966175E+03  0.27392966175E+03  0.00000000000E+00 0.  1.
          1   -1    0    0  503    0  0.00000000000E+00 -0.00000000000E+00 -0.11679162024E+03  0.11679162024E+03  0.00000000000E+00 0. -1.
         23    2    1    2    0    0 -0.26449139807E+02 -0.59824933471E+02  0.11541579704E+03  0.16149049969E+03  0.92085805756E+02 0.  0.
         23    2    1    2    0    0  0.24098288775E+02  0.39502574534E+02 -0.13587879664E+02  0.10120271492E+03  0.88972906640E+02 0.  0.
        -11    1    3    3    0    0  0.19237657621E+02 -0.52662936695E+02  0.28168471184E+02  0.62745000924E+02  0.00000000000E+00 0. -1.
         11    1    3    3    0    0 -0.45686797428E+02 -0.71619967753E+01  0.87247325856E+02  0.98745498764E+02  0.00000000000E+00 0.  1.
        -13    1    4    4    0    0 -0.12213214265E+01  0.64511712565E+02 -0.58927330191E+01  0.64791797217E+02  0.00000000000E+00 0.  1.
         13    1    4    4    0    0  0.25319610202E+02 -0.25009138031E+02 -0.76951466452E+01  0.36410917700E+02  0.00000000000E+00 0. -1.
         21    1    1    2  502  501 -0.20934743769E+02 -0.21168108714E+02  0.71756592468E+02  0.77687585146E+02  0.00000000000E+00 0.  1.
         21    1    1    2  503  502  0.23285594801E+02  0.41490467651E+02 -0.16446468336E+02  0.50340482237E+02  0.00000000000E+00 0. -1.
<scales pt_clust_5="13000.00000" pt_clust_6="13000.00000" pt_clust_7="13000.00000" pt_clust_8="13000.00000" pt_clust_9="29.77167" pt_clust_10="45.14109"></scales>
<clustering>
<clus scale="   29.772">  1  9  2 -1</clus>
<clus scale="   45.141">  2 10  1 -1</clus>
<clus scale="   88.973">  7  8 -1 -1</clus>
<clus scale="   92.086">  5  6 -1 -1</clus>
<clus scale="  112.563">  2  7  1 -1</clus>
<clus scale="   45.141">  2  5  1 -1</clus>
</clustering>
</event>
<event>
10    2  0.1133532E-006  0.2517641E+03  0.7546771E-02  0.1145163E+00
         -4   -1    0    0    0  501 -0.00000000000E+00  0.00000000000E+00  0.67076527228E+02  0.67076527228E+02  0.00000000000E+00 0.  1.
          4   -1    0    0  503    0  0.00000000000E+00 -0.00000000000E+00 -0.19567881299E+04  0.19567881299E+04  0.00000000000E+00 0. -1.
         23    2    1    2    0    0  0.82700576591E+01  0.41530944469E+02 -0.97604831710E+02  0.14771079815E+03  0.10246249809E+03 0.  0.
         23    2    1    2    0    0 -0.21427319154E+03 -0.19608304846E+02 -0.11227687978E+04  0.11482939466E+04  0.10803577341E+03 0.  0.
        -11    1    3    3    0    0  0.21037512630E+02  0.58895386415E+02 -0.17766691043E+02  0.65014604431E+02  0.00000000000E+00 0.  1.
         11    1    3    3    0    0 -0.12767454970E+02 -0.17364441946E+02 -0.79838140667E+02  0.82696193719E+02  0.00000000000E+00 0. -1.
        -13    1    4    4    0    0 -0.32717159821E+01 -0.29186126515E+02 -0.15225304529E+03  0.15505974302E+03  0.00000000000E+00 0. -1.
         13    1    4    4    0    0 -0.21100147555E+03  0.95778216694E+01 -0.97051575252E+03  0.99323420362E+03  0.00000000000E+00 0.  1.
         21    1    1    2  502  501  0.22925510585E+03 -0.61544729765E+02 -0.52003156840E+03  0.57164542284E+03  0.00000000000E+00 0. -1.
         21    1    1    2  503  502 -0.23251971976E+02  0.39622090142E+02 -0.14930640479E+03  0.15621448953E+03  0.00000000000E+00 0. -1.
<scales pt_clust_5="13000.00000" pt_clust_6="13000.00000" pt_clust_7="13000.00000" pt_clust_8="13000.00000" pt_clust_9="227.40589" pt_clust_10="45.94088"></scales>
<clustering>
<clus scale="   45.941">  2 10  1 -1</clus>
<clus scale="  102.462">  5  6 -1 -1</clus>
<clus scale="  108.036">  7  8 -1 -1</clus>
<clus scale="  111.800">  1  5  2 -1</clus>
<clus scale="  227.406">  1  9  2 -1</clus>
<clus scale="   45.941">  2  5  1 -1</clus>
</clustering>
</event>
<event>
10    2  0.1133532E-006  0.1187256E+03  0.7546771E-02  0.1246087E+00
         -3   -1    0    0    0  501 -0.00000000000E+00  0.00000000000E+00  0.13026715643E+03  0.13026715643E+03  0.00000000000E+00 0.  1.
          3   -1    0    0  503    0  0.00000000000E+00 -0.00000000000E+00 -0.24258134580E+03  0.24258134580E+03  0.00000000000E+00 0. -1.
         23    2    1    2    0    0 -0.46351997967E+02  0.29205484945E+02 -0.74098384904E+01  0.10369772150E+03  0.87731657181E+02 0.  0.
         23    2    1    2    0    0  0.11090404319E+03  0.42029495132E+01 -0.19754828309E+02  0.14453619979E+03  0.90460423556E+02 0.  0.
        -11    1    4    4    0    0  0.78192006445E+02  0.33476821282E+02 -0.42512882280E+02  0.95089602979E+02  0.00000000000E+00 0. -1.
         11    1    4    4    0    0  0.32712036741E+02 -0.29273871768E+02  0.22758053971E+02  0.49446596815E+02  0.00000000000E+00 0.  1.
        -13    1    3    3    0    0 -0.50935973293E+02 -0.14854413763E+02 -0.21447945553E+02  0.57228850696E+02  0.00000000000E+00 0.  1.
         13    1    3    3    0    0  0.45839753257E+01  0.44059898709E+02  0.14038107063E+02  0.46468870805E+02  0.00000000000E+00 0. -1.
         21    1    1    2  502  501 -0.23710639119E+02 -0.61302264612E+00  0.10577320307E+01  0.23742135566E+02  0.00000000000E+00 0. -1.
         21    1    1    2  503  502 -0.40841406100E+02 -0.32795411812E+02 -0.86207254604E+02  0.10087244537E+03  0.00000000000E+00 0. -1.
<scales pt_clust_5="13000.00000" pt_clust_6="13000.00000" pt_clust_7="13000.00000" pt_clust_8="13000.00000" pt_clust_9="23.71856" pt_clust_10="53.56048"></scales>
<clustering>
<clus scale="   23.719">  1  9  2 -1</clus>
<clus scale="   53.560">  2 10  1 -1</clus>
<clus scale="   87.732">  7  8 -1 -1</clus>
<clus scale="   90.460">  5  6 -1 -1</clus>
<clus scale="  116.660">  1  7  2 -1</clus>
<clus scale="   53.560">  2  5  1 -1</clus>
</clustering>
</event>
<event>
10    2  0.1133532E-006  0.1559048E+03  0.7546771E-02  0.1193425E+00
         -1   -1    0    0    0  501 -0.00000000000E+00  0.00000000000E+00  0.41011455241E+03  0.41011455241E+03  0.00000000000E+00 0.  1.
          1   -1    0    0  503    0  0.00000000000E+00 -0.00000000000E+00 -0.25798747460E+03  0.25798747460E+03  0.00000000000E+00 0. -1.
         23    2    1    2    0    0  0.56370594163E+02  0.11556861770E+03  0.17881717097E+03  0.24035269394E+03  0.96229348793E+02 0.  0.
         23    2    1    2    0    0 -0.10378474636E+03 -0.14723527097E+03  0.25367633188E+02  0.20573281374E+03  0.96088372035E+02 0.  0.
        -11    1    4    4    0    0 -0.12034679574E+03 -0.13286313627E+03  0.33455772800E+02  0.18236022855E+03  0.00000000000E+00 0. -1.
         11    1    4    4    0    0  0.16562049386E+02 -0.14372134708E+02 -0.80881396125E+01  0.23372585187E+02  0.00000000000E+00 0.  1.
        -11    1    3    3    0    0 -0.15434972974E+02  0.56700144876E+02  0.11023130973E+03  0.12491631784E+03  0.00000000000E+00 0.  1.
         11    1    3    3    0    0  0.71805567138E+02  0.58868472823E+02  0.68585861241E+02  0.11543637610E+03  0.00000000000E+00 0. -1.
         21    1    1    2  502  501 -0.28020934989E+02 -0.33902649673E+02  0.58361535221E+02  0.73079622645E+02  0.00000000000E+00 0. -1.
         21    1    1    2  503  502  0.75435087183E+02  0.65569302947E+02 -0.11041926157E+03  0.14893689668E+03  0.00000000000E+00 0.  1.
<scales pt_clust_5="13000.00000" pt_clust_6="13000.00000" pt_clust_7="13000.00000" pt_clust_8="13000.00000" pt_clust_9="43.98366" pt_clust_10="97.52337"></scales>
<clustering>
<clus scale="   43.984">  1  9  2 -1</clus>
<clus scale="   96.088">  5  6 -1 -1</clus>
<clus scale="   96.229">  7  8 -1 -1</clus>
<clus scale="   97.523">  2 10  1 -1</clus>
<clus scale="  155.818">  2  5  1 -1</clus>
<clus scale="   97.523">  2  5  1 -1</clus>
</clustering>
</event>
<event>
10    2  0.1133532E-006  0.9457391E+02  0.7546771E-02  0.1292195E+00
          2   -1    0    0  503    0  0.00000000000E+00  0.00000000000E+00  0.39718771951E+03  0.39718771951E+03  0.00000000000E+00 0. -1.
         -2   -1    0    0    0  501 -0.00000000000E+00 -0.00000000000E+00 -0.85273843938E+02  0.85273843938E+02  0.00000000000E+00 0.  1.
         23    2    1    2    0    0  0.17847922364E+02  0.67310070058E+01  0.15996241213E+02  0.94327293979E+02  0.90982986698E+02 0.  0.
         23    2    1    2    0    0  0.24295534558E+02 -0.44033319025E+02  0.23228958316E+03  0.25445410391E+03  0.90880329913E+02 0.  0.
        -11    1    4    4    0    0 -0.22165587623E+02 -0.51130389227E+02  0.14452251615E+03  0.15489476315E+03  0.00000000000E+00 0. -1.
         11    1    4    4    0    0  0.46461122180E+02  0.70970702019E+01  0.87767067009E+02  0.99559340753E+02  0.00000000000E+00 0.  1.
        -13    1    3    3    0    0 -0.10581851140E+02 -0.33967069803E+02  0.25511953477E+02  0.43778958128E+02  0.00000000000E+00 0. -1.
         13    1    3    3    0    0  0.28429773504E+02  0.40698076809E+02 -0.95157122646E+01  0.50548335851E+02  0.00000000000E+00 0.  1.
         21    1    1    2  502  501 -0.12473880062E+02  0.20788197413E+02 -0.27364105257E+02  0.36558734825E+02  0.00000000000E+00 0.  1.
         21    1    1    2  503  502 -0.29669576859E+02  0.16514114607E+02  0.90992156461E+02  0.97121430743E+02  0.00000000000E+00 0. -1.
<scales pt_clust_5="13000.00000" pt_clust_6="13000.00000" pt_clust_7="13000.00000" pt_clust_8="13000.00000" pt_clust_9="24.24349" pt_clust_10="35.17044"></scales>
<clustering>
<clus scale="   24.243">  2  9  1 -1</clus>
<clus scale="   35.170">  1 10  2 -1</clus>
<clus scale="   90.880">  5  6 -1 -1</clus>
<clus scale="   90.983">  7  8 -1 -1</clus>
<clus scale="   94.475">  1  5  2 -1</clus>
<clus scale="   35.170">  1  5  2 -1</clus>
</clustering>
</event>
<event>
10    2  0.1133532E-006  0.9255523E+02  0.7546771E-02  0.1296853E+00
          1   -1    0    0  503    0  0.00000000000E+00  0.00000000000E+00  0.47570758443E+02  0.47570758443E+02  0.00000000000E+00 0. -1.
         -1   -1    0    0    0  501 -0.00000000000E+00 -0.00000000000E+00 -0.37896444382E+03  0.37896444382E+03  0.00000000000E+00 0.  1.
         23    2    1    2    0    0  0.10664371471E+02  0.12825864156E+02 -0.13440265780E+03  0.16361248869E+03  0.91797278944E+02 0.  0.
         23    2    1    2    0    0  0.19076538892E+01  0.34957273559E+02 -0.73277178696E+02  0.12265987362E+03  0.91925238978E+02 0.  0.
        -11    1    4    4    0    0  0.18290231361E+02 -0.14866018310E+02 -0.65534180778E+02  0.69643807434E+02  0.00000000000E+00 0.  1.
         11    1    4    4    0    0 -0.16382577472E+02  0.49823291869E+02 -0.77429979177E+01  0.53016066188E+02  0.00000000000E+00 0. -1.
        -13    1    3    3    0    0  0.99725744360E+01 -0.32993570461E+02 -0.10151722320E+03  0.10720902266E+03  0.00000000000E+00 0.  1.
         13    1    3    3    0    0  0.69179703506E+00  0.45819434617E+02 -0.32885434598E+02  0.56403466033E+02  0.00000000000E+00 0. -1.
         21    1    1    2  502  501 -0.12288282863E+02 -0.22840728152E+02 -0.10732999792E+03  0.11041933351E+03  0.00000000000E+00 0.  1.
         21    1    1    2  503  502 -0.28374249675E+00 -0.24942409563E+02 -0.16383850959E+02  0.29843506444E+02  0.00000000000E+00 0.  1.
<scales pt_clust_5="13000.00000" pt_clust_6="13000.00000" pt_clust_7="13000.00000" pt_clust_8="13000.00000" pt_clust_9="26.77590" pt_clust_10="24.94402"></scales>
<clustering>
<clus scale="   24.944">  1 10  2 -1</clus>
<clus scale="   26.776">  2  9  1 -1</clus>
<clus scale="   91.797">  7  8 -1 -1</clus>
<clus scale="   91.925">  5  6 -1 -1</clus>
<clus scale="   92.428">  2  7  1 -1</clus>
<clus scale="   24.944">  1  5  2 -1</clus>
</clustering>
</event>
<event>
10    2  0.1133532E-006  0.9686903E+02  0.7546771E-02  0.1287771E+00
         -1   -1    0    0    0  501 -0.00000000000E+00  0.00000000000E+00  0.22062120108E+03  0.22062120108E+03  0.00000000000E+00 0.  1.
          1   -1    0    0  503    0  0.00000000000E+00 -0.00000000000E+00 -0.99037773828E+02  0.99037773828E+02  0.00000000000E+00 0. -1.
         23    2    1    2    0    0 -0.49033301936E+01 -0.10334796571E+02  0.67410909527E+02  0.11736763860E+03  0.95394345739E+02 0.  0.
         23    2    1    2    0    0  0.19063420988E+01 -0.86900994167E+00  0.44472716891E+02  0.10650443238E+03  0.96752169224E+02 0.  0.
        -11    1    3    3    0    0 -0.32524513536E+02 -0.18547033791E+02 -0.65334052749E+01  0.38006865533E+02  0.00000000000E+00 0. -1.
         11    1    3    3    0    0  0.27621183342E+02  0.82122372194E+01  0.73944314802E+02  0.79360773062E+02  0.00000000000E+00 0.  1.
        -11    1    4    4    0    0  0.48151651949E+02 -0.10276387062E+02  0.27204739901E+02  0.56251965206E+02  0.00000000000E+00 0.  1.
         11    1    4    4    0    0 -0.46245309850E+02  0.94073771202E+01  0.17267976990E+02  0.50252467171E+02  0.00000000000E+00 0. -1.
         21    1    1    2  502  501 -0.78428883574E+01  0.33758018759E+02  0.42303350832E+02  0.54687185153E+02  0.00000000000E+00 0.  1.
         21    1    1    2  503  502  0.10839876452E+02 -0.22554212246E+02 -0.32603549999E+02  0.41099718784E+02  0.00000000000E+00 0. -1.
<scales pt_clust_5="13000.00000" pt_clust_6="13000.00000" pt_clust_7="13000.00000" pt_clust_8="13000.00000" pt_clust_9="32.22995" pt_clust_10="25.02390"></scales>
<clustering>
<clus scale="   25.024">  2 10  1 -1</clus>
<clus scale="   32.230">  1  9  2 -1</clus>
<clus scale="   95.394">  5  6 -1 -1</clus>
<clus scale="   95.513">  1  5  2 -1</clus>
<clus scale="   96.752">  7  8 -1 -1</clus>
<clus scale="   25.024">  2  5  1 -1</clus>
</clustering>
</event>
<event>
10    2  0.1133532E-006  0.1102541E+03  0.7546771E-02  0.1260894E+00
         -1   -1    0    0    0  501 -0.00000000000E+00  0.00000000000E+00  0.17803534967E+03  0.17803534967E+03  0.00000000000E+00 0.  1.
          1   -1    0    0  503    0  0.00000000000E+00 -0.00000000000E+00 -0.16921924832E+03  0.16921924832E+03  0.00000000000E+00 0. -1.
         23    2    1    2    0    0  0.42807291653E+02  0.20298869058E+02  0.73554756572E+02  0.12555338511E+03  0.90049108795E+02 0.  0.
         23    2    1    2    0    0 -0.42252361329E+02 -0.24050799368E+02 -0.94433139535E+02  0.14058234078E+03  0.92098174293E+02 0.  0.
        -11    1    3    3    0    0  0.13981664344E+02  0.44984137913E+02  0.52302265615E+01  0.47396359264E+02  0.00000000000E+00 0. -1.
         11    1    3    3    0    0  0.28825627310E+02 -0.24685268854E+02  0.68324530011E+02  0.78157025848E+02  0.00000000000E+00 0.  1.
        -11    1    4    4    0    0 -0.64683743182E+02 -0.40150260598E+02 -0.74580031072E+02  0.10657490836E+03  0.00000000000E+00 0. -1.
         11    1    4    4    0    0  0.22431381853E+02  0.16099461230E+02 -0.19853108463E+02  0.34007432414E+02  0.00000000000E+00 0.  1.
         21    1    1    2  502  501  0.23790012203E+02  0.44872291545E+01  0.45879799832E+02  0.51875388565E+02  0.00000000000E+00 0. -1.
         21    1    1    2  503  502 -0.24344942528E+02 -0.73529884525E+00 -0.16185315521E+02  0.29243483541E+02  0.00000000000E+00 0.  1.
<scales pt_clust_5="13000.00000" pt_clust_6="13000.00000" pt_clust_7="13000.00000" pt_clust_8="13000.00000" pt_clust_9="24.20950" pt_clust_10="23.14791"></scales>
<clustering>
<clus scale="   24.210">  1  9  2 -1</clus>
<clus scale="   23.148">  2 10  1 -1</clus>
<clus scale="   90.049">  5  6 -1 -1</clus>
<clus scale="   92.098">  7  8 -1 -1</clus>
<clus scale="  108.548">  1  5  2 -1</clus>
<clus scale="   23.148">  2  5  1 -1</clus>
</clustering>
</event>
<event>
10    2  0.1133532E-006  0.1006460E+03  0.7546771E-02  0.1279449E+00
          2   -1    0    0  503    0  0.00000000000E+00  0.00000000000E+00  0.34408083198E+03  0.34408083198E+03  0.00000000000E+00 0. -1.
         -2   -1    0    0    0  501 -0.00000000000E+00 -0.00000000000E+00 -0.75519234065E+02  0.75519234065E+02  0.00000000000E+00 0.  1.
         23    2    1    2    0    0  0.11942973994E+02 -0.65315105829E+02  0.66736920195E+02  0.13123724750E+03  0.91436868588E+02 0.  0.
         23    2    1    2    0    0 -0.26255424501E+02  0.22148152887E+02  0.13698384537E+03  0.16766595840E+03  0.90373733592E+02 0.  0.
        -13    1    3    3    0    0 -0.39587124876E+02 -0.22848493814E+02  0.33354486865E+02  0.56583707192E+02  0.00000000000E+00 0.  1.
         13    1    3    3    0    0  0.51530098870E+02 -0.42466612015E+02  0.33382433330E+02  0.74653540309E+02  0.00000000000E+00 0. -1.
        -13    1    4    4    0    0 -0.22974911527E+02  0.55017157030E+02  0.63522592466E+02  0.87119767453E+02  0.00000000000E+00 0.  1.
         13    1    4    4    0    0 -0.32805129732E+01 -0.32869004143E+02  0.73461252901E+02  0.80546190950E+02  0.00000000000E+00 0. -1.
         21    1    1    2  502  501 -0.24502904405E+02 -0.13288135774E+02  0.23609812203E+01  0.27973936243E+02  0.00000000000E+00 0.  1.
         21    1    1    2  503  502  0.38815354911E+02  0.56455088716E+02  0.62479851136E+02  0.92722923901E+02  0.00000000000E+00 0.  1.
<scales pt_clust_5="13000.00000" pt_clust_6="13000.00000" pt_clust_7="13000.00000" pt_clust_8="13000.00000" pt_clust_9="27.87413" pt_clust_10="62.59831"></scales>
<clustering>
<clus scale="   27.874">  2  9  1 -1</clus>
<clus scale="   62.598">  2 10  1 -1</clus>
<clus scale="   90.374">  7  8 -1 -1</clus>
<clus scale="   91.437">  5  6 -1 -1</clus>
<clus scale="   99.681">  1  7  2 -1</clus>
<clus scale="   99.681">  1  5  2 -1</clus>
</clustering>
</event>
<event>
10    2  0.1133532E-006  0.1171348E+03  0.7546771E-02  0.1248365E+00
          2   -1    0    0  503    0  0.00000000000E+00  0.00000000000E+00  0.55143357045E+03  0.55143357045E+03  0.00000000000E+00 0. -1.
         -2   -1    0    0    0  501 -0.00000000000E+00 -0.00000000000E+00 -0.56349190547E+02  0.56349190547E+02  0.00000000000E+00 0.  1.
         23    2    1    2    0    0  0.97791821723E+01  0.66284996231E+02  0.91394394607E+02  0.14587224038E+03  0.91850106256E+02 0.  0.
         23    2    1    2    0    0 -0.87564552456E+01 -0.55248275983E+02  0.23769054038E+03  0.26137271847E+03  0.93219405003E+02 0.  0.
        -11    1    4    4    0    0  0.20144218111E+02 -0.68907656470E+02  0.19669740018E+03  0.20938940251E+03  0.00000000000E+00 0. -1.
         11    1    4    4    0    0 -0.28900673357E+02  0.13659380487E+02  0.40993140197E+02  0.51983315968E+02  0.00000000000E+00 0.  1.
        -11    1    3    3    0    0  0.49823350190E+02  0.47566834365E+02  0.62898804120E+02  0.93280381192E+02  0.00000000000E+00 0. -1.
         11    1    3    3    0    0 -0.40044168018E+02  0.18718161867E+02  0.28495590487E+02  0.52591859190E+02  0.00000000000E+00 0.  1.
         21    1    1    2  502  501 -0.28582590821E+02  0.42436998337E+02  0.61927207584E+02  0.80329585864E+02  0.00000000000E+00 0.  1.
         21    1    1    2  503  502  0.27559863894E+02 -0.53473718585E+02  0.10407223733E+03  0.12020821628E+03  0.00000000000E+00 0. -1.
<scales pt_clust_5="13000.00000" pt_clust_6="13000.00000" pt_clust_7="13000.00000" pt_clust_8="13000.00000" pt_clust_9="51.16506" pt_clust_10="51.47244"></scales>
<clustering>
<clus scale="   51.165">  2  9  1 -1</clus>
<clus scale="   51.472">  1 10  2 -1</clus>
<clus scale="   91.850">  7  8 -1 -1</clus>
<clus scale="   93.219">  5  6 -1 -1</clus>
<clus scale="  116.048">  2  7  1 -1</clus>
<clus scale="   51.472">  1  5  2 -1</clus>
</clustering>
</event>
<event>
10    2  0.1133532E-006  0.1683864E+03  0.7546771E-02  0.1180770E+00
          2   -1    0    0  503    0  0.00000000000E+00  0.00000000000E+00  0.64016307863E+03  0.64016307863E+03  0.00000000000E+00 0. -1.
         -2   -1    0    0    0  501 -0.00000000000E+00 -0.00000000000E+00 -0.13436822363E+03  0.13436822363E+03  0.00000000000E+00 0.  1.
         23    2    1    2    0    0 -0.29822431595E+02 -0.12563779139E+03 -0.89927535886E+01  0.15763825966E+03  0.89970657657E+02 0.  0.
         23    2    1    2    0    0 -0.20022739055E+02  0.10531685455E+03  0.42645467572E+03  0.45052655083E+03  0.98071568875E+02 0.  0.
        -11    1    3    3    0    0 -0.23864687870E+02 -0.99841282307E+02 -0.45710246128E+02  0.11237095524E+03  0.00000000000E+00 0.  1.
         11    1    3    3    0    0 -0.59577437252E+01 -0.25796509085E+02  0.36717492539E+02  0.45267304422E+02  0.00000000000E+00 0. -1.
        -13    1    4    4    0    0 -0.34121694565E+02 -0.43258956964E+01  0.88352404982E+02  0.94811132678E+02  0.00000000000E+00 0.  1.
         13    1    4    4    0    0  0.14098955510E+02  0.10964275024E+03  0.33810227074E+03  0.35571541815E+03  0.00000000000E+00 0. -1.
         21    1    1    2  502  501  0.16304026142E+02 -0.22175154890E+02 -0.27250916266E+02  0.38732043584E+02  0.00000000000E+00 0.  1.
         21    1    1    2  503  502  0.33541144508E+02  0.42496091733E+02  0.11558384912E+03  0.12763444819E+03  0.00000000000E+00 0. -1.
<scales pt_clust_5="13000.00000" pt_clust_6="13000.00000" pt_clust_7="13000.00000" pt_clust_8="13000.00000" pt_clust_9="27.52379" pt_clust_10="53.72699"></scales>
<clustering>
<clus scale="   27.524">  2  9  1 -1</clus>
<clus scale="   53.727">  1 10  2 -1</clus>
<clus scale="   89.971">  5  6 -1 -1</clus>
<clus scale="   98.072">  7  8 -1 -1</clus>
<clus scale="  163.801">  2  5  1 -1</clus>
<clus scale="   53.727">  1  5  2 -1</clus>
</clustering>
</event>
<event>
10    2  0.1133532E-006  0.1615360E+03  0.7546771E-02  0.1187002E+00
         -1   -1    0    0    0  501 -0.00000000000E+00  0.00000000000E+00  0.19288491564E+03  0.19288491564E+03  0.00000000000E+00 0.  1.
          1   -1    0    0  503    0  0.00000000000E+00 -0.00000000000E+00 -0.39183696903E+03  0.39183696903E+03  0.00000000000E+00 0. -1.
         23    2    1    2    0    0  0.71504619087E+02 -0.94033204325E+02  0.41909886283E+02  0.15616800970E+03  0.93149635630E+02 0.  0.
         23    2    1    2    0    0 -0.72184706648E+02  0.10210068740E+03 -0.16692031062E+03  0.22848873622E+03  0.93324864000E+02 0.  0.
        -11    1    3    3    0    0  0.22834532388E+02 -0.42249326687E+02  0.65561740765E+02  0.81269695010E+02  0.00000000000E+00 0.  1.
         11    1    3    3    0    0  0.48670086699E+02 -0.51783877638E+02 -0.23651854482E+02  0.74898314687E+02  0.00000000000E+00 0. -1.
        -13    1    4    4    0    0  0.13238822405E+02  0.55818722208E+02 -0.77689514695E+02  0.96574618100E+02  0.00000000000E+00 0.  1.
         13    1    4    4    0    0 -0.85423529054E+02  0.46281965190E+02 -0.89230795923E+02  0.13191411812E+03  0.00000000000E+00 0. -1.
         21    1    1    2  502  501 -0.10303269239E+02 -0.36790499496E+02  0.55300522590E+02  0.67214924004E+02  0.00000000000E+00 0. -1.
         21    1    1    2  503  502  0.10983356800E+02  0.28723016422E+02 -0.12924215164E+03  0.13285021475E+03  0.00000000000E+00 0.  1.
<scales pt_clust_5="13000.00000" pt_clust_6="13000.00000" pt_clust_7="13000.00000" pt_clust_8="13000.00000" pt_clust_9="37.50659" pt_clust_10="30.75135"></scales>
<clustering>
<clus scale="   30.751">  2 10  1 -1</clus>
<clus scale="   37.507">  1  9  2 -1</clus>
<clus scale="   93.150">  5  6 -1 -1</clus>
<clus scale="   93.325">  7  8 -1 -1</clus>
<clus scale="  161.435">  1  5  2 -1</clus>
<clus scale="   30.751">  2  5  1 -1</clus>
</clustering>
</event>
<event>
10    2  0.1133532E-006  0.1044278E+03  0.7546771E-02  0.1272591E+00
         -1   -1    0    0    0  501 -0.00000000000E+00  0.00000000000E+00  0.31605680780E+02  0.31605680780E+02  0.00000000000E+00 0.  1.
          1   -1    0    0  503    0  0.00000000000E+00 -0.00000000000E+00 -0.74162054746E+03  0.74162054746E+03  0.00000000000E+00 0. -1.
         23    2    1    2    0    0  0.11050630048E+02 -0.63586168370E+02 -0.20799161977E+03  0.23549007302E+03  0.89608835288E+02 0.  0.
         23    2    1    2    0    0 -0.76311079631E+01  0.23080099657E+02 -0.33054537897E+03  0.34413679485E+03  0.92622681905E+02 0.  0.
        -13    1    3    3    0    0  0.43694004030E+02 -0.31225240634E+02 -0.59999758784E+02  0.80524236693E+02  0.00000000000E+00 0.  1.
         13    1    3    3    0    0 -0.32643373982E+02 -0.32360927735E+02 -0.14799186099E+03  0.15496583633E+03  0.00000000000E+00 0. -1.
        -13    1    4    4    0    0  0.42134554803E+02  0.17333605287E+02 -0.14950215286E+03  0.15629033333E+03  0.00000000000E+00 0.  1.
         13    1    4    4    0    0 -0.49765662766E+02  0.57464943702E+01 -0.18104322610E+03  0.18784646152E+03  0.00000000000E+00 0. -1.
         21    1    1    2  502  501  0.21038205892E+02  0.57482125903E+01 -0.58144552844E+01  0.22571130795E+02  0.00000000000E+00 0.  1.
         21    1    1    2  503  502 -0.24457727977E+02  0.34757856123E+02 -0.16566341265E+03  0.17102822957E+03  0.00000000000E+00 0. -1.
<scales pt_clust_5="13000.00000" pt_clust_6="13000.00000" pt_clust_7="13000.00000" pt_clust_8="13000.00000" pt_clust_9="21.80936" pt_clust_10="41.71252"></scales>
<clustering>
<clus scale="   21.809">  1  9  2 -1</clus>
<clus scale="   41.713">  2 10  1 -1</clus>
<clus scale="   89.609">  5  6 -1 -1</clus>
<clus scale="   92.623">  7  8 -1 -1</clus>
<clus scale="  101.764">  1  5  2 -1</clus>
<clus scale="   41.713">  2  5  1 -1</clus>
</clustering>
</event>
<event>
10    2  0.1133532E-006  0.1976497E+03  0.7546771E-02  0.1151903E+00
          1   -1    0    0  503    0  0.00000000000E+00  0.00000000000E+00  0.12200701107E+04  0.12200701107E+04  0.00000000000E+00 0. -1.
         -1   -1    0    0    0  501 -0.00000000000E+00 -0.00000000000E+00 -0.98994857597E+02  0.98994857597E+02  0.00000000000E+00 0.  1.
         23    2    1    2    0    0  0.56825414594E+02  0.18497203323E+03  0.37580287192E+03  0.43202070124E+03  0.89276575534E+02 0.  0.
         23    2    1    2    0    0 -0.16362182982E+03 -0.10230203881E+03  0.35366328364E+03  0.41302719638E+03  0.90972173826E+02 0.  0.
        -11    1    3    3    0    0  0.63285050761E+02  0.93840552775E+02  0.26666046769E+03  0.28968750754E+03  0.00000000000E+00 0. -1.
         11    1    3    3    0    0 -0.64596361678E+01  0.91131480453E+02  0.10914240422E+03  0.14233319370E+03  0.00000000000E+00 0.  1.
        -13    1    4    4    0    0 -0.88408811080E+02 -0.85034835154E+01  0.19208968431E+03  0.21162909518E+03  0.00000000000E+00 0. -1.
         13    1    4    4    0    0 -0.75213018744E+02 -0.93798555298E+02  0.16157359933E+03  0.20139810119E+03  0.00000000000E+00 0.  1.
         21    1    1    2  502  501  0.35033443295E+02 -0.12566619776E+03  0.83828304867E+02  0.15506940415E+03  0.00000000000E+00 0.  1.
         21    1    1    2  503  502  0.71762971934E+02  0.42996203340E+02  0.30778079269E+03  0.31894766654E+03  0.00000000000E+00 0. -1.
<scales pt_clust_5="13000.00000" pt_clust_6="13000.00000" pt_clust_7="13000.00000" pt_clust_8="13000.00000" pt_clust_9="127.98277" pt_clust_10="83.65762"></scales>
<clustering>
<clus scale="   83.658">  1 10  2 -1</clus>
<clus scale="   89.277">  5  6 -1 -1</clus>
<clus scale="   90.972">  7  8 -1 -1</clus>
<clus scale="  127.983">  2  9  1 -1</clus>
<clus scale="  196.875">  2  5  1 -1</clus>
<clus scale="   83.658">  1  5  2 -1</clus>
</clustering>
</event>
<event>
10    2  0.1133532E-006  0.1021427E+03  0.7546771E-02  0.1276343E+00
          2   -1    0    0  503    0  0.00000000000E+00  0.00000000000E+00  0.79926233695E+03  0.79926233695E+03  0.00000000000E+00 0. -1.
         -2   -1    0    0    0  501 -0.00000000000E+00 -0.00000000000E+00 -0.71159349637E+02  0.71159349637E+02  0.00000000000E+00 0.  1.
         23    2    1    2    0    0 -0.32683377036E+02  0.35658472753E+02  0.15316721006E+03  0.18424953360E+03  0.90266087648E+02 0.  0.
         23    2    1    2    0    0  0.42547586408E+02  0.51869508375E+01  0.55749437135E+03  0.56654996394E+03  0.91332830791E+02 0.  0.
        -11    1    3    3    0    0 -0.55455468551E+02  0.47169282173E+02  0.87668302743E+02  0.11395605065E+03  0.00000000000E+00 0. -1.
         11    1    3    3    0    0  0.22772091515E+02 -0.11510809420E+02  0.65498907322E+02  0.70293482954E+02  0.00000000000E+00 0.  1.
        -11    1    4    4    0    0  0.16699954600E+02 -0.42976091643E+02  0.24120180727E+03  0.24556902240E+03  0.00000000000E+00 0.  1.
         11    1    4    4    0    0  0.25847631808E+02  0.48163042480E+02  0.31629256409E+03  0.32098094154E+03  0.00000000000E+00 0. -1.
         21    1    1    2  502  501 -0.16088079987E+02 -0.20357291053E+02 -0.45918239316E+02  0.52742111435E+02  0.00000000000E+00 0.  1.
         21    1    1    2  503  502  0.62238706150E+01 -0.20488132537E+02  0.63359645213E+02  0.66880077615E+02  0.00000000000E+00 0.  1.
<scales pt_clust_5="13000.00000" pt_clust_6="13000.00000" pt_clust_7="13000.00000" pt_clust_8="13000.00000" pt_clust_9="26.00388" pt_clust_10="21.41262"></scales>
<clustering>
<clus scale="   21.413">  1 10  2 -1</clus>
<clus scale="   26.004">  2  9  1 -1</clus>
<clus scale="   90.266">  5  6 -1 -1</clus>
<clus scale="   91.333">  7  8 -1 -1</clus>
<clus scale="  101.190">  2  5  1 -1</clus>
<clus scale="   21.413">  1  5  2 -1</clus>
</clustering>
</event>
<event>
10    2  0.1133532E-006  0.1961616E+03  0.7546771E-02  0.1153068E+00
          1   -1    0    0  503    0  0.00000000000E+00  0.00000000000E+00  0.52093794159E+03  0.52093794159E+03  0.00000000000E+00 0. -1.
         -1   -1    0    0    0  501 -0.00000000000E+00 -0.00000000000E+00 -0.60633240618E+03  0.60633240618E+03  0.00000000000E+00 0.  1.
         23    2    1    2    0    0 -0.13693035225E+03  0.16412831880E+03 -0.47579189828E+03  0.52973974873E+03  0.92510780554E+02 0.  0.
         23    2    1    2    0    0  0.57741081181E+02 -0.72213765952E+02  0.55080634287E+02  0.14223363020E+03  0.92992842945E+02 0.  0.
        -11    1    4    4    0    0  0.65725067436E+02 -0.18241178885E+02  0.55083168442E+02  0.87673716371E+02  0.00000000000E+00 0. -1.
         11    1    4    4    0    0 -0.79839862549E+01 -0.53972587067E+02 -0.25341556154E-02  0.54559913834E+02  0.00000000000E+00 0.  1.
        -11    1    3    3    0    0  0.39805412188E+01  0.29916762281E+02 -0.12494992109E+03  0.12854314510E+03  0.00000000000E+00 0. -1.
         11    1    3    3    0    0 -0.14091089347E+03  0.13421155652E+03 -0.35084197720E+03  0.40119660363E+03  0.00000000000E+00 0.  1.
         21    1    1    2  502  501  0.26618582150E+02 -0.85156525282E+01 -0.50156198584E+02  0.57416979283E+02  0.00000000000E+00 0.  1.
         21    1    1    2  503  502  0.52570688923E+02 -0.83398900319E+02  0.38547299799E+03  0.39787998955E+03  0.00000000000E+00 0. -1.
<scales pt_clust_5="13000.00000" pt_clust_6="13000.00000" pt_clust_7="13000.00000" pt_clust_8="13000.00000" pt_clust_9="27.94754" pt_clust_10="98.82571"></scales>
<clustering>
<clus scale="   27.948">  2  9  1 -1</clus>
<clus scale="   92.511">  7  8 -1 -1</clus>
<clus scale="   92.993">  5  6 -1 -1</clus>
<clus scale="   98.826">  1 10  2 -1</clus>
<clus scale="  195.934">  2  7  1 -1</clus>
<clus scale="   98.826">  1  5  2 -1</clus>
</clustering>
</event>
<event>
10    2  0.1133532E-006  0.9288452E+02  0.7546771E-02  0.1296301E+00
          2   -1    0    0  503    0  0.00000000000E+00  0.00000000000E+00  0.20139822691E+03  0.20139822691E+03  0.00000000000E+00 0. -1.
         -2   -1    0    0    0  501 -0.00000000000E+00 -0.00000000000E+00 -0.10042521775E+03  0.10042521775E+03  0.00000000000E+00 0.  1.
         23    2    1    2    0    0  0.19320510060E+02 -0.15326398185E+02 -0.16081462080E+01  0.95142047687E+02  0.91876234759E+02 0.  0.
         23    2    1    2    0    0 -0.59862308288E+01 -0.19541674874E+01  0.10095941836E+03  0.13698703417E+03  0.92374182774E+02 0.  0.
        -11    1    4    4    0    0 -0.46495864725E+02  0.75969052632E+01  0.33823474499E+02  0.57996601912E+02  0.00000000000E+00 0.  1.
         11    1    4    4    0    0  0.40509633897E+02 -0.95510727507E+01  0.67135943865E+02  0.78990432255E+02  0.00000000000E+00 0. -1.
        -13    1    3    3    0    0 -0.30553478529E+02 -0.29248824958E+02 -0.77414872626E+01  0.42999295770E+02  0.00000000000E+00 0.  1.
         13    1    3    3    0    0  0.49873988590E+02  0.13922426772E+02  0.61333410546E+01  0.52142751918E+02  0.00000000000E+00 0. -1.
         21    1    1    2  502  501 -0.32111996717E+02  0.19804515465E+01 -0.19445181142E+02  0.37592786424E+02  0.00000000000E+00 0.  1.
         21    1    1    2  503  502  0.18777717486E+02  0.15300114126E+02  0.21066918147E+02  0.32101576386E+02  0.00000000000E+00 0. -1.
<scales pt_clust_5="13000.00000" pt_clust_6="13000.00000" pt_clust_7="13000.00000" pt_clust_8="13000.00000" pt_clust_9="31.26071" pt_clust_10="24.22181"></scales>
<clustering>
<clus scale="   24.222">  1 10  2 -1</clus>
<clus scale="   31.261">  2  9  1 -1</clus>
<clus scale="   91.876">  7  8 -1 -1</clus>
<clus scale="   92.374">  5  6 -1 -1</clus>
<clus scale="   92.389">  2  7  1 -1</clus>
<clus scale="   24.222">  1  5  2 -1</clus>
</clustering>
</event>
<event>
10    2  0.1133532E-006  0.1174211E+03  0.7546771E-02  0.1247779E+00
          2   -1    0    0  503    0  0.00000000000E+00  0.00000000000E+00  0.22875629970E+03  0.22875629970E+03  0.00000000000E+00 0. -1.
         -2   -1    0    0    0  501 -0.00000000000E+00 -0.00000000000E+00 -0.16224888916E+03  0.16224888916E+03  0.00000000000E+00 0.  1.
         23    2    1    2    0    0  0.33578207368E+02 -0.55278065353E+02 -0.15095132418E+02  0.11275623914E+03  0.91120502215E+02 0.  0.
         23    2    1    2    0    0  0.17967468522E+02  0.79232199635E+02  0.12969969665E+03  0.17867937712E+03  0.92215709694E+02 0.  0.
        -11    1    3    3    0    0 -0.22761032499E+02 -0.47933804333E+02 -0.17541864433E+02  0.55887665957E+02  0.00000000000E+00 0. -1.
         11    1    3    3    0    0  0.56339239868E+02 -0.73442610197E+01  0.24467320141E+01  0.56868573187E+02  0.00000000000E+00 0.  1.
        -13    1    4    4    0    0  0.33759507347E+02  0.52396163224E+02  0.21257766735E+02  0.65855560915E+02  0.00000000000E+00 0.  1.
         13    1    4    4    0    0 -0.15792038825E+02  0.26836036411E+02  0.10844192991E+03  0.11282381621E+03  0.00000000000E+00 0. -1.
         21    1    1    2  502  501 -0.34325098259E+02  0.11261786441E+02 -0.48365559285E+02  0.60367768961E+02  0.00000000000E+00 0. -1.
         21    1    1    2  503  502 -0.17220577631E+02 -0.35215920722E+02  0.26840559813E+00  0.39201803630E+02  0.00000000000E+00 0. -1.
<scales pt_clust_5="13000.00000" pt_clust_6="13000.00000" pt_clust_7="13000.00000" pt_clust_8="13000.00000" pt_clust_9="36.12534" pt_clust_10="40.61275"></scales>
<clustering>
<clus scale="   36.125">  2  9  1 -1</clus>
<clus scale="   40.613">  2 10  1 -1</clus>
<clus scale="   91.121">  5  6 -1 -1</clus>
<clus scale="   92.216">  7  8 -1 -1</clus>
<clus scale="  116.563">  2  5  1 -1</clus>
<clus scale="  117.421">  1  5  2 -1</clus>
</clustering>
</event>
<event>
10    2  0.1133532E-006  0.1046951E+03  0.7546771E-02  0.1271312E+00
          1   -1    0    0  503    0  0.00000000000E+00  0.00000000000E+00  0.16543360425E+03  0.16543360425E+03  0.00000000000E+00 0. -1.
         -1   -1    0    0    0  501 -0.00000000000E+00 -0.00000000000E+00 -0.13469081338E+03  0.13469081338E+03  0.00000000000E+00 0.  1.
         23    2    1    2    0    0 -0.70156313336E+02  0.14201298555E+02  0.22004597057E+02  0.11829445921E+03  0.91573967959E+02 0.  0.
         23    2    1    2    0    0  0.30155925395E+02 -0.12062313552E+02  0.25525607554E+02  0.99223236140E+02  0.90215379534E+02 0.  0.
        -11    1    4    4    0    0  0.51716216441E+02 -0.20194352689E+01 -0.13530327990E+02  0.53494999180E+02  0.00000000000E+00 0.  1.
         11    1    4    4    0    0 -0.21560291046E+02 -0.10042878283E+02  0.39055935544E+02  0.45728236960E+02  0.00000000000E+00 0. -1.
        -13    1    3    3    0    0  0.71382341256E+01 -0.24805308663E+02  0.18290836511E+02  0.31635619554E+02  0.00000000000E+00 0.  1.
         13    1    3    3    0    0 -0.77294547461E+02  0.39006607219E+02  0.37137605466E+01  0.86658839661E+02  0.00000000000E+00 0. -1.
         21    1    1    2  502  501  0.26528881086E+02  0.13263351894E+02 -0.41191784440E+02  0.50758852829E+02  0.00000000000E+00 0.  1.
         21    1    1    2  503  502  0.13471506854E+02 -0.15402336898E+02  0.24404370697E+02  0.31847869441E+02  0.00000000000E+00 0. -1.
<scales pt_clust_5="13000.00000" pt_clust_6="13000.00000" pt_clust_7="13000.00000" pt_clust_8="13000.00000" pt_clust_9="29.84750" pt_clust_10="20.46249"></scales>
<clustering>
<clus scale="   20.462">  1 10  2 -1</clus>
<clus scale="   29.848">  2  9  1 -1</clus>
<clus scale="   90.215">  5  6 -1 -1</clus>
<clus scale="   91.574">  7  8 -1 -1</clus>
<clus scale="  103.509">  1  5  2 -1</clus>
<clus scale="   20.462">  1  5  2 -1</clus>
</clustering>
</event>
<event>
10    2  0.1133532E-006  0.1554134E+03  0.7546771E-02  0.1194335E+00
          2   -1    0    0  503    0  0.00000000000E+00  0.00000000000E+00  0.11146510834E+04  0.11146510834E+04  0.00000000000E+00 0. -1.
         -2   -1    0    0    0  501 -0.00000000000E+00 -0.00000000000E+00 -0.37587636669E+02  0.37587636669E+02  0.00000000000E+00 0.  1.
         23    2    1    2    0    0  0.12746010261E+03 -0.34183227188E+02  0.32527628462E+03  0.36253183118E+03  0.90609582837E+02 0.  0.
         23    2    1    2    0    0 -0.11310441697E+03  0.15192258315E+02  0.41319508237E+03  0.43856926226E+03  0.92679058324E+02 0.  0.
        -13    1    4    4    0    0 -0.40824106924E+02  0.41108867041E+02  0.95271735279E+02  0.11150448511E+03  0.00000000000E+00 0.  1.
         13    1    4    4    0    0 -0.72280310044E+02 -0.25916608726E+02  0.31792334710E+03  0.32706477716E+03  0.00000000000E+00 0. -1.
        -13    1    3    3    0    0  0.72807559283E+02  0.23335154925E+02  0.11816068475E+03  0.14073882750E+03  0.00000000000E+00 0. -1.
         13    1    3    3    0    0  0.54652543332E+02 -0.57518382113E+02  0.20711559987E+03  0.22179300368E+03  0.00000000000E+00 0.  1.
         21    1    1    2  502  501  0.20229103409E+02 -0.54133199663E+01  0.17565518706E+02  0.27332546628E+02  0.00000000000E+00 0.  1.
         21    1    1    2  503  502 -0.34584789055E+02  0.24404288839E+02  0.32102656107E+03  0.32380508004E+03  0.00000000000E+00 0. -1.
<scales pt_clust_5="13000.00000" pt_clust_6="13000.00000" pt_clust_7="13000.00000" pt_clust_8="13000.00000" pt_clust_9="20.94088" pt_clust_10="41.49464"></scales>
<clustering>
<clus scale="   20.941">  2  9  1 -1</clus>
<clus scale="   41.495">  1 10  2 -1</clus>
<clus scale="   90.610">  7  8 -1 -1</clus>
<clus scale="   92.679">  5  6 -1 -1</clus>
<clus scale="  154.188">  2  7  1 -1</clus>
<clus scale="   41.495">  1  5  2 -1</clus>
</clustering>
</event>
<event>
10    2  0.1133532E-006  0.1332769E+03  0.7546771E-02  0.1224590E+00
          1   -1    0    0  503    0  0.00000000000E+00  0.00000000000E+00  0.60758138079E+03  0.60758138079E+03  0.00000000000E+00 0. -1.
         -1   -1    0    0    0  501 -0.00000000000E+00 -0.00000000000E+00 -0.15577962591E+03  0.15577962591E+03  0.00000000000E+00 0.  1.
         23    2    1    2    0    0 -0.52536855584E+02 -0.52756081315E+02  0.25160936817E+02  0.11892895924E+03  0.89261970032E+02 0.  0.
         23    2    1    2    0    0  0.13046567106E+03  0.10143002497E+03  0.24663002840E+03  0.30779440447E+03  0.81250742922E+02 0.  0.
        -11    1    4    4    0    0  0.13519654350E+03  0.74138637304E+02  0.18950800874E+03  0.24431113011E+03  0.00000000000E+00 0.  1.
         11    1    4    4    0    0 -0.47308724374E+01  0.27291387670E+02  0.57122019656E+02  0.63483274369E+02  0.00000000000E+00 0. -1.
        -13    1    3    3    0    0 -0.32283829508E+02  0.88670121239E+01  0.40227109262E+02  0.52336315034E+02  0.00000000000E+00 0.  1.
         13    1    3    3    0    0 -0.20253026076E+02 -0.61623093439E+02 -0.15066172445E+02  0.66592644206E+02  0.00000000000E+00 0. -1.
         21    1    1    2  502  501 -0.26290605499E+02  0.15446879153E+02 -0.68427126858E+02  0.74913775123E+02  0.00000000000E+00 0.  1.
         21    1    1    2  503  502 -0.51638209980E+02 -0.64120822813E+02  0.24843791652E+03  0.26172386787E+03  0.00000000000E+00 0. -1.
<scales pt_clust_5="13000.00000" pt_clust_6="13000.00000" pt_clust_7="13000.00000" pt_clust_8="13000.00000" pt_clust_9="30.49266" pt_clust_10="82.71504"></scales>
<clustering>
<clus scale="   30.493">  2  9  1 -1</clus>
<clus scale="   81.251">  5  6 -1 -1</clus>
<clus scale="   82.715">  1 10  2 -1</clus>
<clus scale="   89.262">  7  8 -1 -1</clus>
<clus scale="  128.050">  1  5  2 -1</clus>
<clus scale="   82.715">  1  5  2 -1</clus>
</clustering>
</event>
<event>
10    2  0.1133532E-006  0.4183775E+03  0.7546771E-02  0.1037614E+00
          2   -1    0    0  502    0  0.00000000000E+00  0.00000000000E+00  0.12410526289E+04  0.12410526289E+04  0.00000000000E+00 0. -1.
         -2   -1    0    0    0  501 -0.00000000000E+00 -0.00000000000E+00 -0.35536158006E+03  0.35536158006E+03  0.00000000000E+00 0.  1.
         23    2    1    2    0    0 -0.74274597627E+02  0.35270008443E+03  0.12047877755E+03  0.39058221718E+03  0.90140263655E+02 0.  0.
         23    2    1    2    0    0  0.14009484909E+02 -0.42795019563E+03  0.89275304410E+03  0.99412681439E+03  0.89120647086E+02 0.  0.
        -11    1    4    4    0    0  0.39706796578E+01 -0.20615114826E+03  0.32952697147E+03  0.38871851918E+03  0.00000000000E+00 0. -1.
         11    1    4    4    0    0  0.10038805251E+02 -0.22179904738E+03  0.56322607262E+03  0.60540829521E+03  0.00000000000E+00 0.  1.
        -13    1    3    3    0    0 -0.94939489093E+02  0.29564520177E+03  0.94531648136E+02  0.32458561955E+03  0.00000000000E+00 0.  1.
         13    1    3    3    0    0  0.20664891466E+02  0.57054882658E+02  0.25947129418E+02  0.65996597636E+02  0.00000000000E+00 0. -1.
         21    1    1    2  502  503  0.59347138243E+02  0.29690111372E+02 -0.14766469602E+03  0.16189023436E+03  0.00000000000E+00 0.  1.
         21    1    1    2  503  501  0.91797447454E+00  0.45559999834E+02  0.20123923184E+02  0.49814943003E+02  0.00000000000E+00 0.  1.
<scales pt_clust_5="13000.00000" pt_clust_6="13000.00000" pt_clust_7="13000.00000" pt_clust_8="13000.00000" pt_clust_9="78.17818" pt_clust_10="45.56925"></scales>
<clustering>
<clus scale="   45.569">  2 10  1 -1</clus>
<clus scale="   78.178">  2  9  1 -1</clus>
<clus scale="   89.121">  5  6 -1 -1</clus>
<clus scale="   90.140">  7  8 -1 -1</clus>
<clus scale="  418.159">  1  5  2 -1</clus>
<clus scale="  418.159">  1  5  2 -1</clus>
</clustering>
</event>
<event>
10    2  0.1133532E-006  0.2839308E+03  0.7546771E-02  0.1093570E+00
         -2   -1    0    0    0  501 -0.00000000000E+00  0.00000000000E+00  0.54094948498E+02  0.54094948498E+02  0.00000000000E+00 0.  1.
          2   -1    0    0  503    0  0.00000000000E+00 -0.00000000000E+00 -0.21227307999E+04  0.21227307999E+04  0.00000000000E+00 0. -1.
         23    2    1    2    0    0  0.28585176444E+02 -0.28862113224E+03 -0.83208925985E+03  0.88586504273E+03  0.90912415457E+02 0.  0.
         23    2    1    2    0    0  0.24696133351E+02  0.24643650439E+03 -0.10634726470E+04  0.10957268964E+04  0.91118115215E+02 0.  0.
        -11    1    4    4    0    0  0.26928967697E+02  0.14036557014E+02 -0.93902758505E+02  0.98691044623E+02  0.00000000000E+00 0.  1.
         11    1    4    4    0    0 -0.22328343457E+01  0.23239994738E+03 -0.96956988850E+03  0.99703585180E+03  0.00000000000E+00 0. -1.
        -13    1    3    3    0    0  0.30407595731E+02 -0.14604694343E+03 -0.54882571992E+03  0.56873895806E+03  0.00000000000E+00 0. -1.
         13    1    3    3    0    0 -0.18224192867E+01 -0.14257418881E+03 -0.28326353993E+03  0.31712608467E+03  0.00000000000E+00 0.  1.
         21    1    1    2  502  501 -0.19714068318E+02  0.85096527055E+01 -0.71497051526E+01  0.22631327018E+02  0.00000000000E+00 0. -1.
         21    1    1    2  503  502 -0.33567241477E+02  0.33674975149E+02 -0.16592423936E+03  0.17260248219E+03  0.00000000000E+00 0. -1.
<scales pt_clust_5="13000.00000" pt_clust_6="13000.00000" pt_clust_7="13000.00000" pt_clust_8="13000.00000" pt_clust_9="21.47228" pt_clust_10="48.98754"></scales>
<clustering>
<clus scale="   21.472">  1  9  2 -1</clus>
<clus scale="   48.988">  2 10  1 -1</clus>
<clus scale="   90.912">  7  8 -1 -1</clus>
<clus scale="   91.118">  5  6 -1 -1</clus>
<clus scale="  283.865">  1  7  2 -1</clus>
<clus scale="   48.988">  2  5  1 -1</clus>
</clustering>
</event>
<event>
10    2  0.1133532E-006  0.1019880E+03  0.7546771E-02  0.1277905E+00
          1   -1    0    0  503    0  0.00000000000E+00  0.00000000000E+00  0.77091268646E+02  0.77091268646E+02  0.00000000000E+00 0. -1.
         -1   -1    0    0    0  501 -0.00000000000E+00 -0.00000000000E+00 -0.43156182263E+03  0.43156182263E+03  0.00000000000E+00 0.  1.
         23    2    1    2    0    0  0.15337840895E+02 -0.86589083502E+01 -0.27920865156E+03  0.29351841601E+03  0.88799568555E+02 0.  0.
         23    2    1    2    0    0 -0.54724307801E+02  0.11918386683E+02 -0.11800516939E+01  0.10812601303E+03  0.92482670622E+02 0.  0.
        -11    1    4    4    0    0 -0.23975449240E+02  0.47198294838E+02  0.20216495344E+02  0.56667520555E+02  0.00000000000E+00 0. -1.
         11    1    4    4    0    0 -0.30748858561E+02 -0.35279908155E+02 -0.21396547037E+02  0.51458492470E+02  0.00000000000E+00 0.  1.
        -11    1    3    3    0    0  0.37706361097E+02  0.24853638259E+02 -0.98304482341E+02  0.10818153378E+03  0.00000000000E+00 0.  1.
         11    1    3    3    0    0 -0.22368520203E+02 -0.33512546609E+02 -0.18090416922E+03  0.18533688223E+03  0.00000000000E+00 0. -1.
         21    1    1    2  502  501  0.21519949436E+02 -0.22112667243E+02 -0.74915618265E+02  0.81021158572E+02  0.00000000000E+00 0.  1.
         21    1    1    2  503  502  0.17866517470E+02  0.18853188910E+02  0.83376753117E+00  0.25987503668E+02  0.00000000000E+00 0.  1.
<scales pt_clust_5="13000.00000" pt_clust_6="13000.00000" pt_clust_7="13000.00000" pt_clust_8="13000.00000" pt_clust_9="30.83053" pt_clust_10="25.97413"></scales>
<clustering>
<clus scale="   25.974">  1 10  2 -1</clus>
<clus scale="   30.831">  2  9  1 -1</clus>
<clus scale="   88.800">  7  8 -1 -1</clus>
<clus scale="   92.483">  5  6 -1 -1</clus>
<clus scale="   98.660">  2  7  1 -1</clus>
<clus scale="   25.974">  1  5  2 -1</clus>
</clustering>
</event>
<event>
10    2  0.1133532E-006  0.2016892E+03  0.7546771E-02  0.1148416E+00
         -2   -1    0    0    0  501 -0.00000000000E+00  0.00000000000E+00  0.64224787465E+02  0.64224787465E+02  0.00000000000E+00 0.  1.
          2   -1    0    0  503    0  0.00000000000E+00 -0.00000000000E+00 -0.12749305567E+04  0.12749305567E+04  0.00000000000E+00 0. -1.
         23    2    1    2    0    0 -0.12530733031E+03 -0.12595228197E+03 -0.27177955879E+03  0.33739702034E+03  0.91688147503E+02 0.  0.
         23    2    1    2    0    0  0.16073495700E+03  0.12462955106E+03 -0.57014073899E+03  0.61208895373E+03  0.90687229681E+02 0.  0.
        -11    1    4    4    0    0  0.34614755004E+02 -0.82086893959E+01 -0.56528083243E+02  0.66790628390E+02  0.00000000000E+00 0.  1.
         11    1    4    4    0    0  0.12612020199E+03  0.13283824045E+03 -0.51361265575E+03  0.54529832534E+03  0.00000000000E+00 0. -1.
        -13    1    3    3    0    0 -0.70716672577E+02 -0.10656712302E+03 -0.12178382803E+03  0.17660322834E+03  0.00000000000E+00 0.  1.
         13    1    3    3    0    0 -0.54590657733E+02 -0.19385158952E+02 -0.14999573076E+03  0.16079379200E+03  0.00000000000E+00 0. -1.
         21    1    1    2  502  501 -0.91455701799E+01  0.44750187529E+02 -0.53595415215E+02  0.70417961273E+02  0.00000000000E+00 0. -1.
         21    1    1    2  503  502 -0.26282056507E+02 -0.43427456612E+02 -0.31519005624E+03  0.31925140882E+03  0.00000000000E+00 0.  1.
<scales pt_clust_5="13000.00000" pt_clust_6="13000.00000" pt_clust_7="13000.00000" pt_clust_8="13000.00000" pt_clust_9="45.67517" pt_clust_10="49.55330"></scales>
<clustering>
<clus scale="   45.675">  1  9  2 -1</clus>
<clus scale="   49.553">  2 10  1 -1</clus>
<clus scale="   90.687">  5  6 -1 -1</clus>
<clus scale="   91.688">  7  8 -1 -1</clus>
<clus scale="  201.236">  2  5  1 -1</clus>
<clus scale="   49.553">  2  5  1 -1</clus>
</clustering>
</event>
<event>
10    2  0.1133532E-006  0.1080721E+03  0.7546771E-02  0.1265245E+00
          1   -1    0    0  503    0  0.00000000000E+00  0.00000000000E+00  0.78102479629E+03  0.78102479629E+03  0.00000000000E+00 0. -1.
         -1   -1    0    0    0  501 -0.00000000000E+00 -0.00000000000E+00 -0.39510995624E+02  0.39510995624E+02  0.00000000000E+00 0.  1.
         23    2    1    2    0    0  0.18954304205E+02 -0.12619586073E+02  0.18805063373E+03  0.21059888399E+03  0.92034392963E+02 0.  0.
         23    2    1    2    0    0 -0.86802790130E+02 -0.43126885678E+01  0.41962761052E+03  0.43776346765E+03  0.89421465184E+02 0.  0.
        -13    1    4    4    0    0 -0.25582462879E+01  0.32613834350E+02  0.10912153725E+03  0.11391978189E+03  0.00000000000E+00 0.  1.
         13    1    4    4    0    0 -0.84244543842E+02 -0.36926522918E+02  0.31050607328E+03  0.32384368576E+03  0.00000000000E+00 0. -1.
        -13    1    3    3    0    0 -0.13014120636E+02 -0.46208563192E+02  0.10569180973E+03  0.11608340662E+03  0.00000000000E+00 0. -1.
         13    1    3    3    0    0  0.31968424841E+02  0.33588977119E+02  0.82358824003E+02  0.94515477367E+02  0.00000000000E+00 0.  1.
         21    1    1    2  502  501  0.19677518110E+02 -0.27269148447E+02  0.15607049003E+02  0.37072781857E+02  0.00000000000E+00 0.  1.
         21    1    1    2  503  502  0.48170967814E+02  0.44201423088E+02  0.11822850740E+03  0.13510065842E+03  0.00000000000E+00 0.  1.
<scales pt_clust_5="13000.00000" pt_clust_6="13000.00000" pt_clust_7="13000.00000" pt_clust_8="13000.00000" pt_clust_9="33.62754" pt_clust_10="64.96493"></scales>
<clustering>
<clus scale="   33.628">  2  9  1 -1</clus>
<clus scale="   64.965">  2 10  1 -1</clus>
<clus scale="   89.421">  5  6 -1 -1</clus>
<clus scale="   92.034">  7  8 -1 -1</clus>
<clus scale="  105.856">  1  5  2 -1</clus>
<clus scale="  105.856">  1  5  2 -1</clus>
</clustering>
</event>
<event>
10    2  0.1133532E-006  0.1398009E+03  0.7546771E-02  0.1214458E+00
         -1   -1    0    0    0  501 -0.00000000000E+00  0.00000000000E+00  0.55027932381E+03  0.55027932381E+03  0.00000000000E+00 0.  1.
          1   -1    0    0  503    0  0.00000000000E+00 -0.00000000000E+00 -0.18221931237E+03  0.18221931237E+03  0.00000000000E+00 0. -1.
         23    2    1    2    0    0  0.38991727854E+02 -0.61643047983E+02  0.12004225151E+03  0.16718123987E+03  0.90659829091E+02 0.  0.
         23    2    1    2    0    0 -0.50728928489E+02  0.12365480564E+03  0.35589227370E+02  0.16748199164E+03  0.94444106626E+02 0.  0.
        -11    1    3    3    0    0  0.56735872946E+02 -0.36654545106E+02  0.11861639107E+03  0.13650041460E+03  0.00000000000E+00 0. -1.
         11    1    3    3    0    0 -0.17744145092E+02 -0.24988502877E+02  0.14258604397E+01  0.30680825267E+02  0.00000000000E+00 0.  1.
        -11    1    4    4    0    0 -0.21063766235E+02  0.48297871986E+02  0.62864755250E+02  0.82026484375E+02  0.00000000000E+00 0.  1.
         11    1    4    4    0    0 -0.29665162254E+02  0.75356933651E+02 -0.27275527880E+02  0.85455507265E+02  0.00000000000E+00 0. -1.
         21    1    1    2  502  501 -0.40699226082E+01 -0.44608748799E+02  0.30196215260E+03  0.30526651691E+03  0.00000000000E+00 0.  1.
         21    1    1    2  503  502  0.15807123243E+02 -0.17403008854E+02 -0.89533620046E+02  0.92568887759E+02  0.00000000000E+00 0. -1.
<scales pt_clust_5="13000.00000" pt_clust_6="13000.00000" pt_clust_7="13000.00000" pt_clust_8="13000.00000" pt_clust_9="45.08317" pt_clust_10="23.51021"></scales>
<clustering>
<clus scale="   23.510">  2 10  1 -1</clus>
<clus scale="   45.083">  1  9  2 -1</clus>
<clus scale="   90.660">  5  6 -1 -1</clus>
<clus scale="   94.444">  7  8 -1 -1</clus>
<clus scale="  137.273">  1  5  2 -1</clus>
<clus scale="   23.510">  2  5  1 -1</clus>
</clustering>
</event>
<event>
10    2  0.1133532E-006  0.9344550E+02  0.7546771E-02  0.1299811E+00
         -2   -1    0    0    0  501 -0.00000000000E+00  0.00000000000E+00  0.11832025513E+03  0.11832025513E+03  0.00000000000E+00 0.  1.
          2   -1    0    0  503    0  0.00000000000E+00 -0.00000000000E+00 -0.21521766009E+03  0.21521766009E+03  0.00000000000E+00 0. -1.
         23    2    1    2    0    0 -0.25114350665E+02  0.37466433902E+02  0.74943346959E+01  0.10310588230E+03  0.92413168075E+02 0.  0.
         23    2    1    2    0    0 -0.66831957140E+01  0.32099717562E+01 -0.11899880522E+03  0.14578931590E+03  0.83897794734E+02 0.  0.
        -11    1    4    4    0    0  0.10430714212E+02 -0.26694063695E+02 -0.10458548035E+03  0.10844120774E+03  0.00000000000E+00 0. -1.
         11    1    4    4    0    0 -0.17113909926E+02  0.29904035451E+02 -0.14413324875E+02  0.37348108160E+02  0.00000000000E+00 0.  1.
        -13    1    3    3    0    0 -0.57923889946E+02  0.37238464056E+02  0.12282150179E+02  0.69948062480E+02  0.00000000000E+00 0.  1.
         13    1    3    3    0    0  0.32809539281E+02  0.22796984530E+00 -0.47878154835E+01  0.33157819819E+02  0.00000000000E+00 0. -1.
         21    1    1    2  502  501  0.76437025822E+01 -0.41758454727E+02  0.33403013385E+02  0.54018108385E+02  0.00000000000E+00 0.  1.
         21    1    1    2  503  502  0.24153843797E+02  0.10820490691E+01 -0.18795947814E+02  0.30624608643E+02  0.00000000000E+00 0. -1.
<scales pt_clust_5="13000.00000" pt_clust_6="13000.00000" pt_clust_7="13000.00000" pt_clust_8="13000.00000" pt_clust_9="42.64968" pt_clust_10="24.17807"></scales>
<clustering>
<clus scale="   24.178">  2 10  1 -1</clus>
<clus scale="   42.650">  1  9  2 -1</clus>
<clus scale="   83.898">  5  6 -1 -1</clus>
<clus scale="   85.034">  2  5  1 -1</clus>
<clus scale="   92.413">  7  8 -1 -1</clus>
<clus scale="   24.178">  2  5  1 -1</clus>
</clustering>
</event>
<event>
10    2  0.1133532E-006  0.1547846E+03  0.7546771E-02  0.1214045E+00
          1   -1    0    0  503    0  0.00000000000E+00  0.00000000000E+00  0.39471890712E+03  0.39471890712E+03  0.00000000000E+00 0. -1.
         -1   -1    0    0    0  501 -0.00000000000E+00 -0.00000000000E+00 -0.21771958268E+03  0.21771958268E+03  0.00000000000E+00 0.  1.
         23    2    1    2    0    0  0.10233789863E+03 -0.66536947701E+01 -0.16475718661E+02  0.13944341313E+03  0.93036009212E+02 0.  0.
         23    2    1    2    0    0  0.61384175605E+02  0.47544689278E+01  0.70045717243E+02  0.12852392125E+03  0.88438531419E+02 0.  0.
        -11    1    3    3    0    0  0.88314697248E+01 -0.36846932958E+02 -0.16134115882E+02  0.41182532962E+02  0.00000000000E+00 0. -1.
         11    1    3    3    0    0  0.93506428910E+02  0.30193238188E+02 -0.34160277866E+00  0.98260880172E+02  0.00000000000E+00 0.  1.
        -13    1    4    4    0    0  0.49530733326E+02 -0.22327619171E+02  0.80541711875E+02  0.97153401760E+02  0.00000000000E+00 0. -1.
         13    1    4    4    0    0  0.11853442279E+02  0.27082088099E+02 -0.10495994632E+02  0.31370519489E+02  0.00000000000E+00 0.  1.
         21    1    1    2  502  501 -0.13902443158E+03 -0.13126661494E+02 -0.64863482780E+02  0.15397198842E+03  0.00000000000E+00 0.  1.
         21    1    1    2  503  502 -0.24697642655E+02  0.15025887336E+02  0.18829280863E+03  0.19049916700E+03  0.00000000000E+00 0.  1.
<scales pt_clust_5="13000.00000" pt_clust_6="13000.00000" pt_clust_7="13000.00000" pt_clust_8="13000.00000" pt_clust_9="123.70354" pt_clust_10="28.90936"></scales>
<clustering>
<clus scale="   28.909">  1 10  2 -1</clus>
<clus scale="   88.439">  7  8 -1 -1</clus>
<clus scale="   93.036">  5  6 -1 -1</clus>
<clus scale="  102.031">  1  7  2 -1</clus>
<clus scale="  123.704">  2  9  1 -1</clus>
<clus scale="   28.909">  1  5  2 -1</clus>
</clustering>
</event>
<event>
10    2  0.1133532E-006  0.1075978E+03  0.7546771E-02  0.1265637E+00
         -3   -1    0    0    0  501 -0.00000000000E+00  0.00000000000E+00  0.50714400692E+02  0.50714400692E+02  0.00000000000E+00 0.  1.
          3   -1    0    0  503    0  0.00000000000E+00 -0.00000000000E+00 -0.50640516360E+03  0.50640516360E+03  0.00000000000E+00 0. -1.
         23    2    1    2    0    0 -0.42153505064E+02  0.73487959643E+02 -0.10561723802E+03  0.16214738332E+03  0.89215327997E+02 0.  0.
         23    2    1    2    0    0  0.22383870467E+02 -0.20666645787E+02 -0.21353895974E+03  0.23395096334E+03  0.90587074232E+02 0.  0.
        -11    1    3    3    0    0 -0.69915393956E+02  0.59482303994E+02 -0.75446020156E+02  0.11882091044E+03  0.00000000000E+00 0.  1.
         11    1    3    3    0    0  0.27761888892E+02  0.14005655650E+02 -0.30171217862E+02  0.43326472881E+02  0.00000000000E+00 0. -1.
        -11    1    4    4    0    0  0.54018889364E+02  0.49569062907E+01 -0.10866132888E+03  0.12144914871E+03  0.00000000000E+00 0. -1.
         11    1    4    4    0    0 -0.31635018897E+02 -0.25623552078E+02 -0.10487763085E+03  0.11250181463E+03  0.00000000000E+00 0.  1.
         21    1    1    2  502  501  0.11842076122E+02 -0.17190530432E+02 -0.12646573621E+01  0.20912877890E+02  0.00000000000E+00 0. -1.
         21    1    1    2  503  502  0.79275584750E+01 -0.35630783424E+02 -0.13526990779E+03  0.14010833974E+03  0.00000000000E+00 0. -1.
<scales pt_clust_5="13000.00000" pt_clust_6="13000.00000" pt_clust_7="13000.00000" pt_clust_8="13000.00000" pt_clust_9="20.87460" pt_clust_10="37.64983"></scales>
<clustering>
<clus scale="   20.875">  1  9  2 -1</clus>
<clus scale="   37.650">  2 10  1 -1</clus>
<clus scale="   89.215">  5  6 -1 -1</clus>
<clus scale="   90.587">  7  8 -1 -1</clus>
<clus scale="  106.445">  1  5  2 -1</clus>
<clus scale="   37.650">  2  5  1 -1</clus>
</clustering>
</event>
<event>
10    2  0.1133532E-006  0.1119712E+03  0.7546771E-02  0.1257203E+00
         -2   -1    0    0    0  501 -0.00000000000E+00  0.00000000000E+00  0.91701323830E+02  0.91701323830E+02  0.00000000000E+00 0.  1.
          2   -1    0    0  503    0  0.00000000000E+00 -0.00000000000E+00 -0.45582424147E+03  0.45582424147E+03  0.00000000000E+00 0. -1.
         23    2    1    2    0    0 -0.20979112557E+02  0.51162793333E+02 -0.51314735101E+02  0.11661134547E+03  0.88922715143E+02 0.  0.
         23    2    1    2    0    0  0.90981952911E+02 -0.17186182706E+02 -0.28313285322E+03  0.31106751006E+03  0.89586285825E+02 0.  0.
        -11    1    4    4    0    0  0.14214221108E+02  0.17310859301E+02 -0.87167237912E+01  0.24035207615E+02  0.00000000000E+00 0. -1.
         11    1    4    4    0    0  0.76767731804E+02 -0.34497042007E+02 -0.27441612943E+03  0.28703230244E+03  0.00000000000E+00 0.  1.
        -13    1    3    3    0    0 -0.52916967461E+02  0.41218454231E+02 -0.18107180386E+02  0.69476876700E+02  0.00000000000E+00 0. -1.
         13    1    3    3    0    0  0.31937854904E+02  0.99443391015E+01 -0.33207554715E+02  0.47134468769E+02  0.00000000000E+00 0.  1.
         21    1    1    2  502  501 -0.42134160436E+02 -0.14914504605E+02  0.28195575789E+02  0.52846195864E+02  0.00000000000E+00 0. -1.
         21    1    1    2  503  502 -0.27868679918E+02 -0.19062106021E+02 -0.57870905102E+02  0.67000513906E+02  0.00000000000E+00 0.  1.
<scales pt_clust_5="13000.00000" pt_clust_6="13000.00000" pt_clust_7="13000.00000" pt_clust_8="13000.00000" pt_clust_9="45.71918" pt_clust_10="33.76429"></scales>
<clustering>
<clus scale="   33.764">  2 10  1 -1</clus>
<clus scale="   45.719">  1  9  2 -1</clus>
<clus scale="   88.923">  7  8 -1 -1</clus>
<clus scale="   89.586">  5  6 -1 -1</clus>
<clus scale="  111.441">  1  7  2 -1</clus>
<clus scale="   33.764">  2  5  1 -1</clus>
</clustering>
</event>
<event>
10    2  0.1133532E-006  0.1074370E+03  0.7546771E-02  0.1265756E+00
          1   -1    0    0  503    0  0.00000000000E+00  0.00000000000E+00  0.25186266126E+03  0.25186266126E+03  0.00000000000E+00 0. -1.
         -1   -1    0    0    0  501 -0.00000000000E+00 -0.00000000000E+00 -0.85978754580E+02  0.85978754580E+02  0.00000000000E+00 0.  1.
         23    2    1    2    0    0  0.41695955570E+02 -0.13763108012E+02  0.26992624278E+02  0.10383929707E+03  0.90144450726E+02 0.  0.
         23    2    1    2    0    0 -0.66605208551E+02  0.40320737348E+02  0.93519401428E+02  0.15197580877E+03  0.91042585315E+02 0.  0.
        -11    1    3    3    0    0  0.52082414524E+02 -0.35429172079E+02 -0.57214296327E+01  0.63249813390E+02  0.00000000000E+00 0.  1.
         11    1    3    3    0    0 -0.10386458954E+02  0.21666064068E+02  0.32714053911E+02  0.40589483676E+02  0.00000000000E+00 0. -1.
        -13    1    4    4    0    0 -0.73685268829E+02 -0.15815110977E+01  0.40733574390E+02  0.84209525010E+02  0.00000000000E+00 0.  1.
         13    1    4    4    0    0  0.70800602784E+01  0.41902248446E+02  0.52785827038E+02  0.67766283758E+02  0.00000000000E+00 0. -1.
         21    1    1    2  502  501 -0.57394849863E+01 -0.21780420553E+02 -0.48096991038E+01  0.23031752275E+02  0.00000000000E+00 0.  1.
         21    1    1    2  503  502  0.30648737967E+02 -0.47772087834E+01  0.50181580077E+02  0.58994557730E+02  0.00000000000E+00 0. -1.
<scales pt_clust_5="13000.00000" pt_clust_6="13000.00000" pt_clust_7="13000.00000" pt_clust_8="13000.00000" pt_clust_9="22.52395" pt_clust_10="30.90753"></scales>
<clustering>
<clus scale="   22.524">  2  9  1 -1</clus>
<clus scale="   30.908">  1 10  2 -1</clus>
<clus scale="   90.144">  5  6 -1 -1</clus>
<clus scale="   91.043">  7  8 -1 -1</clus>
<clus scale="  106.677">  2  5  1 -1</clus>
<clus scale="   30.908">  1  5  2 -1</clus>
</clustering>
</event>
<event>
10    2  0.1133532E-006  0.9671555E+02  0.7546771E-02  0.1287526E+00
         -1   -1    0    0    0  501 -0.00000000000E+00  0.00000000000E+00  0.31035814914E+03  0.31035814914E+03  0.00000000000E+00 0.  1.
          1   -1    0    0  503    0  0.00000000000E+00 -0.00000000000E+00 -0.21458802304E+03  0.21458802304E+03  0.00000000000E+00 0. -1.
         23    2    1    2    0    0 -0.13664272261E+02 -0.19944798112E+02  0.85030052328E+02  0.12658545404E+03  0.90604967123E+02 0.  0.
         23    2    1    2    0    0  0.22238911995E+02  0.23607129933E+02 -0.23658245710E+02  0.98802197324E+02  0.90278988782E+02 0.  0.
        -11    1    4    4    0    0  0.13363935957E+02  0.42720583474E+02 -0.48651382181E+02  0.66110513724E+02  0.00000000000E+00 0. -1.
         11    1    4    4    0    0  0.88749760382E+01 -0.19113453541E+02  0.24993136471E+02  0.32691683600E+02  0.00000000000E+00 0.  1.
        -13    1    3    3    0    0 -0.37483817147E+02  0.10711883812E+02  0.72471786645E+01  0.39652271074E+02  0.00000000000E+00 0. -1.
         13    1    3    3    0    0  0.23819544886E+02 -0.30656681923E+02  0.77782873664E+02  0.86933182965E+02  0.00000000000E+00 0.  1.
         21    1    1    2  502  501  0.32162336232E+02 -0.30148164176E+02  0.15943249242E+03  0.16541477357E+03  0.00000000000E+00 0.  1.
         21    1    1    2  503  502 -0.40736975966E+02  0.26485832355E+02 -0.12503417293E+03  0.13414374725E+03  0.00000000000E+00 0. -1.
<scales pt_clust_5="13000.00000" pt_clust_6="13000.00000" pt_clust_7="13000.00000" pt_clust_8="13000.00000" pt_clust_9="44.08319" pt_clust_10="47.25455"></scales>
<clustering>
<clus scale="   44.083">  1  9  2 -1</clus>
<clus scale="   47.255">  2 10  1 -1</clus>
<clus scale="   90.279">  5  6 -1 -1</clus>
<clus scale="   90.605">  7  8 -1 -1</clus>
<clus scale="   96.410">  2  5  1 -1</clus>
<clus scale="   47.255">  2  5  1 -1</clus>
</clustering>
</event>
<event>
10    2  0.1133532E-006  0.1077285E+03  0.7546771E-02  0.1265980E+00
         -1   -1    0    0    0  501 -0.00000000000E+00  0.00000000000E+00  0.10495879331E+03  0.10495879331E+03  0.00000000000E+00 0.  1.
          1   -1    0    0  503    0  0.00000000000E+00 -0.00000000000E+00 -0.88205377578E+03  0.88205377578E+03  0.00000000000E+00 0. -1.
         23    2    1    2    0    0  0.66867312778E+02  0.28309854244E+02 -0.28610417515E+03  0.30894768974E+03  0.91216175086E+02 0.  0.
         23    2    1    2    0    0 -0.55533540097E+02  0.48282783194E+02 -0.45015531155E+03  0.46461712055E+03  0.88397188656E+02 0.  0.
        -11    1    3    3    0    0  0.35512169092E+02 -0.24867930416E+02 -0.18879218992E+03  0.19370601201E+03  0.00000000000E+00 0.  1.
         11    1    3    3    0    0  0.31355143686E+02  0.53177784661E+02 -0.97311985229E+02  0.11524167773E+03  0.00000000000E+00 0. -1.
        -13    1    4    4    0    0 -0.68509922094E+02  0.59293599679E+01 -0.23046517822E+03  0.24050564464E+03  0.00000000000E+00 0.  1.
         13    1    4    4    0    0  0.12976381997E+02  0.42353423226E+02 -0.21969013333E+03  0.22411147590E+03  0.00000000000E+00 0. -1.
         21    1    1    2  502  501 -0.35255066256E+02 -0.71904708597E+02  0.66056992467E+02  0.10381104502E+03  0.00000000000E+00 0.  1.
         21    1    1    2  503  502  0.23921293576E+02 -0.46879288411E+01 -0.10689248825E+03  0.10963671378E+03  0.00000000000E+00 0.  1.
<scales pt_clust_5="13000.00000" pt_clust_6="13000.00000" pt_clust_7="13000.00000" pt_clust_8="13000.00000" pt_clust_9="79.93034" pt_clust_10="24.37632"></scales>
<clustering>
<clus scale="   24.376">  2 10  1 -1</clus>
<clus scale="   79.930">  1  9  2 -1</clus>
<clus scale="   88.397">  7  8 -1 -1</clus>
<clus scale="   91.216">  5  6 -1 -1</clus>
<clus scale="  105.352">  2  7  1 -1</clus>
<clus scale="   24.376">  2  5  1 -1</clus>
</clustering>
</event>
<event>
10    2  0.1971410E-006  0.2479182E+03  0.7546771E-02  0.1115940E+00
          2   -1    0    0  503    0  0.00000000000E+00  0.00000000000E+00  0.76645710041E+03  0.76645710041E+03  0.00000000000E+00 0. -1.
         -2   -1    0    0    0  501 -0.00000000000E+00 -0.00000000000E+00 -0.57322657225E+03  0.57322657225E+03  0.00000000000E+00 0.  1.
         23    2    1    2    0    0 -0.22153166891E+03  0.14824121220E+03 -0.44513187310E+03  0.53083222201E+03  0.11219949265E+03 0.  0.
         23    2    1    2    0    0  0.17102536753E+03 -0.78778501250E+02  0.55602146496E+03  0.59436209050E+03  0.93009120702E+02 0.  0.
        -11    1    3    3    0    0 -0.59719930594E+01  0.29021766473E+02 -0.10852240597E+02  0.31554694679E+02  0.00000000000E+00 0. -1.
         11    1    3    3    0    0 -0.21555967585E+03  0.11921944573E+03 -0.43427963250E+03  0.49927752733E+03  0.00000000000E+00 0.  1.
        -13    1    4    4    0    0  0.82862756080E+02  0.54121458846E+01  0.29159770258E+03  0.30319094284E+03  0.00000000000E+00 0. -1.
         13    1    4    4    0    0  0.88162611453E+02 -0.84190647134E+02  0.26442376238E+03  0.29117114767E+03  0.00000000000E+00 0.  1.
         21    1    1    2  502  501  0.13579226524E+02 -0.69544260532E+02 -0.43633164390E+02  0.83214497539E+02  0.00000000000E+00 0.  1.
         21    1    1    2  503  502  0.36927074856E+02  0.81549580313E-01  0.12597410069E+03  0.13127486260E+03  0.00000000000E+00 0. -1.
<scales pt_clust_5="13000.00000" pt_clust_6="13000.00000" pt_clust_7="13000.00000" pt_clust_8="13000.00000" pt_clust_9="71.08360" pt_clust_10="36.92716"></scales>
<clustering>
<clus scale="   36.927">  1 10  2 -1</clus>
<clus scale="   71.084">  2  9  1 -1</clus>
<clus scale="   93.009">  7  8 -1 -1</clus>
<clus scale="  112.199">  5  6 -1 -1</clus>
<clus scale="  239.845">  1  7  2 -1</clus>
<clus scale="   36.927">  1  5  2 -1</clus>
</clustering>
</event>
<event>
10    2  0.1512827E-006  0.1428277E+03  0.7546771E-02  0.1209716E+00
          1   -1    0    0  503    0  0.00000000000E+00  0.00000000000E+00  0.83323000213E+03  0.83323000213E+03  0.00000000000E+00 0. -1.
         -1   -1    0    0    0  501 -0.00000000000E+00 -0.00000000000E+00 -0.63619864728E+02  0.63619864728E+02  0.00000000000E+00 0.  1.
         23    2    1    2    0    0  0.28320994060E+02 -0.12391752145E+03  0.73529424461E+02  0.17349321965E+03  0.92388798977E+02 0.  0.
         23    2    1    2    0    0 -0.22711174161E+02  0.89332411725E+02  0.62549777500E+03  0.63906388446E+03  0.93054310317E+02 0.  0.
        -11    1    3    3    0    0  0.57454583219E+02 -0.46415694758E+02  0.27892855341E+02  0.78952246528E+02  0.00000000000E+00 0. -1.
         11    1    3    3    0    0 -0.29133589159E+02 -0.77501826697E+02  0.45636569120E+02  0.94540973127E+02  0.00000000000E+00 0.  1.
        -13    1    4    4    0    0  0.18833303803E+02 -0.11250245243E+02  0.91913327107E+02  0.94495084793E+02  0.00000000000E+00 0.  1.
         13    1    4    4    0    0 -0.41544477964E+02  0.10058265697E+03  0.53358444789E+03  0.54456879966E+03  0.00000000000E+00 0. -1.
         21    1    1    2  502  501 -0.14970410031E+02  0.16263465381E+02  0.20495464013E+02  0.30144278526E+02  0.00000000000E+00 0. -1.
         21    1    1    2  503  502  0.93605901315E+01  0.18321644349E+02  0.50087473931E+02  0.54148484227E+02  0.00000000000E+00 0. -1.
<scales pt_clust_5="13000.00000" pt_clust_6="13000.00000" pt_clust_7="13000.00000" pt_clust_8="13000.00000" pt_clust_9="22.34482" pt_clust_10="20.57434"></scales>
<clustering>
<clus scale="   20.574">  1 10  2 -1</clus>
<clus scale="   22.345">  2  9  1 -1</clus>
<clus scale="   92.389">  5  6 -1 -1</clus>
<clus scale="   93.054">  7  8 -1 -1</clus>
<clus scale="  142.395">  2  5  1 -1</clus>
<clus scale="   20.574">  1  5  2 -1</clus>
</clustering>
</event>
<event>
10    2  0.1133532E-006  0.9624103E+02  0.7546771E-02  0.1292798E+00
          3   -1    0    0  503    0  0.00000000000E+00  0.00000000000E+00  0.58079705271E+02  0.58079705271E+02  0.00000000000E+00 0. -1.
         -3   -1    0    0    0  501 -0.00000000000E+00 -0.00000000000E+00 -0.53864014865E+03  0.53864014865E+03  0.00000000000E+00 0.  1.
         23    2    1    2    0    0  0.15241010486E+02  0.37066734699E+01 -0.31747748530E+03  0.32971748514E+03  0.87610721379E+02 0.  0.
         23    2    1    2    0    0  0.26172678265E+02 -0.34851105476E+02 -0.87726475152E+02  0.13665798700E+03  0.95288311603E+02 0.  0.
        -11    1    4    4    0    0 -0.18680190083E+02  0.15277493938E+02 -0.58567384499E+02  0.63344217176E+02  0.00000000000E+00 0.  1.
         11    1    4    4    0    0  0.44852868348E+02 -0.50128599414E+02 -0.29159090653E+02  0.73313769825E+02  0.00000000000E+00 0. -1.
        -11    1    3    3    0    0  0.21885510704E+02  0.40085511470E+02 -0.11225968801E+03  0.12119431241E+03  0.00000000000E+00 0.  1.
         11    1    3    3    0    0 -0.66445002176E+01 -0.36378838000E+02 -0.20521779729E+03  0.20852317272E+03  0.00000000000E+00 0. -1.
         21    1    1    2  502  501 -0.24016384974E+02  0.19233339653E+01 -0.90109063204E+02  0.93274483286E+02  0.00000000000E+00 0. -1.
         21    1    1    2  503  502 -0.17397303777E+02  0.29221098041E+02  0.14752580284E+02  0.37069898496E+02  0.00000000000E+00 0.  1.
<scales pt_clust_5="13000.00000" pt_clust_6="13000.00000" pt_clust_7="13000.00000" pt_clust_8="13000.00000" pt_clust_9="24.09328" pt_clust_10="34.35942"></scales>
<clustering>
<clus scale="   24.093">  2  9  1 -1</clus>
<clus scale="   34.359">  1 10  2 -1</clus>
<clus scale="   87.611">  7  8 -1 -1</clus>
<clus scale="   88.646">  2  7  1 -1</clus>
<clus scale="   95.288">  5  6 -1 -1</clus>
<clus scale="   34.359">  1  5  2 -1</clus>
</clustering>
</event>
<event>
10    2  0.1133532E-006  0.1454916E+03  0.7546771E-02  0.1208863E+00
         -1   -1    0    0    0  501 -0.00000000000E+00  0.00000000000E+00  0.15387780412E+03  0.15387780412E+03  0.00000000000E+00 0.  1.
          1   -1    0    0  503    0  0.00000000000E+00 -0.00000000000E+00 -0.35167426558E+03  0.35167426558E+03  0.00000000000E+00 0. -1.
         23    2    1    2    0    0 -0.85104343413E+02 -0.79470704711E+02  0.56016893609E+01  0.14059808438E+03  0.78600892052E+02 0.  0.
         23    2    1    2    0    0  0.12475399281E+03  0.64980362864E+02 -0.84121629013E+02  0.18811197938E+03  0.92323680811E+02 0.  0.
        -11    1    3    3    0    0 -0.49038556518E+01 -0.34524290930E+02 -0.25875370771E+02  0.43422451301E+02  0.00000000000E+00 0. -1.
         11    1    3    3    0    0 -0.80200487761E+02 -0.44946413781E+02  0.31477060132E+02  0.97175633074E+02  0.00000000000E+00 0.  1.
        -13    1    4    4    0    0  0.94693560527E+02  0.30127610500E+02 -0.98475832165E+02  0.13990008163E+03  0.00000000000E+00 0. -1.
         13    1    4    4    0    0  0.30060432284E+02  0.34852752364E+02  0.14354203153E+02  0.48211897750E+02  0.00000000000E+00 0.  1.
         21    1    1    2  502  501  0.17265266152E+02  0.40880833213E+02 -0.27029860916E+01  0.44459398032E+02  0.00000000000E+00 0. -1.
         21    1    1    2  503  502 -0.56914915552E+02 -0.26390491366E+02 -0.11657353572E+03  0.13238260791E+03  0.00000000000E+00 0. -1.
<scales pt_clust_5="13000.00000" pt_clust_6="13000.00000" pt_clust_7="13000.00000" pt_clust_8="13000.00000" pt_clust_9="44.37716" pt_clust_10="60.80854"></scales>
<clustering>
<clus scale="   44.377">  1  9  2 -1</clus>
<clus scale="   60.809">  2 10  1 -1</clus>
<clus scale="   78.601">  5  6 -1 -1</clus>
<clus scale="   92.324">  7  8 -1 -1</clus>
<clus scale="  137.194">  1  5  2 -1</clus>
<clus scale="   60.809">  2  5  1 -1</clus>
</clustering>
</event>
<event>
10    2  0.1133532E-006  0.2353696E+03  0.7546771E-02  0.1136552E+00
         -1   -1    0    0    0  501 -0.00000000000E+00  0.00000000000E+00  0.93237002406E+02  0.93237002406E+02  0.00000000000E+00 0.  1.
          1   -1    0    0  503    0  0.00000000000E+00 -0.00000000000E+00 -0.13938359008E+04  0.13938359008E+04  0.00000000000E+00 0. -1.
         23    2    1    2    0    0 -0.10657209797E+03 -0.83582352261E+02 -0.26211963390E+03  0.30890794581E+03  0.91508441306E+02 0.  0.
         23    2    1    2    0    0  0.26118931213E+03  0.20158268017E+03 -0.61302321592E+03  0.70205095372E+03  0.90678799317E+02 0.  0.
        -11    1    3    3    0    0 -0.50543761265E+02  0.10323188057E+02 -0.11071904175E+03  0.12214723174E+03  0.00000000000E+00 0. -1.
         11    1    3    3    0    0 -0.56028336710E+02 -0.93905540319E+02 -0.15140059215E+03  0.18676071407E+03  0.00000000000E+00 0.  1.
        -11    1    4    4    0    0  0.20745411095E+03  0.17726379924E+03 -0.42558282741E+03  0.50554960751E+03  0.00000000000E+00 0.  1.
         11    1    4    4    0    0  0.53735201179E+02  0.24318880932E+02 -0.18744038851E+03  0.19650134621E+03  0.00000000000E+00 0. -1.
         21    1    1    2  502  501 -0.11688746787E+02 -0.19718018601E+02 -0.83804644147E+01  0.24406131255E+02  0.00000000000E+00 0.  1.
         21    1    1    2  503  502 -0.14292846737E+03 -0.98282309313E+02 -0.41707558416E+03  0.45170787243E+03  0.00000000000E+00 0.  1.
<scales pt_clust_5="13000.00000" pt_clust_6="13000.00000" pt_clust_7="13000.00000" pt_clust_8="13000.00000" pt_clust_9="22.92220" pt_clust_10="217.20081"></scales>
<clustering>
<clus scale="   22.922">  1  9  2 -1</clus>
<clus scale="   90.679">  7  8 -1 -1</clus>
<clus scale="   91.508">  5  6 -1 -1</clus>
<clus scale="  168.362">  1  5  2 -1</clus>
<clus scale="  217.201">  2 10  1 -1</clus>
<clus scale="  217.201">  2  5  1 -1</clus>
</clustering>
</event>
<event>
10    2  0.1133532E-006  0.1710785E+03  0.7546771E-02  0.1176728E+00
          1   -1    0    0  503    0  0.00000000000E+00  0.00000000000E+00  0.13497753326E+04  0.13497753326E+04  0.00000000000E+00 0. -1.
         -1   -1    0    0    0  501 -0.00000000000E+00 -0.00000000000E+00 -0.39206390655E+02  0.39206390655E+02  0.00000000000E+00 0.  1.
         23    2    1    2    0    0  0.80531331181E+02  0.91573651053E+02  0.37294224645E+03  0.40270403605E+03  0.90628872828E+02 0.  0.
         23    2    1    2    0    0 -0.12855746468E+03 -0.11516923266E+03  0.75438613658E+03  0.77916785590E+03  0.90626324687E+02 0.  0.
        -13    1    3    3    0    0  0.54802131348E+02  0.99559987054E+02  0.22223051935E+03  0.24960342216E+03  0.00000000000E+00 0.  1.
         13    1    3    3    0    0  0.25729199833E+02 -0.79863360011E+01  0.15071172710E+03  0.15310061389E+03  0.00000000000E+00 0. -1.
        -13    1    4    4    0    0 -0.50038136422E+02  0.61694988343E+01  0.19633566403E+03  0.20270562593E+03  0.00000000000E+00 0.  1.
         13    1    4    4    0    0 -0.78519328254E+02 -0.12133873150E+03  0.55805047255E+03  0.57646222997E+03  0.00000000000E+00 0. -1.
         21    1    1    2  502  501  0.18848951086E+02  0.15369952320E+02  0.31950591708E+01  0.24530120147E+02  0.00000000000E+00 0.  1.
         21    1    1    2  503  502  0.29177182409E+02  0.82256292906E+01  0.18004549969E+03  0.18257971111E+03  0.00000000000E+00 0.  1.
<scales pt_clust_5="13000.00000" pt_clust_6="13000.00000" pt_clust_7="13000.00000" pt_clust_8="13000.00000" pt_clust_9="24.32115" pt_clust_10="31.30810"></scales>
<clustering>
<clus scale="   24.321">  2  9  1 -1</clus>
<clus scale="   31.308">  1 10  2 -1</clus>
<clus scale="   90.626">  7  8 -1 -1</clus>
<clus scale="   90.629">  5  6 -1 -1</clus>
<clus scale="  171.077">  1  7  2 -1</clus>
<clus scale="   31.308">  1  5  2 -1</clus>
</clustering>
</event>
<event>
10    2  0.1133532E-006  0.2610781E+03  0.7546771E-02  0.1130893E+00
         -1   -1    0    0    0  501 -0.00000000000E+00  0.00000000000E+00  0.25179506630E+03  0.25179506630E+03  0.00000000000E+00 0.  1.
          1   -1    0    0  503    0  0.00000000000E+00 -0.00000000000E+00 -0.74423604063E+03  0.74423604063E+03  0.00000000000E+00 0. -1.
         23    2    1    2    0    0  0.23661831707E+03  0.21295419357E+02  0.40284754635E+02  0.25806513727E+03  0.92374405329E+02 0.  0.
         23    2    1    2    0    0 -0.78429456563E+02  0.76632543766E+02 -0.23723374532E+03  0.27607997270E+03  0.88975136922E+02 0.  0.
        -11    1    3    3    0    0  0.21109652668E+03  0.45352419642E+02  0.50090105545E+02  0.22164747735E+03  0.00000000000E+00 0.  1.
         11    1    3    3    0    0  0.25521790391E+02 -0.24057000284E+02 -0.98053509096E+01  0.36417659918E+02  0.00000000000E+00 0. -1.
        -13    1    4    4    0    0 -0.28283963587E+02  0.84215233538E+02 -0.12996470988E+03  0.15742621755E+03  0.00000000000E+00 0.  1.
         13    1    4    4    0    0 -0.50145492976E+02 -0.75826897725E+01 -0.10726903543E+03  0.11865375516E+03  0.00000000000E+00 0. -1.
         21    1    1    2  502  501  0.25945875811E+02  0.33391983614E+02  0.39387047160E+02  0.57788861602E+02  0.00000000000E+00 0.  1.
         21    1    1    2  503  502 -0.18413473632E+03 -0.13131994674E+03 -0.33487903081E+03  0.40409713536E+03  0.00000000000E+00 0. -1.
<scales pt_clust_5="13000.00000" pt_clust_6="13000.00000" pt_clust_7="13000.00000" pt_clust_8="13000.00000" pt_clust_9="42.28727" pt_clust_10="244.19000"></scales>
<clustering>
<clus scale="   42.287">  1  9  2 -1</clus>
<clus scale="   88.975">  7  8 -1 -1</clus>
<clus scale="   92.374">  5  6 -1 -1</clus>
<clus scale="  141.622">  2  7  1 -1</clus>
<clus scale="  244.190">  2 10  1 -1</clus>
<clus scale="  141.622">  2  5  1 -1</clus>
</clustering>
</event>
<event>
10    2  0.1133532E-006  0.1249098E+03  0.7546771E-02  0.1236524E+00
         -4   -1    0    0    0  501 -0.00000000000E+00  0.00000000000E+00  0.30812825030E+03  0.30812825030E+03  0.00000000000E+00 0.  1.
          4   -1    0    0  503    0  0.00000000000E+00 -0.00000000000E+00 -0.22874458903E+03  0.22874458903E+03  0.00000000000E+00 0. -1.
         23    2    1    2    0    0  0.84886869759E+02  0.24633339212E+02  0.17704120586E+03  0.21700895285E+03  0.89088242696E+02 0.  0.
         23    2    1    2    0    0 -0.41006290542E+02 -0.35097008508E+02 -0.11772842227E+03  0.15976827330E+03  0.93555351916E+02 0.  0.
        -11    1    3    3    0    0 -0.81821521988E+01 -0.20387800419E+02  0.27237019852E+02  0.34992360180E+02  0.00000000000E+00 0. -1.
         11    1    3    3    0    0  0.93069021957E+02  0.45021139632E+02  0.14980418601E+03  0.18201659267E+03  0.00000000000E+00 0.  1.
        -13    1    4    4    0    0  0.21958072368E+02 -0.85401770224E+01  0.96700242476E-01  0.23560579718E+02  0.00000000000E+00 0.  1.
         13    1    4    4    0    0 -0.62964362910E+02 -0.26556831485E+02 -0.11782512252E+03  0.13620769358E+03  0.00000000000E+00 0. -1.
         21    1    1    2  502  501 -0.15542864842E+02  0.30386605974E+02  0.82176509562E+02  0.88982611750E+02  0.00000000000E+00 0.  1.
         21    1    1    2  503  502 -0.28337714374E+02 -0.19922936679E+02 -0.62105631875E+02  0.71113001431E+02  0.00000000000E+00 0.  1.
<scales pt_clust_5="13000.00000" pt_clust_6="13000.00000" pt_clust_7="13000.00000" pt_clust_8="13000.00000" pt_clust_9="34.13102" pt_clust_10="34.55070"></scales>
<clustering>
<clus scale="   34.131">  1  9  2 -1</clus>
<clus scale="   34.551">  2 10  1 -1</clus>
<clus scale="   89.088">  5  6 -1 -1</clus>
<clus scale="   93.555">  7  8 -1 -1</clus>
<clus scale="  121.600">  1  5  2 -1</clus>
<clus scale="   34.551">  2  5  1 -1</clus>
</clustering>
</event>
<event>
10    2  0.1133532E-006  0.9421367E+02  0.7546771E-02  0.1293269E+00
         -1   -1    0    0    0  501 -0.00000000000E+00  0.00000000000E+00  0.68932541491E+02  0.68932541491E+02  0.00000000000E+00 0.  1.
          1   -1    0    0  503    0  0.00000000000E+00 -0.00000000000E+00 -0.32444205249E+03  0.32444205249E+03  0.00000000000E+00 0. -1.
         23    2    1    2    0    0 -0.10328243266E+02 -0.20686238872E+02 -0.50781369197E+01  0.93852847031E+02  0.90818370023E+02 0.  0.
         23    2    1    2    0    0  0.70045652081E+01  0.12573546551E+00 -0.15034301697E+03  0.17607571997E+03  0.91381380317E+02 0.  0.
        -11    1    3    3    0    0  0.38858774900E+02 -0.52654204908E+01 -0.13802489073E+02  0.41572078903E+02  0.00000000000E+00 0.  1.
         11    1    3    3    0    0 -0.49187018166E+02 -0.15420818381E+02  0.87243521531E+01  0.52280768128E+02  0.00000000000E+00 0. -1.
        -11    1    4    4    0    0  0.12810308800E+02  0.38429963469E+02 -0.12063503285E+03  0.12725477301E+03  0.00000000000E+00 0. -1.
         11    1    4    4    0    0 -0.58057435919E+01 -0.38304228003E+02 -0.29707984124E+02  0.48820946962E+02  0.00000000000E+00 0.  1.
         21    1    1    2  502  501  0.14748059624E+02 -0.16922958256E+02 -0.88146158679E+01  0.24116161215E+02  0.00000000000E+00 0.  1.
         21    1    1    2  503  502 -0.11424381567E+02  0.37483461663E+02 -0.91273741239E+02  0.99329865761E+02  0.00000000000E+00 0. -1.
<scales pt_clust_5="13000.00000" pt_clust_6="13000.00000" pt_clust_7="13000.00000" pt_clust_8="13000.00000" pt_clust_9="22.44753" pt_clust_10="37.84395"></scales>
<clustering>
<clus scale="   22.448">  1  9  2 -1</clus>
<clus scale="   37.844">  2 10  1 -1</clus>
<clus scale="   90.818">  5  6 -1 -1</clus>
<clus scale="   91.381">  7  8 -1 -1</clus>
<clus scale="   93.668">  1  5  2 -1</clus>
<clus scale="   37.844">  2  5  1 -1</clus>
</clustering>
</event>
<event>
10    2  0.1133532E-006  0.1755987E+03  0.7546771E-02  0.1198140E+00
         -2   -1    0    0    0  501 -0.00000000000E+00  0.00000000000E+00  0.12945671680E+03  0.12945671680E+03  0.00000000000E+00 0.  1.
          2   -1    0    0  503    0  0.00000000000E+00 -0.00000000000E+00 -0.93233823971E+03  0.93233823971E+03  0.00000000000E+00 0. -1.
         23    2    1    2    0    0  0.18026589583E+03 -0.77665929996E+02 -0.65894620663E+03  0.69351512080E+03  0.90693603265E+02 0.  0.
         23    2    1    2    0    0 -0.23140262537E+02  0.11191652213E+02 -0.12901808128E+03  0.16155765914E+03  0.93778926741E+02 0.  0.
        -11    1    4    4    0    0  0.35037717375E+02 -0.76843761348E+01 -0.42716300457E+02  0.55779688061E+02  0.00000000000E+00 0. -1.
         11    1    4    4    0    0 -0.58177979912E+02  0.18876028348E+02 -0.86301780821E+02  0.10577797108E+03  0.00000000000E+00 0.  1.
        -13    1    3    3    0    0  0.65370992530E+02 -0.77165852847E+02 -0.29381061193E+03  0.31072916051E+03  0.00000000000E+00 0.  1.
         13    1    3    3    0    0  0.11489490330E+03 -0.50007714948E+00 -0.36513559470E+03  0.38278596029E+03  0.00000000000E+00 0. -1.
         21    1    1    2  502  501 -0.13346409843E+03  0.60304016424E+02  0.35492281894E+02  0.15069486402E+03  0.00000000000E+00 0.  1.
         21    1    1    2  503  502 -0.23661534857E+02  0.61702613589E+01 -0.50409516901E+02  0.56027312547E+02  0.00000000000E+00 0. -1.
<scales pt_clust_5="13000.00000" pt_clust_6="13000.00000" pt_clust_7="13000.00000" pt_clust_8="13000.00000" pt_clust_9="150.36475" pt_clust_10="24.45282"></scales>
<clustering>
<clus scale="   24.453">  2 10  1 -1</clus>
<clus scale="   90.694">  7  8 -1 -1</clus>
<clus scale="   93.779">  5  6 -1 -1</clus>
<clus scale="   98.363">  2  5  1 -1</clus>
<clus scale="  150.365">  1  9  2 -1</clus>
<clus scale="   24.453">  2  5  1 -1</clus>
</clustering>
</event>
<event>
10    2  0.1133532E-006  0.9100951E+02  0.7546771E-02  0.1300500E+00
         -2   -1    0    0    0  501 -0.00000000000E+00  0.00000000000E+00  0.49729308962E+03  0.49729308962E+03  0.00000000000E+00 0.  1.
          2   -1    0    0  502    0  0.00000000000E+00 -0.00000000000E+00 -0.95390790885E+02  0.95390790885E+02  0.00000000000E+00 0. -1.
         23    2    1    2    0    0  0.68520591051E+00  0.13537331133E+01  0.31941670426E+03  0.33175233835E+03  0.89611834818E+02 0.  0.
         23    2    1    2    0    0 -0.16963734206E+02 -0.80105506984E+02  0.92648050416E+02  0.15277849565E+03  0.89738213491E+02 0.  0.
        -11    1    4    4    0    0  0.27926347841E+02 -0.20027893440E+01  0.78888307517E+01  0.29088240227E+02  0.00000000000E+00 0. -1.
         11    1    4    4    0    0 -0.44890082047E+02 -0.78102717640E+02  0.84759219665E+02  0.12369025543E+03  0.00000000000E+00 0.  1.
        -13    1    3    3    0    0 -0.25390062070E+02 -0.32813961688E+02  0.21263635494E+03  0.21664632648E+03  0.00000000000E+00 0.  1.
         13    1    3    3    0    0  0.26075267981E+02  0.34167694802E+02  0.10678034932E+03  0.11510601187E+03  0.00000000000E+00 0. -1.
         21    1    1    2  502  503 -0.16906308328E+02  0.22879532736E+02  0.21698322167E+02  0.35778673318E+02  0.00000000000E+00 0.  1.
         21    1    1    2  503  501  0.33184836624E+02  0.55872241135E+02 -0.31860778114E+02  0.72374373180E+02  0.00000000000E+00 0. -1.
<scales pt_clust_5="13000.00000" pt_clust_6="13000.00000" pt_clust_7="13000.00000" pt_clust_8="13000.00000" pt_clust_9="28.44813" pt_clust_10="73.14928"></scales>
<clustering>
<clus scale="   28.448">  2  9  1 -1</clus>
<clus scale="   73.149">  2 10  1 -1</clus>
<clus scale="   89.612">  7  8 -1 -1</clus>
<clus scale="   89.738">  5  6 -1 -1</clus>
<clus scale="   90.885">  1  7  2 -1</clus>
<clus scale="   28.448">  2  5  1 -1</clus>
</clustering>
</event>
<event>
10    2  0.1133532E-006  0.1026015E+03  0.7546771E-02  0.1277223E+00
         -2   -1    0    0    0  501 -0.00000000000E+00  0.00000000000E+00  0.28409470946E+03  0.28409470946E+03  0.00000000000E+00 0.  1.
          2   -1    0    0  503    0  0.00000000000E+00 -0.00000000000E+00 -0.37330548856E+03  0.37330548856E+03  0.00000000000E+00 0. -1.
         23    2    1    2    0    0  0.11918379009E+02 -0.37050937158E+02  0.42023704099E+02  0.10693959475E+03  0.90306508719E+02 0.  0.
         23    2    1    2    0    0  0.36703686135E+01  0.78692178464E+01 -0.16822588121E+03  0.19344212604E+03  0.95102643609E+02 0.  0.
        -13    1    4    4    0    0  0.47298880364E+02 -0.95400933535E+01 -0.92543767291E+02  0.10436736238E+03  0.00000000000E+00 0. -1.
         13    1    4    4    0    0 -0.43628511751E+02  0.17409311200E+02 -0.75682113922E+02  0.89074763664E+02  0.00000000000E+00 0.  1.
        -13    1    3    3    0    0 -0.16997090231E+02 -0.31069806221E+02  0.61921249122E+02  0.71333547702E+02  0.00000000000E+00 0.  1.
         13    1    3    3    0    0  0.28915469240E+02 -0.59811309371E+01 -0.19897545022E+02  0.35606047051E+02  0.00000000000E+00 0. -1.
         21    1    1    2  502  501 -0.31660594317E+02 -0.69572845760E+01  0.19318971420E+03  0.19589043548E+03  0.00000000000E+00 0.  1.
         21    1    1    2  503  502  0.16071846695E+02  0.36139003887E+02 -0.15619831618E+03  0.16112804174E+03  0.00000000000E+00 0. -1.
<scales pt_clust_5="13000.00000" pt_clust_6="13000.00000" pt_clust_7="13000.00000" pt_clust_8="13000.00000" pt_clust_9="32.41600" pt_clust_10="39.02918"></scales>
<clustering>
<clus scale="   32.416">  1  9  2 -1</clus>
<clus scale="   39.029">  2 10  1 -1</clus>
<clus scale="   90.307">  7  8 -1 -1</clus>
<clus scale="   95.103">  5  6 -1 -1</clus>
<clus scale="   98.172">  1  7  2 -1</clus>
<clus scale="   39.029">  2  5  1 -1</clus>
</clustering>
</event>
<event>
10    2  0.1133532E-006  0.1556519E+03  0.7546771E-02  0.1209010E+00
         -1   -1    0    0    0  501 -0.00000000000E+00  0.00000000000E+00  0.16090280610E+03  0.16090280610E+03  0.00000000000E+00 0.  1.
          1   -1    0    0  503    0  0.00000000000E+00 -0.00000000000E+00 -0.50947784340E+03  0.50947784340E+03  0.00000000000E+00 0. -1.
         23    2    1    2    0    0  0.60432765167E+02 -0.31142339795E+02 -0.57288318151E+02  0.13389208520E+03  0.10011580619E+03 0.  0.
         23    2    1    2    0    0 -0.10758108018E+03  0.72320419222E+02 -0.69994850278E+01  0.16000169794E+03  0.93528705242E+02 0.  0.
        -13    1    3    3    0    0  0.57600171559E+02 -0.64198967045E+02 -0.31326799845E+02  0.91764129821E+02  0.00000000000E+00 0. -1.
         13    1    3    3    0    0  0.28325936084E+01  0.33056627250E+02 -0.25961518306E+02  0.42127955380E+02  0.00000000000E+00 0.  1.
        -13    1    4    4    0    0 -0.58669458022E+02  0.79741618408E+02  0.23677046498E+02  0.10179112703E+03  0.00000000000E+00 0.  1.
         13    1    4    4    0    0 -0.48911622159E+02 -0.74211991859E+01 -0.30676531525E+02  0.58210570913E+02  0.00000000000E+00 0. -1.
         21    1    1    2  502  501 -0.65394805555E+02  0.10365641663E+02  0.22642184814E+00  0.66211618222E+02  0.00000000000E+00 0. -1.
         21    1    1    2  503  502  0.11254312057E+03 -0.51543721090E+02 -0.28451365598E+03  0.31027524814E+03  0.00000000000E+00 0. -1.
<scales pt_clust_5="13000.00000" pt_clust_6="13000.00000" pt_clust_7="13000.00000" pt_clust_8="13000.00000" pt_clust_9="66.21123" pt_clust_10="124.41820"></scales>
<clustering>
<clus scale="   66.211">  1  9  2 -1</clus>
<clus scale="   93.529">  7  8 -1 -1</clus>
<clus scale="  100.116">  5  6 -1 -1</clus>
<clus scale="  111.691">  1  5  2 -1</clus>
<clus scale="  124.418">  2 10  1 -1</clus>
<clus scale="  124.418">  2  5  1 -1</clus>
</clustering>
</event>
<event>
10    2  0.1133532E-006  0.1024632E+03  0.7546771E-02  0.1275619E+00
         -4   -1    0    0    0  501 -0.00000000000E+00  0.00000000000E+00  0.11949680955E+03  0.11949680955E+03  0.00000000000E+00 0.  1.
          4   -1    0    0  503    0  0.00000000000E+00 -0.00000000000E+00 -0.34268859829E+03  0.34268859829E+03  0.00000000000E+00 0. -1.
         23    2    1    2    0    0 -0.23727199414E+02  0.51410702578E+02  0.28032680639E+02  0.11130464833E+03  0.91634345220E+02 0.  0.
         23    2    1    2    0    0  0.32739166919E+01 -0.45272277540E+02 -0.18164376353E+03  0.20804856786E+03  0.90716327703E+02 0.  0.
        -11    1    4    4    0    0  0.58339157110E+01 -0.65572685510E+02 -0.76471432208E+02  0.10090436859E+03  0.00000000000E+00 0. -1.
         11    1    4    4    0    0 -0.25599990191E+01  0.20300407970E+02 -0.10517233133E+03  0.10714419926E+03  0.00000000000E+00 0.  1.
        -13    1    3    3    0    0 -0.10114124869E+02 -0.23301846630E+02 -0.88235436630E+01  0.26891011528E+02  0.00000000000E+00 0. -1.
         13    1    3    3    0    0 -0.13613074546E+02  0.74712549209E+02  0.36856224302E+02  0.84413636799E+02  0.00000000000E+00 0.  1.
         21    1    1    2  502  501 -0.81717320792E+01 -0.18877147652E+02  0.31156897011E+02  0.37334650661E+02  0.00000000000E+00 0.  1.
         21    1    1    2  503  502  0.28625014802E+02  0.12738722614E+02 -0.10073760286E+03  0.10549754099E+03  0.00000000000E+00 0.  1.
<scales pt_clust_5="13000.00000" pt_clust_6="13000.00000" pt_clust_7="13000.00000" pt_clust_8="13000.00000" pt_clust_9="20.56998" pt_clust_10="30.91131"></scales>
<clustering>
<clus scale="   20.570">  1  9  2 -1</clus>
<clus scale="   30.911">  2 10  1 -1</clus>
<clus scale="   90.716">  5  6 -1 -1</clus>
<clus scale="   91.634">  7  8 -1 -1</clus>
<clus scale="  101.643">  2  5  1 -1</clus>
<clus scale="   30.911">  2  5  1 -1</clus>
</clustering>
</event>
<event>
10    2  0.1133532E-006  0.1751648E+03  0.7546771E-02  0.1173707E+00
          1   -1    0    0  503    0  0.00000000000E+00  0.00000000000E+00  0.88345766769E+03  0.88345766769E+03  0.00000000000E+00 0. -1.
         -1   -1    0    0    0  501 -0.00000000000E+00 -0.00000000000E+00 -0.13773685745E+03  0.13773685745E+03  0.00000000000E+00 0.  1.
         23    2    1    2    0    0  0.10951112504E+03 -0.65334898409E+02  0.25338373950E+02  0.15930530599E+03  0.92058741372E+02 0.  0.
         23    2    1    2    0    0 -0.62473237064E+02  0.11201588186E+03  0.40241638807E+03  0.43047882146E+03  0.83202182646E+02 0.  0.
        -11    1    3    3    0    0  0.70197320668E+02 -0.82482105902E+02  0.37676211246E+02  0.11467544862E+03  0.00000000000E+00 0. -1.
         11    1    3    3    0    0  0.39313804375E+02  0.17147207493E+02 -0.12337837296E+02  0.44629857364E+02  0.00000000000E+00 0.  1.
        -13    1    4    4    0    0 -0.81078555159E+02  0.10167468059E+03  0.36439273752E+03  0.38690249410E+03  0.00000000000E+00 0. -1.
         13    1    4    4    0    0  0.18605318095E+02  0.10341201277E+02  0.38023650547E+02  0.43576327360E+02  0.00000000000E+00 0.  1.
         21    1    1    2  502  501  0.71399550555E+02  0.95508426290E+01 -0.14983100887E+02  0.73577222879E+02  0.00000000000E+00 0.  1.
         21    1    1    2  503  502 -0.11843743853E+03 -0.56231826082E+02  0.33294914910E+03  0.35783317481E+03  0.00000000000E+00 0. -1.
<scales pt_clust_5="13000.00000" pt_clust_6="13000.00000" pt_clust_7="13000.00000" pt_clust_8="13000.00000" pt_clust_9="72.03551" pt_clust_10="122.01147"></scales>
<clustering>
<clus scale="   72.036">  2  9  1 -1</clus>
<clus scale="   83.202">  7  8 -1 -1</clus>
<clus scale="   92.059">  5  6 -1 -1</clus>
<clus scale="  122.011">  1 10  2 -1</clus>
<clus scale="  170.677">  1  7  2 -1</clus>
<clus scale="  122.011">  1  5  2 -1</clus>
</clustering>
</event>
<event>
10    2  0.1133532E-006  0.2206162E+03  0.7546771E-02  0.1133718E+00
         -2   -1    0    0    0  501 -0.00000000000E+00  0.00000000000E+00  0.11612978556E+03  0.11612978556E+03  0.00000000000E+00 0.  1.
          2   -1    0    0  503    0  0.00000000000E+00 -0.00000000000E+00 -0.97867965944E+03  0.97867965944E+03  0.00000000000E+00 0. -1.
         23    2    1    2    0    0 -0.15374994534E+03 -0.17350531802E+03 -0.81931131761E+02  0.26197563648E+03  0.90417822816E+02 0.  0.
         23    2    1    2    0    0  0.64206103490E+02  0.12276568292E+03 -0.35241620173E+03  0.38842624065E+03  0.86509702099E+02 0.  0.
        -11    1    3    3    0    0 -0.10489063073E+03 -0.16800405185E+03 -0.53410033956E+02  0.20513419408E+03  0.00000000000E+00 0. -1.
         11    1    3    3    0    0 -0.48859314611E+02 -0.55012661664E+01 -0.28521097805E+02  0.56841442396E+02  0.00000000000E+00 0.  1.
        -11    1    4    4    0    0  0.39373187841E+02  0.56928577425E+02 -0.27600452653E+03  0.28455159376E+03  0.00000000000E+00 0.  1.
         11    1    4    4    0    0  0.24832915649E+02  0.65837105495E+02 -0.76411675204E+02  0.10387464689E+03  0.00000000000E+00 0. -1.
         21    1    1    2  502  501  0.55923872975E+02  0.61937885052E+02 -0.30504466855E+03  0.31625311221E+03  0.00000000000E+00 0. -1.
         21    1    1    2  503  502  0.33619968873E+02 -0.11198249951E+02 -0.12315787184E+03  0.12815445565E+03  0.00000000000E+00 0. -1.
<scales pt_clust_5="13000.00000" pt_clust_6="13000.00000" pt_clust_7="13000.00000" pt_clust_8="13000.00000" pt_clust_9="89.41223" pt_clust_10="35.43590"></scales>
<clustering>
<clus scale="   35.436">  2 10  1 -1</clus>
<clus scale="   86.510">  7  8 -1 -1</clus>
<clus scale="   89.412">  2  9  1 -1</clus>
<clus scale="   90.418">  5  6 -1 -1</clus>
<clus scale="  219.044">  2  7  1 -1</clus>
<clus scale="   35.436">  2  5  1 -1</clus>
</clustering>
</event>
<event>
10    2  0.1133532E-006  0.1849315E+03  0.7546771E-02  0.1163503E+00
          2   -1    0    0  503    0  0.00000000000E+00  0.00000000000E+00  0.12295005818E+04  0.12295005818E+04  0.00000000000E+00 0. -1.
         -2   -1    0    0    0  501 -0.00000000000E+00 -0.00000000000E+00 -0.24654006543E+03  0.24654006543E+03  0.00000000000E+00 0.  1.
         23    2    1    2    0    0 -0.16687405286E+03  0.90658727875E+02  0.62009375025E+03  0.65511304068E+03  0.92687013717E+02 0.  0.
         23    2    1    2    0    0  0.95537216102E+02 -0.10092115245E+03  0.44603882704E+03  0.47565107506E+03  0.89335722490E+02 0.  0.
        -11    1    3    3    0    0 -0.11384034472E+03  0.84029305125E+02  0.31426328818E+03  0.34464759176E+03  0.00000000000E+00 0. -1.
         11    1    3    3    0    0 -0.53033708136E+02  0.66294227503E+01  0.30583046207E+03  0.31046544892E+03  0.00000000000E+00 0.  1.
        -13    1    4    4    0    0  0.63511246256E+02 -0.10829212466E+03  0.28707136289E+03  0.31332224635E+03  0.00000000000E+00 0. -1.
         13    1    4    4    0    0  0.32025969846E+02  0.73709722066E+01  0.15896746414E+03  0.16232882872E+03  0.00000000000E+00 0.  1.
         21    1    1    2  502  501  0.87068633303E+02  0.22978488087E+02 -0.20388221840E+03  0.22288319093E+03  0.00000000000E+00 0.  1.
         21    1    1    2  503  502 -0.15731796547E+02 -0.12716063513E+02  0.12071015746E+03  0.12239334054E+03  0.00000000000E+00 0. -1.
<scales pt_clust_5="13000.00000" pt_clust_6="13000.00000" pt_clust_7="13000.00000" pt_clust_8="13000.00000" pt_clust_9="89.89152" pt_clust_10="20.22839"></scales>
<clustering>
<clus scale="   20.228">  1 10  2 -1</clus>
<clus scale="   89.336">  7  8 -1 -1</clus>
<clus scale="   89.892">  2  9  1 -1</clus>
<clus scale="   92.687">  5  6 -1 -1</clus>
<clus scale="  183.275">  1  7  2 -1</clus>
<clus scale="   20.228">  1  5  2 -1</clus>
</clustering>
</event>
<event>
10    2  0.1133532E-006  0.1565335E+03  0.7546771E-02  0.1193352E+00
          1   -1    0    0  503    0  0.00000000000E+00  0.00000000000E+00  0.82621235249E+02  0.82621235249E+02  0.00000000000E+00 0. -1.
         -1   -1    0    0    0  501 -0.00000000000E+00 -0.00000000000E+00 -0.48302541364E+03  0.48302541364E+03  0.00000000000E+00 0.  1.
         23    2    1    2    0    0  0.10542962243E+03 -0.12043643533E+02 -0.14475216875E+03  0.20278812001E+03  0.94389494245E+02 0.  0.
         23    2    1    2    0    0 -0.14117593144E+03  0.42432749410E+02 -0.11742601101E+03  0.20905029897E+03  0.90454284583E+02 0.  0.
        -11    1    3    3    0    0  0.54246706165E+02  0.20107218904E+02 -0.12737320454E+03  0.13989617084E+03  0.00000000000E+00 0.  1.
         11    1    3    3    0    0  0.51182916266E+02 -0.32150862437E+02 -0.17378964210E+02  0.62891949166E+02  0.00000000000E+00 0. -1.
        -11    1    4    4    0    0 -0.71571384814E+02 -0.16311141853E+02 -0.20871701858E+02  0.76316082258E+02  0.00000000000E+00 0. -1.
         11    1    4    4    0    0 -0.69604546625E+02  0.58743891263E+02 -0.96554309148E+02  0.13273421671E+03  0.00000000000E+00 0.  1.
         21    1    1    2  502  501  0.13436120751E+02 -0.22361134073E+02 -0.12275567912E+03  0.12549703747E+03  0.00000000000E+00 0. -1.
         21    1    1    2  503  502  0.22310188256E+02 -0.80279718048E+01 -0.15470319520E+02  0.28311192440E+02  0.00000000000E+00 0. -1.
<scales pt_clust_5="13000.00000" pt_clust_6="13000.00000" pt_clust_7="13000.00000" pt_clust_8="13000.00000" pt_clust_9="26.41919" pt_clust_10="23.71061"></scales>
<clustering>
<clus scale="   23.711">  1 10  2 -1</clus>
<clus scale="   26.419">  2  9  1 -1</clus>
<clus scale="   90.454">  7  8 -1 -1</clus>
<clus scale="   94.389">  5  6 -1 -1</clus>
<clus scale="  154.192">  1  7  2 -1</clus>
<clus scale="   23.711">  1  5  2 -1</clus>
</clustering>
</event>
<event>
10    2  0.1133532E-006  0.1309898E+03  0.7546771E-02  0.1232043E+00
         -1   -1    0    0    0  501 -0.00000000000E+00  0.00000000000E+00  0.49441136552E+03  0.49441136552E+03  0.00000000000E+00 0.  1.
          1   -1    0    0  503    0  0.00000000000E+00 -0.00000000000E+00 -0.17748864029E+03  0.17748864029E+03  0.00000000000E+00 0. -1.
         23    2    1    2    0    0 -0.56459226595E+02  0.61371814168E+01  0.22439258219E+03  0.24882381903E+03  0.91301438735E+02 0.  0.
         23    2    1    2    0    0 -0.21479429292E+01  0.19024228003E+02 -0.42724722198E+02  0.11969234723E+03  0.11015589493E+03 0.  0.
        -11    1    3    3    0    0 -0.39780349446E+02 -0.37230660928E+02  0.16276886221E+03  0.17164585873E+03  0.00000000000E+00 0.  1.
         11    1    3    3    0    0 -0.16678877149E+02  0.43367842345E+02  0.61623719980E+02  0.77177960305E+02  0.00000000000E+00 0. -1.
        -13    1    4    4    0    0  0.39055142380E+02 -0.28679520156E+02 -0.14109238676E+02  0.50466718129E+02  0.00000000000E+00 0.  1.
         13    1    4    4    0    0 -0.41203085309E+02  0.47703748159E+02 -0.28615483522E+02  0.69225629102E+02  0.00000000000E+00 0. -1.
         21    1    1    2  502  501 -0.41983111373E+02 -0.27208311717E+02  0.18464577697E+03  0.19130325878E+03  0.00000000000E+00 0.  1.
         21    1    1    2  503  502  0.10059028090E+03  0.20469022970E+01 -0.49390911740E+02  0.11208058076E+03  0.00000000000E+00 0. -1.
<scales pt_clust_5="13000.00000" pt_clust_6="13000.00000" pt_clust_7="13000.00000" pt_clust_8="13000.00000" pt_clust_9="50.02873" pt_clust_10="96.29872"></scales>
<clustering>
<clus scale="   50.029">  1  9  2 -1</clus>
<clus scale="   91.301">  5  6 -1 -1</clus>
<clus scale="   96.299">  2 10  1 -1</clus>
<clus scale="  110.156">  7  8 -1 -1</clus>
<clus scale="  115.585">  1  5  2 -1</clus>
<clus scale="   96.299">  2  5  1 -1</clus>
</clustering>
</event>
<event>
10    2  0.1133532E-006  0.3261604E+03  0.7546771E-02  0.1073304E+00
         -1   -1    0    0    0  501 -0.00000000000E+00  0.00000000000E+00  0.31100676852E+03  0.31100676852E+03  0.00000000000E+00 0.  1.
          1   -1    0    0  503    0  0.00000000000E+00 -0.00000000000E+00 -0.10183889332E+04  0.10183889332E+04  0.00000000000E+00 0. -1.
         23    2    1    2    0    0 -0.33246186299E+03 -0.14221219997E+03 -0.28390145722E+03  0.47125774314E+03  0.10357906593E+03 0.  0.
         23    2    1    2    0    0  0.23131687840E+03  0.14104640528E+03 -0.53844438076E+03  0.60945925804E+03  0.90092448980E+02 0.  0.
        -11    1    3    3    0    0 -0.13823289469E+03 -0.88951296406E+02 -0.73699220590E+02  0.18014505661E+03  0.00000000000E+00 0.  1.
         11    1    3    3    0    0 -0.19422896830E+03 -0.53260903560E+02 -0.21020223663E+03  0.29111268653E+03  0.00000000000E+00 0. -1.
        -13    1    4    4    0    0  0.15503515008E+03  0.14046911874E+03 -0.39799593939E+03  0.44963122540E+03  0.00000000000E+00 0.  1.
         13    1    4    4    0    0  0.76281728321E+02  0.57728653572E+00 -0.14044844137E+03  0.15982803264E+03  0.00000000000E+00 0. -1.
         21    1    1    2  502  501  0.87083803192E+02 -0.40251619600E+02  0.15958075547E+03  0.18619827920E+03  0.00000000000E+00 0.  1.
         21    1    1    2  503  502  0.14061181398E+02  0.41417414290E+02 -0.44617082181E+02  0.62480421342E+02  0.00000000000E+00 0.  1.
<scales pt_clust_5="13000.00000" pt_clust_6="13000.00000" pt_clust_7="13000.00000" pt_clust_8="13000.00000" pt_clust_9="95.87458" pt_clust_10="43.73922"></scales>
<clustering>
<clus scale="   43.739">  2 10  1 -1</clus>
<clus scale="   90.092">  7  8 -1 -1</clus>
<clus scale="   95.875">  1  9  2 -1</clus>
<clus scale="  103.579">  5  6 -1 -1</clus>
<clus scale="  322.131">  2  7  1 -1</clus>
<clus scale="   43.739">  2  5  1 -1</clus>
</clustering>
</event>
<event>
10    2  0.1133532E-006  0.1614559E+03  0.7546771E-02  0.1187115E+00
          1   -1    0    0  503    0  0.00000000000E+00  0.00000000000E+00  0.67489776450E+03  0.67489776450E+03  0.00000000000E+00 0. -1.
         -1   -1    0    0    0  501 -0.00000000000E+00 -0.00000000000E+00 -0.20844852474E+03  0.20844852474E+03  0.00000000000E+00 0.  1.
         23    2    1    2    0    0 -0.11032460195E+03 -0.38204663231E+02 -0.10618294371E+03  0.18218870098E+03  0.91031813886E+02 0.  0.
         23    2    1    2    0    0  0.11739431431E+03  0.75037324902E+02  0.29948858687E+03  0.34271329219E+03  0.91361708739E+02 0.  0.
        -11    1    3    3    0    0 -0.26364144180E+02 -0.46877479226E+02 -0.10863552959E+02  0.54868779282E+02  0.00000000000E+00 0.  1.
         11    1    3    3    0    0 -0.83960457769E+02  0.86728159954E+01 -0.95319390756E+02  0.12731992169E+03  0.00000000000E+00 0. -1.
        -13    1    4    4    0    0  0.63233798135E+02  0.48607595671E+02  0.72240527066E+02  0.10760996856E+03  0.00000000000E+00 0.  1.
         13    1    4    4    0    0  0.54160516170E+02  0.26429729231E+02  0.22724805980E+03  0.23510332363E+03  0.00000000000E+00 0. -1.
         21    1    1    2  502  501 -0.20402090666E+02  0.92884485073E+00 -0.38850009784E+02  0.43891130271E+02  0.00000000000E+00 0.  1.
         21    1    1    2  503  502  0.13332378310E+02 -0.37761506522E+02  0.31199360639E+03  0.31455316580E+03  0.00000000000E+00 0.  1.
<scales pt_clust_5="13000.00000" pt_clust_6="13000.00000" pt_clust_7="13000.00000" pt_clust_8="13000.00000" pt_clust_9="20.42322" pt_clust_10="39.98755"></scales>
<clustering>
<clus scale="   20.423">  2  9  1 -1</clus>
<clus scale="   39.988">  1 10  2 -1</clus>
<clus scale="   91.032">  5  6 -1 -1</clus>
<clus scale="   91.362">  7  8 -1 -1</clus>
<clus scale="  161.269">  2  5  1 -1</clus>
<clus scale="   39.988">  1  5  2 -1</clus>
</clustering>
</event>
<event>
10    2  0.1133532E-006  0.9942160E+02  0.7546771E-02  0.1288686E+00
         -1   -1    0    0    0  501 -0.00000000000E+00  0.00000000000E+00  0.62489170952E+03  0.62489170952E+03  0.00000000000E+00 0.  1.
          1   -1    0    0  503    0  0.00000000000E+00 -0.00000000000E+00 -0.35898248711E+02  0.35898248711E+02  0.00000000000E+00 0. -1.
         23    2    1    2    0    0 -0.22643631712E+02  0.91903590610E+00  0.19671996172E+03  0.21566244264E+03  0.85428140229E+02 0.  0.
         23    2    1    2    0    0 -0.25792283216E+02  0.35283964572E+02  0.19032901389E+03  0.21857985758E+03  0.98192772554E+02 0.  0.
        -11    1    4    4    0    0  0.18783192780E+02 -0.19347761030E+02  0.18101098000E+02  0.32477591300E+02  0.00000000000E+00 0. -1.
         11    1    4    4    0    0 -0.44575475996E+02  0.54631725601E+02  0.17222791589E+03  0.18610226628E+03  0.00000000000E+00 0.  1.
        -13    1    3    3    0    0 -0.18769040160E+02 -0.40601375359E+02  0.79129804414E+02  0.90897054387E+02  0.00000000000E+00 0.  1.
         13    1    3    3    0    0 -0.38745915520E+01  0.41520411265E+02  0.11759015730E+03  0.12476538825E+03  0.00000000000E+00 0. -1.
         21    1    1    2  502  501  0.13504817182E+02 -0.17303853045E+02  0.17968189607E+03  0.18101764331E+03  0.00000000000E+00 0.  1.
         21    1    1    2  503  502  0.34931097747E+02 -0.18899147433E+02  0.22262589142E+02  0.45530014702E+02  0.00000000000E+00 0.  1.
<scales pt_clust_5="13000.00000" pt_clust_6="13000.00000" pt_clust_7="13000.00000" pt_clust_8="13000.00000" pt_clust_9="21.95002" pt_clust_10="41.25497"></scales>
<clustering>
<clus scale="   21.950">  1  9  2 -1</clus>
<clus scale="   41.255">  2 10  1 -1</clus>
<clus scale="   85.428">  7  8 -1 -1</clus>
<clus scale="   86.838">  1  7  2 -1</clus>
<clus scale="   98.193">  5  6 -1 -1</clus>
<clus scale="   41.255">  2  5  1 -1</clus>
</clustering>
</event>
<event>
10    2  0.1133532E-006  0.1266047E+03  0.7546771E-02  0.1248696E+00
          1   -1    0    0  503    0  0.00000000000E+00  0.00000000000E+00  0.61919482990E+03  0.61919482990E+03  0.00000000000E+00 0. -1.
         -1   -1    0    0    0  501 -0.00000000000E+00 -0.00000000000E+00 -0.10823179066E+03  0.10823179066E+03  0.00000000000E+00 0.  1.
         23    2    1    2    0    0 -0.69636555385E+01  0.70621234738E+02  0.18091888638E+02  0.11772211939E+03  0.92170112645E+02 0.  0.
         23    2    1    2    0    0  0.71537503604E+00  0.16687713282E+02  0.16347308166E+03  0.18706879875E+03  0.89399639275E+02 0.  0.
        -11    1    3    3    0    0 -0.26249779363E+02 -0.12798793083E+02 -0.35230042666E+01  0.29415498976E+02  0.00000000000E+00 0. -1.
         11    1    3    3    0    0  0.19286123824E+02  0.83420027821E+02  0.21614892904E+02  0.88306620415E+02  0.00000000000E+00 0.  1.
        -13    1    4    4    0    0  0.21760254792E+02  0.46668888642E+02  0.11749561095E+03  0.12828371856E+03  0.00000000000E+00 0.  1.
         13    1    4    4    0    0 -0.21044879756E+02 -0.29981175360E+02  0.45977470717E+02  0.58785080194E+02  0.00000000000E+00 0. -1.
         21    1    1    2  502  501 -0.47327046798E+02  0.18413031231E+01 -0.24813526722E+02  0.53469158065E+02  0.00000000000E+00 0.  1.
         21    1    1    2  503  502  0.53575327300E+02 -0.89150251143E+02  0.35421159566E+03  0.36916654436E+03  0.00000000000E+00 0. -1.
<scales pt_clust_5="13000.00000" pt_clust_6="13000.00000" pt_clust_7="13000.00000" pt_clust_8="13000.00000" pt_clust_9="47.36285" pt_clust_10="86.79523"></scales>
<clustering>
<clus scale="   47.363">  2  9  1 -1</clus>
<clus scale="   89.400">  7  8 -1 -1</clus>
<clus scale="   91.300">  1  7  2 -1</clus>
<clus scale="   86.795">  1 10  2 -1</clus>
<clus scale="   92.170">  5  6 -1 -1</clus>
<clus scale="   91.300">  1  5  2 -1</clus>
</clustering>
</event>
<event>
10    2  0.1133532E-006  0.3068405E+03  0.7546771E-02  0.1095929E+00
         -1   -1    0    0    0  501 -0.00000000000E+00  0.00000000000E+00  0.13613267711E+04  0.13613267711E+04  0.00000000000E+00 0.  1.
          1   -1    0    0  503    0  0.00000000000E+00 -0.00000000000E+00 -0.13770442701E+03  0.13770442701E+03  0.00000000000E+00 0. -1.
         23    2    1    2    0    0 -0.53232614340E+02  0.18350308947E+03  0.32475018637E+03  0.38751083218E+03  0.90525501557E+02 0.  0.
         23    2    1    2    0    0  0.29726447451E+03  0.61010384694E+01  0.56716370767E+03  0.64705865152E+03  0.92773038874E+02 0.  0.
        -11    1    3    3    0    0  0.12235341669E+02  0.11824777517E+03  0.17636486820E+03  0.21268946061E+03  0.00000000000E+00 0.  1.
         11    1    3    3    0    0 -0.65467956009E+02  0.65255314294E+02  0.14838531818E+03  0.17482137157E+03  0.00000000000E+00 0. -1.
        -11    1    4    4    0    0  0.14900813889E+03  0.41843210235E+02  0.33850043497E+03  0.37220535215E+03  0.00000000000E+00 0.  1.
         11    1    4    4    0    0  0.14825633562E+03 -0.35742171765E+02  0.22866327270E+03  0.27485329937E+03  0.00000000000E+00 0. -1.
         21    1    1    2  502  501 -0.33656737464E+02 -0.21172272793E+02  0.10505177978E+03  0.11232505307E+03  0.00000000000E+00 0. -1.
         21    1    1    2  503  502 -0.21037512270E+03 -0.16843185514E+03  0.22665667026E+03  0.35213666133E+03  0.00000000000E+00 0. -1.
<scales pt_clust_5="13000.00000" pt_clust_6="13000.00000" pt_clust_7="13000.00000" pt_clust_8="13000.00000" pt_clust_9="38.78024" pt_clust_10="38.78024"></scales>
<clustering>
<clus scale="   38.780">  9 10 -1 -1</clus>
<clus scale="   90.526">  5  6 -1 -1</clus>
<clus scale="   92.773">  7  8 -1 -1</clus>
<clus scale="  211.428">  1  5  2 -1</clus>
<clus scale="  304.245">  1  7  2 -1</clus>
<clus scale="  306.841">  2  5  1 -1</clus>
</clustering>
</event>
<event>
10    2  0.1133532E-006  0.3243266E+03  0.7546771E-02  0.1122872E+00
         -2   -1    0    0    0  501 -0.00000000000E+00  0.00000000000E+00  0.38118192828E+03  0.38118192828E+03  0.00000000000E+00 0.  1.
          2   -1    0    0  503    0  0.00000000000E+00 -0.00000000000E+00 -0.16473006922E+04  0.16473006922E+04  0.00000000000E+00 0. -1.
         23    2    1    2    0    0  0.73598705702E+01 -0.29700645468E+01  0.17570434426E+03  0.19571031388E+03  0.85834266990E+02 0.  0.
         23    2    1    2    0    0  0.18096776629E+03  0.28887225676E+03 -0.16042662987E+03  0.38930074687E+03  0.98091053549E+02 0.  0.
        -11    1    3    3    0    0  0.33944145588E+02 -0.14834071747E+02  0.31588352229E+02  0.48683454076E+02  0.00000000000E+00 0.  1.
         11    1    3    3    0    0 -0.26584275018E+02  0.11864007200E+02  0.14411599203E+03  0.14702685981E+03  0.00000000000E+00 0. -1.
        -11    1    4    4    0    0  0.52550049161E+02  0.15153578593E+03 -0.11048036453E+03  0.19475757502E+03  0.00000000000E+00 0.  1.
         11    1    4    4    0    0  0.12841771713E+03  0.13733647083E+03 -0.49946265346E+02  0.19454317185E+03  0.00000000000E+00 0. -1.
         21    1    1    2  502  501 -0.70928997283E+01 -0.41177667730E+02  0.57108348738E+02  0.70762087603E+02  0.00000000000E+00 0.  1.
         21    1    1    2  503  502 -0.18123473713E+03 -0.24472452448E+03 -0.13385048271E+04  0.13727094721E+04  0.00000000000E+00 0. -1.
<scales pt_clust_5="13000.00000" pt_clust_6="13000.00000" pt_clust_7="13000.00000" pt_clust_8="13000.00000" pt_clust_9="41.78408" pt_clust_10="309.13735"></scales>
<clustering>
<clus scale="   41.784">  1  9  2 -1</clus>
<clus scale="   85.834">  5  6 -1 -1</clus>
<clus scale="   90.060">  1  5  2 -1</clus>
<clus scale="   98.091">  7  8 -1 -1</clus>
<clus scale="  309.137">  2 10  1 -1</clus>
<clus scale="  309.137">  2  5  1 -1</clus>
</clustering>
</event>
<event>
10    2  0.1133532E-006  0.1842870E+03  0.7546771E-02  0.1163975E+00
          1   -1    0    0  503    0  0.00000000000E+00  0.00000000000E+00  0.56043513648E+03  0.56043513648E+03  0.00000000000E+00 0. -1.
         -1   -1    0    0    0  501 -0.00000000000E+00 -0.00000000000E+00 -0.11408484591E+03  0.11408484591E+03  0.00000000000E+00 0.  1.
         23    2    1    2    0    0 -0.15486314363E+03  0.60995578800E+02  0.77266615212E+02  0.20413574540E+03  0.89432761543E+02 0.  0.
         23    2    1    2    0    0  0.13924352181E+03 -0.68075552806E+02  0.26401542913E+03  0.31831210525E+03  0.87151651012E+02 0.  0.
        -11    1    3    3    0    0 -0.15178757467E+03  0.29599893861E+02  0.50261249625E+02  0.16260939319E+03  0.00000000000E+00 0.  1.
         11    1    3    3    0    0 -0.30755689566E+01  0.31395684939E+02  0.27005365587E+02  0.41526352208E+02  0.00000000000E+00 0. -1.
        -11    1    4    4    0    0  0.40565649463E+02 -0.92512434557E+01  0.15299782530E+03  0.15855438174E+03  0.00000000000E+00 0.  1.
         11    1    4    4    0    0  0.98677872346E+02 -0.58824309351E+02  0.11101760383E+03  0.15975772351E+03  0.00000000000E+00 0. -1.
         21    1    1    2  502  501  0.19954990524E+02  0.33170313284E+02 -0.48536462629E+01  0.39013192797E+02  0.00000000000E+00 0.  1.
         21    1    1    2  503  502 -0.43353687062E+01 -0.26090339278E+02  0.10992189249E+03  0.11305893894E+03  0.00000000000E+00 0. -1.
<scales pt_clust_5="13000.00000" pt_clust_6="13000.00000" pt_clust_7="13000.00000" pt_clust_8="13000.00000" pt_clust_9="37.77635" pt_clust_10="26.44809"></scales>
<clustering>
<clus scale="   26.448">  1 10  2 -1</clus>
<clus scale="   37.776">  2  9  1 -1</clus>
<clus scale="   87.152">  7  8 -1 -1</clus>
<clus scale="   89.433">  5  6 -1 -1</clus>
<clus scale="  183.191">  1  7  2 -1</clus>
<clus scale="   26.448">  1  5  2 -1</clus>
</clustering>
</event>
<event>
10    2  0.1133532E-006  0.1859307E+03  0.7546771E-02  0.1162466E+00
         -2   -1    0    0    0  501 -0.00000000000E+00  0.00000000000E+00  0.41594113592E+03  0.41594113592E+03  0.00000000000E+00 0.  1.
          2   -1    0    0  503    0  0.00000000000E+00 -0.00000000000E+00 -0.30456139778E+03  0.30456139778E+03  0.00000000000E+00 0. -1.
         23    2    1    2    0    0 -0.41803579941E+02 -0.81397016476E+02  0.14035158246E+03  0.18987904311E+03  0.89344673753E+02 0.  0.
         23    2    1    2    0    0 -0.19218827540E+01  0.20356380365E+03 -0.16093585548E+03  0.27527214142E+03  0.91828571120E+02 0.  0.
        -11    1    4    4    0    0 -0.37550753218E+02  0.62107748327E+02 -0.27618466670E+02  0.77654434327E+02  0.00000000000E+00 0.  1.
         11    1    4    4    0    0  0.35628870464E+02  0.14145605532E+03 -0.13331738881E+03  0.19761770709E+03  0.00000000000E+00 0. -1.
        -13    1    3    3    0    0  0.22834057276E+01 -0.51428129205E+02  0.12377387883E+03  0.13405237595E+03  0.00000000000E+00 0.  1.
         13    1    3    3    0    0 -0.44086985668E+02 -0.29968887271E+02  0.16577703625E+02  0.55826667168E+02  0.00000000000E+00 0. -1.
         21    1    1    2  502  501  0.42704845736E+02 -0.10009221920E+03  0.17551591204E+03  0.20651390165E+03  0.00000000000E+00 0.  1.
         21    1    1    2  503  502  0.10206169581E+01 -0.22074567973E+02 -0.43551900883E+02  0.48837447525E+02  0.00000000000E+00 0.  1.
<scales pt_clust_5="13000.00000" pt_clust_6="13000.00000" pt_clust_7="13000.00000" pt_clust_8="13000.00000" pt_clust_9="110.06466" pt_clust_10="22.09815"></scales>
<clustering>
<clus scale="   22.098">  2 10  1 -1</clus>
<clus scale="   89.345">  7  8 -1 -1</clus>
<clus scale="   91.829">  5  6 -1 -1</clus>
<clus scale="  110.065">  1  9  2 -1</clus>
<clus scale="  184.717">  1  7  2 -1</clus>
<clus scale="   22.098">  2  5  1 -1</clus>
</clustering>
</event>
<event>
10    2  0.1133532E-006  0.9913646E+02  0.7546771E-02  0.1282916E+00
         -2   -1    0    0    0  501 -0.00000000000E+00  0.00000000000E+00  0.55443429688E+02  0.55443429688E+02  0.00000000000E+00 0.  1.
          2   -1    0    0  503    0  0.00000000000E+00 -0.00000000000E+00 -0.45561212400E+03  0.45561212400E+03  0.00000000000E+00 0. -1.
         23    2    1    2    0    0  0.57166975079E+02  0.31597026122E+02 -0.20491453446E+03  0.23401662460E+03  0.92235454459E+02 0.  0.
         23    2    1    2    0    0 -0.15612823489E+02  0.14939220848E+02 -0.14789230916E+03  0.17479997658E+03  0.90641911536E+02 0.  0.
        -11    1    3    3    0    0  0.77299312982E+02  0.17608098668E+02 -0.10754437366E+03  0.13360771397E+03  0.00000000000E+00 0.  1.
         11    1    3    3    0    0 -0.20132337904E+02  0.13988927454E+02 -0.97370160802E+02  0.10040891064E+03  0.00000000000E+00 0. -1.
        -13    1    4    4    0    0 -0.31030328975E+02 -0.26735179193E+02 -0.10637302121E+03  0.11398627446E+03  0.00000000000E+00 0. -1.
         13    1    4    4    0    0  0.15417505486E+02  0.41674400041E+02 -0.41519287946E+02  0.60813702122E+02  0.00000000000E+00 0.  1.
         21    1    1    2  502  501 -0.72918462516E+01 -0.21203899215E+02  0.14806058184E+02  0.26869978091E+02  0.00000000000E+00 0. -1.
         21    1    1    2  503  502 -0.34262305338E+02 -0.25332347755E+02 -0.62167908877E+02  0.75368974413E+02  0.00000000000E+00 0. -1.
<scales pt_clust_5="13000.00000" pt_clust_6="13000.00000" pt_clust_7="13000.00000" pt_clust_8="13000.00000" pt_clust_9="22.42268" pt_clust_10="46.19672"></scales>
<clustering>
<clus scale="   22.423">  1  9  2 -1</clus>
<clus scale="   46.197">  1 10  2 -1</clus>
<clus scale="   90.642">  7  8 -1 -1</clus>
<clus scale="   92.235">  5  6 -1 -1</clus>
<clus scale="   97.656">  2  7  1 -1</clus>
<clus scale="   97.656">  2  5  1 -1</clus>
</clustering>
</event>
<event>
10    2  0.1133532E-006  0.3157589E+03  0.7546771E-02  0.1077744E+00
          1   -1    0    0  503    0  0.00000000000E+00  0.00000000000E+00  0.34539102623E+03  0.34539102623E+03  0.00000000000E+00 0. -1.
         -1   -1    0    0    0  501 -0.00000000000E+00 -0.00000000000E+00 -0.43337336829E+03  0.43337336829E+03  0.00000000000E+00 0.  1.
         23    2    1    2    0    0  0.26444599276E+03 -0.11925851760E+03 -0.16014869256E+03  0.34419528586E+03  0.93104854757E+02 0.  0.
         23    2    1    2    0    0 -0.26020750103E+03  0.15306099720E+03  0.47248427867E+02  0.31836700356E+03  0.89384129269E+02 0.  0.
        -11    1    4    4    0    0 -0.22392227941E+03  0.15658713635E+03  0.59988797034E+02  0.27974876989E+03  0.00000000000E+00 0. -1.
         11    1    4    4    0    0 -0.36285221623E+02 -0.35261391494E+01 -0.12740369167E+02  0.38618233673E+02  0.00000000000E+00 0.  1.
        -13    1    3    3    0    0  0.21289681837E+03 -0.50886184018E+02 -0.11988949510E+03  0.24957553973E+03  0.00000000000E+00 0.  1.
         13    1    3    3    0    0  0.51549174388E+02 -0.68372333577E+02 -0.40259197457E+02  0.94619746136E+02  0.00000000000E+00 0. -1.
         21    1    1    2  502  501  0.34221744737E+01 -0.55179158224E+02 -0.25517823091E+02  0.60890147608E+02  0.00000000000E+00 0. -1.
         21    1    1    2  503  502 -0.76606662028E+01  0.21376678620E+02  0.50435745711E+02  0.55311957486E+02  0.00000000000E+00 0. -1.
<scales pt_clust_5="13000.00000" pt_clust_6="13000.00000" pt_clust_7="13000.00000" pt_clust_8="13000.00000" pt_clust_9="53.96786" pt_clust_10="22.70789"></scales>
<clustering>
<clus scale="   22.708">  1 10  2 -1</clus>
<clus scale="   53.968">  2  9  1 -1</clus>
<clus scale="   89.384">  5  6 -1 -1</clus>
<clus scale="   93.105">  7  8 -1 -1</clus>
<clus scale="  314.682">  1  5  2 -1</clus>
<clus scale="   22.708">  1  5  2 -1</clus>
</clustering>
</event>
<event>
10    2  0.1133532E-006  0.1293214E+03  0.7546771E-02  0.1229615E+00
          1   -1    0    0  502    0  0.00000000000E+00  0.00000000000E+00  0.40065979409E+03  0.40065979409E+03  0.00000000000E+00 0. -1.
         -1   -1    0    0    0  501 -0.00000000000E+00 -0.00000000000E+00 -0.11810078472E+03  0.11810078472E+03  0.00000000000E+00 0.  1.
         23    2    1    2    0    0 -0.67689974721E+02  0.81683460226E+02  0.39469726168E+02  0.14100066836E+03  0.84078587302E+02 0.  0.
         23    2    1    2    0    0  0.21850234738E+02 -0.90603909410E+02  0.27223666259E+03  0.30107239641E+03  0.88573620578E+02 0.  0.
        -11    1    3    3    0    0 -0.26464576979E+02 -0.77086245803E+01  0.32062151115E+02  0.42282126978E+02  0.00000000000E+00 0. -1.
         11    1    3    3    0    0 -0.41225397742E+02  0.89392084806E+02  0.74075750527E+01  0.98718541385E+02  0.00000000000E+00 0.  1.
        -11    1    4    4    0    0 -0.83470224822E+01 -0.92706710700E+02  0.16285221857E+03  0.18757678984E+03  0.00000000000E+00 0.  1.
         11    1    4    4    0    0  0.30197257220E+02  0.21028012904E+01  0.10938444402E+03  0.11349560657E+03  0.00000000000E+00 0. -1.
         21    1    1    2  502  503  0.35348538841E+02 -0.10097123685E+02 -0.38327149334E+02  0.53107828810E+02  0.00000000000E+00 0.  1.
         21    1    1    2  503  501  0.10491201143E+02  0.19017572869E+02  0.91797699404E+01  0.23579685227E+02  0.00000000000E+00 0.  1.
<scales pt_clust_5="13000.00000" pt_clust_6="13000.00000" pt_clust_7="13000.00000" pt_clust_8="13000.00000" pt_clust_9="39.73757" pt_clust_10="21.71942"></scales>
<clustering>
<clus scale="   21.719">  2 10  1 -1</clus>
<clus scale="   39.738">  2  9  1 -1</clus>
<clus scale="   84.079">  5  6 -1 -1</clus>
<clus scale="   88.574">  7  8 -1 -1</clus>
<clus scale="  126.285">  2  5  1 -1</clus>
<clus scale="  129.321">  1  5  2 -1</clus>
</clustering>
</event>
<event>
10    2  0.1133532E-006  0.9244494E+02  0.7546771E-02  0.1297468E+00
         -2   -1    0    0    0  501 -0.00000000000E+00  0.00000000000E+00  0.18880911107E+03  0.18880911107E+03  0.00000000000E+00 0.  1.
          2   -1    0    0  503    0  0.00000000000E+00 -0.00000000000E+00 -0.85325147464E+02  0.85325147464E+02  0.00000000000E+00 0. -1.
         23    2    1    2    0    0 -0.11284145217E+02 -0.25624816143E+01  0.78919537859E+02  0.12146415965E+03  0.91604314190E+02 0.  0.
         23    2    1    2    0    0  0.12882731756E+02 -0.20037667764E+02  0.22491724603E+02  0.96588935272E+02  0.90862928824E+02 0.  0.
        -11    1    3    3    0    0  0.58274646605E+01 -0.39671233771E+02  0.68369835570E+02  0.79260334021E+02  0.00000000000E+00 0.  1.
         11    1    3    3    0    0 -0.17111609877E+02  0.37108752157E+02  0.10549702289E+02  0.42203825628E+02  0.00000000000E+00 0. -1.
        -11    1    4    4    0    0 -0.32408952627E+02 -0.26595594459E+02 -0.64842207627E+01  0.42423000529E+02  0.00000000000E+00 0.  1.
         11    1    4    4    0    0  0.45291684383E+02  0.65579266956E+01  0.28975945366E+02  0.54165934743E+02  0.00000000000E+00 0. -1.
         21    1    1    2  502  501  0.19067601674E+02  0.15689371081E+02  0.16723506964E+02  0.29822901999E+02  0.00000000000E+00 0. -1.
         21    1    1    2  503  502 -0.20666188212E+02  0.69107782970E+01 -0.14650805818E+02  0.26258261614E+02  0.00000000000E+00 0.  1.
<scales pt_clust_5="13000.00000" pt_clust_6="13000.00000" pt_clust_7="13000.00000" pt_clust_8="13000.00000" pt_clust_9="23.59858" pt_clust_10="21.79106"></scales>
<clustering>
<clus scale="   21.791">  2 10  1 -1</clus>
<clus scale="   23.599">  1  9  2 -1</clus>
<clus scale="   90.863">  7  8 -1 -1</clus>
<clus scale="   91.604">  5  6 -1 -1</clus>
<clus scale="   91.710">  2  7  1 -1</clus>
<clus scale="   21.791">  2  5  1 -1</clus>
</clustering>
</event>
<event>
10    2  0.1133532E-006  0.1097487E+03  0.7546771E-02  0.1266980E+00
         -1   -1    0    0    0  501 -0.00000000000E+00  0.00000000000E+00  0.27137670058E+02  0.27137670058E+02  0.00000000000E+00 0.  1.
          1   -1    0    0  503    0  0.00000000000E+00 -0.00000000000E+00 -0.83862657094E+03  0.83862657094E+03  0.00000000000E+00 0. -1.
         23    2    1    2    0    0 -0.21516863435E+02  0.23047103417E+02 -0.13599250472E+03  0.16630686897E+03  0.90387327317E+02 0.  0.
         23    2    1    2    0    0  0.55133996137E+01 -0.25383998140E+02 -0.50206992946E+03  0.51323891782E+03  0.10327258958E+03 0.  0.
        -11    1    4    4    0    0 -0.42398432672E+02  0.11049787876E+02 -0.15888654252E+03  0.16481704493E+03  0.00000000000E+00 0.  1.
         11    1    4    4    0    0  0.47911832286E+02 -0.36433786015E+02 -0.34318338694E+03  0.34842187289E+03  0.00000000000E+00 0. -1.
        -13    1    3    3    0    0  0.90599966736E+01 -0.30138415721E+02 -0.66747973722E+02  0.73794983827E+02  0.00000000000E+00 0. -1.
         13    1    3    3    0    0 -0.30576860109E+02  0.53185519139E+02 -0.69244530994E+02  0.92511885143E+02  0.00000000000E+00 0.  1.
         21    1    1    2  502  501 -0.21899354814E+00  0.20564416488E+02 -0.13866985695E+02  0.24803960892E+02  0.00000000000E+00 0.  1.
         21    1    1    2  503  502  0.16222457369E+02 -0.18227521766E+02 -0.15955948101E+03  0.16141449332E+03  0.00000000000E+00 0. -1.
<scales pt_clust_5="13000.00000" pt_clust_6="13000.00000" pt_clust_7="13000.00000" pt_clust_8="13000.00000" pt_clust_9="20.56558" pt_clust_10="23.74433"></scales>
<clustering>
<clus scale="   20.566">  1  9  2 -1</clus>
<clus scale="   23.744">  2 10  1 -1</clus>
<clus scale="   90.387">  7  8 -1 -1</clus>
<clus scale="   97.721">  1  7  2 -1</clus>
<clus scale="  103.273">  5  6 -1 -1</clus>
<clus scale="   23.744">  2  5  1 -1</clus>
</clustering>
</event>
<event>
10    2  0.1133532E-006  0.1066102E+03  0.7546771E-02  0.1267191E+00
          1   -1    0    0  503    0  0.00000000000E+00  0.00000000000E+00  0.54915644460E+03  0.54915644460E+03  0.00000000000E+00 0. -1.
         -1   -1    0    0    0  501 -0.00000000000E+00 -0.00000000000E+00 -0.78476196796E+02  0.78476196796E+02  0.00000000000E+00 0.  1.
         23    2    1    2    0    0  0.52867430048E+02 -0.12563314531E+02  0.86762416311E+02  0.13687182636E+03  0.90848103647E+02 0.  0.
         23    2    1    2    0    0 -0.41220374265E+02  0.15286010630E+02  0.19654350918E+03  0.22115271783E+03  0.91358591426E+02 0.  0.
        -11    1    3    3    0    0  0.22367715417E+02  0.32279261459E+02  0.62023969956E+01  0.39758460003E+02  0.00000000000E+00 0. -1.
         11    1    3    3    0    0  0.30499714631E+02 -0.44842575990E+02  0.80560019315E+02  0.97113366361E+02  0.00000000000E+00 0.  1.
        -13    1    4    4    0    0 -0.57343034093E+02 -0.18603653181E+02  0.14790067209E+03  0.15971514730E+03  0.00000000000E+00 0. -1.
         13    1    4    4    0    0  0.16122659827E+02  0.33889663810E+02  0.48642837083E+02  0.61437570530E+02  0.00000000000E+00 0.  1.
         21    1    1    2  502  501  0.19422665899E+02  0.62285639180E+01 -0.37357010173E+02  0.42562673414E+02  0.00000000000E+00 0.  1.
         21    1    1    2  503  502 -0.31069721681E+02 -0.89512600165E+01  0.22473133249E+03  0.22704542379E+03  0.00000000000E+00 0. -1.
<scales pt_clust_5="13000.00000" pt_clust_6="13000.00000" pt_clust_7="13000.00000" pt_clust_8="13000.00000" pt_clust_9="20.39694" pt_clust_10="31.72101"></scales>
<clustering>
<clus scale="   20.397">  2  9  1 -1</clus>
<clus scale="   31.721">  1 10  2 -1</clus>
<clus scale="   90.848">  5  6 -1 -1</clus>
<clus scale="   91.359">  7  8 -1 -1</clus>
<clus scale="  106.173">  2  5  1 -1</clus>
<clus scale="   31.721">  1  5  2 -1</clus>
</clustering>
</event>
<event>
10    2  0.1133532E-006  0.1391007E+03  0.7546771E-02  0.1218436E+00
         -1   -1    0    0    0  501 -0.00000000000E+00  0.00000000000E+00  0.15090237786E+03  0.15090237786E+03  0.00000000000E+00 0.  1.
          1   -1    0    0  503    0  0.00000000000E+00 -0.00000000000E+00 -0.18184176023E+03  0.18184176023E+03  0.00000000000E+00 0. -1.
         23    2    1    2    0    0  0.10884596277E+03  0.28258622594E+02  0.83501813426E+01  0.15489987193E+03  0.10619911222E+03 0.  0.
         23    2    1    2    0    0 -0.71063928319E+02 -0.22881300331E+02 -0.35768017862E+02  0.12328092648E+03  0.91352065767E+02 0.  0.
        -11    1    3    3    0    0  0.21247151593E+02 -0.34277366077E+02  0.22762433268E+02  0.46308829010E+02  0.00000000000E+00 0.  1.
         11    1    3    3    0    0  0.87598811172E+02  0.62535988670E+02 -0.14412251925E+02  0.10859104292E+03  0.00000000000E+00 0. -1.
        -11    1    4    4    0    0 -0.28862211575E+02 -0.54823856940E+02 -0.52348766524E+01  0.62177861658E+02  0.00000000000E+00 0.  1.
         11    1    4    4    0    0 -0.42201716744E+02  0.31942556610E+02 -0.30533141210E+02  0.61103064825E+02  0.00000000000E+00 0. -1.
         21    1    1    2  502  501 -0.25713659861E+02 -0.21910090861E+02  0.65997029562E-01  0.33782373224E+02  0.00000000000E+00 0.  1.
         21    1    1    2  503  502 -0.12068374585E+02  0.16532768598E+02 -0.35875428756E+01  0.20780966448E+02  0.00000000000E+00 0.  1.
<scales pt_clust_5="13000.00000" pt_clust_6="13000.00000" pt_clust_7="13000.00000" pt_clust_8="13000.00000" pt_clust_9="33.69072" pt_clust_10="20.46895"></scales>
<clustering>
<clus scale="   20.469">  2 10  1 -1</clus>
<clus scale="   33.691">  1  9  2 -1</clus>
<clus scale="   91.352">  7  8 -1 -1</clus>
<clus scale="  106.199">  5  6 -1 -1</clus>
<clus scale="  128.125">  2  7  1 -1</clus>
<clus scale="   20.469">  2  5  1 -1</clus>
</clustering>
</event>
<event>
10    2  0.1133532E-006  0.1118221E+03  0.7546771E-02  0.1257332E+00
          1   -1    0    0  503    0  0.00000000000E+00  0.00000000000E+00  0.29925574585E+03  0.29925574585E+03  0.00000000000E+00 0. -1.
         -1   -1    0    0    0  501 -0.00000000000E+00 -0.00000000000E+00 -0.19716196621E+03  0.19716196621E+03  0.00000000000E+00 0.  1.
         23    2    1    2    0    0  0.72716045444E+02 -0.76830203479E+02 -0.10879019706E+03  0.17758316916E+03  0.92249507105E+02 0.  0.
         23    2    1    2    0    0 -0.61482570944E+02 -0.83362770023E+00  0.20131710523E+03  0.22993089632E+03  0.92513992238E+02 0.  0.
        -11    1    4    4    0    0  0.19824809661E+02  0.16630854060E+02  0.30891142158E+02  0.40297283390E+02  0.00000000000E+00 0.  1.
         11    1    4    4    0    0 -0.81307380605E+02 -0.17464481760E+02  0.17042596307E+03  0.18963361293E+03  0.00000000000E+00 0. -1.
        -13    1    3    3    0    0  0.14384408195E+02 -0.52273860919E+02 -0.29917635471E+01  0.54299340545E+02  0.00000000000E+00 0. -1.
         13    1    3    3    0    0  0.58331637249E+02 -0.24556342559E+02 -0.10579843352E+03  0.12328382862E+03  0.00000000000E+00 0.  1.
         21    1    1    2  502  501 -0.21639698126E+02  0.21642630815E+02 -0.23357330077E+01  0.30694228322E+02  0.00000000000E+00 0.  1.
         21    1    1    2  503  502  0.10406223626E+02  0.56021200363E+02  0.11902604483E+02  0.58209418257E+02  0.00000000000E+00 0.  1.
<scales pt_clust_5="13000.00000" pt_clust_6="13000.00000" pt_clust_7="13000.00000" pt_clust_8="13000.00000" pt_clust_9="29.81042" pt_clust_10="88.38740"></scales>
<clustering>
<clus scale="   29.810">  9 10 -1 -1</clus>
<clus scale="   88.387">  2  9  1 -1</clus>
<clus scale="   92.250">  7  8 -1 -1</clus>
<clus scale="   92.514">  5  6 -1 -1</clus>
<clus scale="  111.603">  2  7  1 -1</clus>
<clus scale="  111.822">  1  5  2 -1</clus>
</clustering>
</event>
<event>
10    2  0.1133532E-006  0.9242685E+02  0.7546771E-02  0.1297093E+00
          1   -1    0    0  503    0  0.00000000000E+00  0.00000000000E+00  0.38173839490E+03  0.38173839490E+03  0.00000000000E+00 0. -1.
         -1   -1    0    0    0  501 -0.00000000000E+00 -0.00000000000E+00 -0.15926384482E+03  0.15926384482E+03  0.00000000000E+00 0.  1.
         23    2    1    2    0    0  0.22344622481E+02  0.23804946468E+02 -0.71661699835E+02  0.12136320122E+03  0.92345382979E+02 0.  0.
         23    2    1    2    0    0 -0.11319610845E+02 -0.45750242034E+01  0.25782862843E+03  0.27414764660E+03  0.92370266107E+02 0.  0.
        -11    1    3    3    0    0  0.19775374816E+02 -0.19635218057E+02  0.93577943787E+01  0.29396862977E+02  0.00000000000E+00 0. -1.
         11    1    3    3    0    0  0.25692476653E+01  0.43440164525E+02 -0.81019494213E+02  0.91966338245E+02  0.00000000000E+00 0.  1.
        -13    1    4    4    0    0 -0.11248734655E+02  0.41746897025E+02  0.16260509487E+03  0.16825502762E+03  0.00000000000E+00 0.  1.
         13    1    4    4    0    0 -0.70876190409E-01 -0.46321921229E+02  0.95223533560E+02  0.10589261898E+03  0.00000000000E+00 0. -1.
         21    1    1    2  502  501 -0.28826942892E+02 -0.30236327535E+02 -0.45076991467E+02  0.61458630794E+02  0.00000000000E+00 0.  1.
         21    1    1    2  503  502  0.17801931256E+02  0.11006405270E+02  0.81384612953E+02  0.84032761105E+02  0.00000000000E+00 0. -1.
<scales pt_clust_5="13000.00000" pt_clust_6="13000.00000" pt_clust_7="13000.00000" pt_clust_8="13000.00000" pt_clust_9="41.22150" pt_clust_10="20.92964"></scales>
<clustering>
<clus scale="   20.930">  1 10  2 -1</clus>
<clus scale="   41.222">  2  9  1 -1</clus>
<clus scale="   92.345">  5  6 -1 -1</clus>
<clus scale="   92.370">  7  8 -1 -1</clus>
<clus scale="   92.402">  2  5  1 -1</clus>
<clus scale="   20.930">  1  5  2 -1</clus>
</clustering>
</event>
<event>
10    2  0.1133532E-006  0.1276207E+03  0.7546771E-02  0.1231149E+00
         -1   -1    0    0    0  501 -0.00000000000E+00  0.00000000000E+00  0.37358235788E+03  0.37358235788E+03  0.00000000000E+00 0.  1.
          1   -1    0    0  503    0  0.00000000000E+00 -0.00000000000E+00 -0.17078760346E+03  0.17078760346E+03  0.00000000000E+00 0. -1.
         23    2    1    2    0    0  0.19160013543E+02 -0.64406040218E+02  0.29747090088E+03  0.31862934256E+03  0.92306429542E+02 0.  0.
         23    2    1    2    0    0 -0.31355351181E+02  0.83854714626E+02 -0.88925850859E+02  0.15608687389E+03  0.91872379083E+02 0.  0.
        -13    1    3    3    0    0  0.37411306982E+02 -0.80259799750E+02  0.25242196653E+03  0.26750344022E+03  0.00000000000E+00 0.  1.
         13    1    3    3    0    0 -0.18251293438E+02  0.15853759532E+02  0.45048934356E+02  0.51125902340E+02  0.00000000000E+00 0. -1.
        -13    1    4    4    0    0 -0.60855762143E+02  0.48491124353E+02 -0.74754626699E+02  0.10790304509E+03  0.00000000000E+00 0. -1.
         13    1    4    4    0    0  0.29500410962E+02  0.35363590273E+02 -0.14171224160E+02  0.48183828803E+02  0.00000000000E+00 0.  1.
         21    1    1    2  502  501 -0.10005847452E+02 -0.26598209840E+02  0.20121580188E+02  0.34820392577E+02  0.00000000000E+00 0. -1.
         21    1    1    2  503  502  0.22201185090E+02  0.71495354320E+01 -0.25871875787E+02  0.34833352308E+02  0.00000000000E+00 0.  1.
<scales pt_clust_5="13000.00000" pt_clust_6="13000.00000" pt_clust_7="13000.00000" pt_clust_8="13000.00000" pt_clust_9="27.67521" pt_clust_10="23.32399"></scales>
<clustering>
<clus scale="   23.324">  2 10  1 -1</clus>
<clus scale="   27.675">  1  9  2 -1</clus>
<clus scale="   91.872">  7  8 -1 -1</clus>
<clus scale="   92.306">  5  6 -1 -1</clus>
<clus scale="  127.307">  2  7  1 -1</clus>
<clus scale="   23.324">  2  5  1 -1</clus>
</clustering>
</event>
<event>
10    2  0.1133532E-006  0.1418976E+03  0.7546771E-02  0.1212121E+00
         -3   -1    0    0    0  501 -0.00000000000E+00  0.00000000000E+00  0.98098321808E+02  0.98098321808E+02  0.00000000000E+00 0.  1.
          3   -1    0    0  503    0  0.00000000000E+00 -0.00000000000E+00 -0.44576004660E+03  0.44576004660E+03  0.00000000000E+00 0. -1.
         23    2    1    2    0    0  0.77175384688E+02 -0.75063986849E+02 -0.15703687249E+03  0.21333535964E+03  0.96232812646E+02 0.  0.
         23    2    1    2    0    0 -0.76958502843E+02  0.51092344106E+02 -0.15853930160E+03  0.20983788442E+03  0.10180466001E+03 0.  0.
        -11    1    3    3    0    0  0.70525664105E+02 -0.41830935188E+02 -0.39512345542E+02  0.91021546275E+02  0.00000000000E+00 0. -1.
         11    1    3    3    0    0  0.66497205838E+01 -0.33233051661E+02 -0.11752452695E+03  0.12231381337E+03  0.00000000000E+00 0.  1.
        -13    1    4    4    0    0 -0.31577500637E+02  0.48247661930E+02 -0.15448345656E+02  0.59696120575E+02  0.00000000000E+00 0.  1.
         13    1    4    4    0    0 -0.45381002205E+02  0.28446821756E+01 -0.14309095594E+03  0.15014176384E+03  0.00000000000E+00 0. -1.
         21    1    1    2  502  501  0.99838031473E+01  0.47313059697E+02  0.27680326557E+02  0.55717164514E+02  0.00000000000E+00 0.  1.
         21    1    1    2  503  502 -0.10200684993E+02 -0.23341416954E+02 -0.59765877258E+02  0.64967959827E+02  0.00000000000E+00 0. -1.
<scales pt_clust_5="13000.00000" pt_clust_6="13000.00000" pt_clust_7="13000.00000" pt_clust_8="13000.00000" pt_clust_9="47.44326" pt_clust_10="25.47304"></scales>
<clustering>
<clus scale="   25.473">  2 10  1 -1</clus>
<clus scale="   47.443">  1  9  2 -1</clus>
<clus scale="   96.233">  5  6 -1 -1</clus>
<clus scale="  101.805">  7  8 -1 -1</clus>
<clus scale="  137.955">  1  5  2 -1</clus>
<clus scale="   25.473">  2  5  1 -1</clus>
</clustering>
</event>
<event>
10    2  0.1133532E-006  0.1298808E+03  0.7546771E-02  0.1231036E+00
         -2   -1    0    0    0  501 -0.00000000000E+00  0.00000000000E+00  0.84210457820E+02  0.84210457820E+02  0.00000000000E+00 0.  1.
          2   -1    0    0  503    0  0.00000000000E+00 -0.00000000000E+00 -0.56926267380E+03  0.56926267380E+03  0.00000000000E+00 0. -1.
         23    2    1    2    0    0  0.22990752389E+02  0.66637661225E+02 -0.13462969796E+02  0.12543905280E+03  0.10288125108E+03 0.  0.
         23    2    1    2    0    0 -0.89121479951E+02 -0.63146849599E+02 -0.28955255383E+03  0.32270927842E+03  0.91490076776E+02 0.  0.
        -13    1    3    3    0    0 -0.32164182560E+02  0.57584062779E+02  0.60568543255E+01  0.66235522268E+02  0.00000000000E+00 0. -1.
         13    1    3    3    0    0  0.55154934949E+02  0.90535984467E+01 -0.19519824121E+02  0.59203530535E+02  0.00000000000E+00 0.  1.
        -13    1    4    4    0    0 -0.44990154222E+02  0.15432453572E+02 -0.63380045643E+02  0.79242064498E+02  0.00000000000E+00 0.  1.
         13    1    4    4    0    0 -0.44131325729E+02 -0.78579303170E+02 -0.22617250819E+03  0.24346721393E+03  0.00000000000E+00 0. -1.
         21    1    1    2  502  501  0.29806917828E+02 -0.15736994533E+02 -0.20829661487E+02  0.39622974964E+02  0.00000000000E+00 0.  1.
         21    1    1    2  503  502  0.36323809734E+02  0.12246182907E+02 -0.16120703087E+03  0.16570182543E+03  0.00000000000E+00 0.  1.
<scales pt_clust_5="13000.00000" pt_clust_6="13000.00000" pt_clust_7="13000.00000" pt_clust_8="13000.00000" pt_clust_9="33.70616" pt_clust_10="39.03695"></scales>
<clustering>
<clus scale="   33.706">  1  9  2 -1</clus>
<clus scale="   39.037">  2 10  1 -1</clus>
<clus scale="   91.490">  7  8 -1 -1</clus>
<clus scale="  102.881">  5  6 -1 -1</clus>
<clus scale="  121.057">  2  7  1 -1</clus>
<clus scale="   39.037">  2  5  1 -1</clus>
</clustering>
</event>
<event>
10    2  0.1133532E-006  0.1142873E+03  0.7546771E-02  0.1253662E+00
          4   -1    0    0  503    0  0.00000000000E+00  0.00000000000E+00  0.72014477645E+02  0.72014477645E+02  0.00000000000E+00 0. -1.
         -4   -1    0    0    0  501 -0.00000000000E+00 -0.00000000000E+00 -0.31816141308E+03  0.31816141308E+03  0.00000000000E+00 0.  1.
         23    2    1    2    0    0  0.63176382277E+02 -0.56020480008E+01 -0.12230755190E+03  0.16622382655E+03  0.92997769008E+02 0.  0.
         23    2    1    2    0    0 -0.68075796395E+02 -0.82463497309E+00 -0.30344614623E+02  0.11738779091E+03  0.90686844364E+02 0.  0.
        -11    1    4    4    0    0 -0.21844388874E+02 -0.42464347692E+02 -0.27495519824E+02  0.55103554881E+02  0.00000000000E+00 0.  1.
         11    1    4    4    0    0 -0.46231407521E+02  0.41639712719E+02 -0.28490947997E+01  0.62284236030E+02  0.00000000000E+00 0. -1.
        -11    1    3    3    0    0  0.68307715460E+01 -0.42741496707E+02 -0.33766589585E+02  0.54896972164E+02  0.00000000000E+00 0.  1.
         11    1    3    3    0    0  0.56345610731E+02  0.37139448706E+02 -0.88540962317E+02  0.11132685438E+03  0.00000000000E+00 0. -1.
         21    1    1    2  502  501 -0.17794923614E+02  0.91551440501E+01 -0.73564399590E+02  0.76237765288E+02  0.00000000000E+00 0. -1.
         21    1    1    2  503  502  0.22694337732E+02 -0.27284610762E+01 -0.19930369321E+02  0.30326507979E+02  0.00000000000E+00 0.  1.
<scales pt_clust_5="13000.00000" pt_clust_6="13000.00000" pt_clust_7="13000.00000" pt_clust_8="13000.00000" pt_clust_9="20.01190" pt_clust_10="20.93220"></scales>
<clustering>
<clus scale="   20.012">  2  9  1 -1</clus>
<clus scale="   20.932">  2 10  1 -1</clus>
<clus scale="   90.687">  5  6 -1 -1</clus>
<clus scale="   92.998">  7  8 -1 -1</clus>
<clus scale="  112.415">  1  5  2 -1</clus>
<clus scale="  112.415">  1  5  2 -1</clus>
</clustering>
</event>
<event>
10    2  0.1133532E-006  0.1081602E+03  0.7546771E-02  0.1265941E+00
          1   -1    0    0  503    0  0.00000000000E+00  0.00000000000E+00  0.30260114369E+03  0.30260114369E+03  0.00000000000E+00 0. -1.
         -1   -1    0    0    0  501 -0.00000000000E+00 -0.00000000000E+00 -0.31645762139E+03  0.31645762139E+03  0.00000000000E+00 0.  1.
         23    2    1    2    0    0  0.16113195264E+02  0.22768831094E+02 -0.14953240441E+03  0.17494955778E+03  0.86425419117E+02 0.  0.
         23    2    1    2    0    0 -0.67307468154E+02 -0.11139665860E+03 -0.39194680674E+02  0.16368057526E+03  0.91189894768E+02 0.  0.
        -11    1    4    4    0    0 -0.15013169295E+02 -0.63856875972E+02 -0.61145814349E+02  0.89676677423E+02  0.00000000000E+00 0.  1.
         11    1    4    4    0    0 -0.52294298860E+02 -0.47539782630E+02  0.21951133675E+02  0.74003897839E+02  0.00000000000E+00 0. -1.
        -13    1    3    3    0    0  0.40021984178E+02  0.12739333796E+02 -0.14180654105E+03  0.14789572316E+03  0.00000000000E+00 0.  1.
         13    1    3    3    0    0 -0.23908788914E+02  0.10029497298E+02 -0.77258633553E+01  0.27053834626E+02  0.00000000000E+00 0. -1.
         21    1    1    2  502  501  0.24918185206E+02  0.59081159072E+01 -0.40674763117E+02  0.48065144774E+02  0.00000000000E+00 0. -1.
         21    1    1    2  503  502  0.26276087685E+02  0.82719711602E+02  0.21554537050E+03  0.23236348727E+03  0.00000000000E+00 0. -1.
<scales pt_clust_5="13000.00000" pt_clust_6="13000.00000" pt_clust_7="13000.00000" pt_clust_8="13000.00000" pt_clust_9="25.60902" pt_clust_10="87.20258"></scales>
<clustering>
<clus scale="   25.609">  2  9  1 -1</clus>
<clus scale="   86.425">  7  8 -1 -1</clus>
<clus scale="   87.203">  1 10  2 -1</clus>
<clus scale="   91.190">  5  6 -1 -1</clus>
<clus scale="  104.175">  2  7  1 -1</clus>
<clus scale="   87.203">  1  5  2 -1</clus>
</clustering>
</event>
<event>
10    2  0.1133532E-006  0.1474957E+03  0.7546771E-02  0.1203794E+00
          2   -1    0    0  503    0  0.00000000000E+00  0.00000000000E+00  0.85960725666E+03  0.85960725666E+03  0.00000000000E+00 0. -1.
         -2   -1    0    0    0  501 -0.00000000000E+00 -0.00000000000E+00 -0.32821667938E+03  0.32821667938E+03  0.00000000000E+00 0.  1.
         23    2    1    2    0    0 -0.16870309327E+03 -0.57231958183E+02 -0.75518577244E+02  0.21460351952E+03  0.92819094817E+02 0.  0.
         23    2    1    2    0    0  0.34424163234E+02  0.63899546242E+02  0.53714602717E+03  0.54973977956E+03  0.91759444756E+02 0.  0.
        -13    1    4    4    0    0 -0.98137899573E+00  0.75367741403E+02  0.42349712763E+03  0.43015238772E+03  0.00000000000E+00 0. -1.
         13    1    4    4    0    0  0.35405542230E+02 -0.11468195161E+02  0.11364889953E+03  0.11958739184E+03  0.00000000000E+00 0.  1.
        -13    1    3    3    0    0 -0.11748175823E+03 -0.25524011661E+01 -0.15343203160E+02  0.11850692870E+03  0.00000000000E+00 0.  1.
         13    1    3    3    0    0 -0.51221335044E+02 -0.54679557017E+02 -0.60175374084E+02  0.96096590811E+02  0.00000000000E+00 0. -1.
         21    1    1    2  502  501  0.64265638399E+02  0.91882923458E+01 -0.16535791319E+03  0.17764497304E+03  0.00000000000E+00 0. -1.
         21    1    1    2  503  502  0.70013291639E+02 -0.15855880405E+02  0.23512104055E+03  0.24583566392E+03  0.00000000000E+00 0. -1.
<scales pt_clust_5="13000.00000" pt_clust_6="13000.00000" pt_clust_7="13000.00000" pt_clust_8="13000.00000" pt_clust_9="64.91916" pt_clust_10="73.86381"></scales>
<clustering>
<clus scale="   64.919">  2  9  1 -1</clus>
<clus scale="   73.864">  1 10  2 -1</clus>
<clus scale="   91.759">  5  6 -1 -1</clus>
<clus scale="   92.819">  7  8 -1 -1</clus>
<clus scale="  146.831">  1  5  2 -1</clus>
<clus scale="   73.864">  1  5  2 -1</clus>
</clustering>
</event>
<event>
10    2  0.1133532E-006  0.1581927E+03  0.7546771E-02  0.1191365E+00
         -1   -1    0    0    0  501 -0.00000000000E+00  0.00000000000E+00  0.10867852710E+03  0.10867852710E+03  0.00000000000E+00 0.  1.
          1   -1    0    0  503    0  0.00000000000E+00 -0.00000000000E+00 -0.90615756022E+03  0.90615756022E+03  0.00000000000E+00 0. -1.
         23    2    1    2    0    0  0.59858886339E+02 -0.85739802080E+02 -0.21673267373E+03  0.25838223008E+03  0.94095297570E+02 0.  0.
         23    2    1    2    0    0 -0.72586059630E+02  0.12156031382E+03 -0.52230266958E+03  0.54866456825E+03  0.90482505783E+02 0.  0.
        -13    1    4    4    0    0  0.15772612439E+02  0.55122660958E+02 -0.16783483488E+03  0.17735787227E+03  0.00000000000E+00 0. -1.
         13    1    4    4    0    0 -0.88358672069E+02  0.66437652864E+02 -0.35446783469E+03  0.37130669598E+03  0.00000000000E+00 0.  1.
        -13    1    3    3    0    0  0.77335850905E+02 -0.31810220862E+02 -0.13809739563E+03  0.16144229516E+03  0.00000000000E+00 0. -1.
         13    1    3    3    0    0 -0.17476964566E+02 -0.53929581218E+02 -0.78635278102E+02  0.96939934924E+02  0.00000000000E+00 0.  1.
         21    1    1    2  502  501  0.14315800295E+02  0.25714582672E+02  0.64166863948E+02  0.70594393042E+02  0.00000000000E+00 0.  1.
         21    1    1    2  503  502 -0.15886270038E+01 -0.61535094414E+02 -0.12261055375E+03  0.13719489594E+03  0.00000000000E+00 0. -1.
<scales pt_clust_5="13000.00000" pt_clust_6="13000.00000" pt_clust_7="13000.00000" pt_clust_8="13000.00000" pt_clust_9="29.43097" pt_clust_10="57.00228"></scales>
<clustering>
<clus scale="   29.431">  1  9  2 -1</clus>
<clus scale="   57.002">  1 10  2 -1</clus>
<clus scale="   90.483">  5  6 -1 -1</clus>
<clus scale="   94.095">  7  8 -1 -1</clus>
<clus scale="  156.071">  2  5  1 -1</clus>
<clus scale="  156.071">  2  5  1 -1</clus>
</clustering>
</event>
<event>
10    2  0.1133532E-006  0.4169951E+03  0.7546771E-02  0.1038051E+00
         -1   -1    0    0    0  501 -0.00000000000E+00  0.00000000000E+00  0.44317697307E+03  0.44317697307E+03  0.00000000000E+00 0.  1.
          1   -1    0    0  503    0  0.00000000000E+00 -0.00000000000E+00 -0.53164462321E+03  0.53164462321E+03  0.00000000000E+00 0. -1.
         23    2    1    2    0    0 -0.16179556147E+02 -0.39855358224E+03  0.90011572023E+02  0.41843362546E+03  0.88757421433E+02 0.  0.
         23    2    1    2    0    0  0.19888632989E+02  0.41929257887E+03 -0.99447270839E+02  0.44039726630E+03  0.88646308838E+02 0.  0.
        -11    1    3    3    0    0 -0.15479867324E+01 -0.35081682664E+03  0.49824126926E+02  0.35434063518E+03  0.00000000000E+00 0.  1.
         11    1    3    3    0    0 -0.14631569415E+02 -0.47736755600E+02  0.40187445097E+02  0.64092990273E+02  0.00000000000E+00 0. -1.
        -13    1    4    4    0    0 -0.21316664669E+02  0.52423758854E+02 -0.32312531341E+02  0.65167095736E+02  0.00000000000E+00 0.  1.
         13    1    4    4    0    0  0.41205297658E+02  0.36686882002E+03 -0.67134739498E+02  0.37523017057E+03  0.00000000000E+00 0. -1.
         21    1    1    2  502  501 -0.22573313952E+02 -0.13199546820E+01  0.86609245710E+01  0.24213805929E+02  0.00000000000E+00 0. -1.
         21    1    1    2  503  502  0.18864237110E+02 -0.19419041950E+02 -0.87692875899E+02  0.91776898594E+02  0.00000000000E+00 0. -1.
<scales pt_clust_5="13000.00000" pt_clust_6="13000.00000" pt_clust_7="13000.00000" pt_clust_8="13000.00000" pt_clust_9="22.61187" pt_clust_10="27.00260"></scales>
<clustering>
<clus scale="   22.612">  1  9  2 -1</clus>
<clus scale="   27.003">  2 10  1 -1</clus>
<clus scale="   88.646">  7  8 -1 -1</clus>
<clus scale="   88.757">  5  6 -1 -1</clus>
<clus scale="  416.971">  2  7  1 -1</clus>
<clus scale="   27.003">  2  5  1 -1</clus>
</clustering>
</event>
<event>
10    2  0.1133532E-006  0.1151999E+03  0.7546771E-02  0.1251391E+00
         -1   -1    0    0    0  501 -0.00000000000E+00  0.00000000000E+00  0.54581326928E+02  0.54581326928E+02  0.00000000000E+00 0.  1.
          1   -1    0    0  503    0  0.00000000000E+00 -0.00000000000E+00 -0.59490667884E+03  0.59490667884E+03  0.00000000000E+00 0. -1.
         23    2    1    2    0    0  0.44533253926E+02 -0.28292476284E+02 -0.82358498132E+02  0.13343890709E+03  0.90770836672E+02 0.  0.
         23    2    1    2    0    0 -0.79709471140E+02  0.51130642423E+02 -0.18747207887E+03  0.22862470495E+03  0.90307989537E+02 0.  0.
        -11    1    3    3    0    0  0.35501485183E+02  0.24459374991E+02 -0.11461516571E+02  0.44609223680E+02  0.00000000000E+00 0.  1.
         11    1    3    3    0    0  0.90317687424E+01 -0.52751851275E+02 -0.70896981560E+02  0.88829683406E+02  0.00000000000E+00 0. -1.
        -13    1    4    4    0    0 -0.44412993596E+02  0.62096724640E+02 -0.63629343853E+02  0.99384156737E+02  0.00000000000E+00 0.  1.
         13    1    4    4    0    0 -0.35296477545E+02 -0.10966082218E+02 -0.12384273502E+03  0.12924054821E+03  0.00000000000E+00 0. -1.
         21    1    1    2  502  501 -0.14353612263E+00 -0.22376885625E+02 -0.99391180927E+01  0.24485336048E+02  0.00000000000E+00 0.  1.
         21    1    1    2  503  502  0.35319753337E+02 -0.46128051342E+00 -0.26055565682E+03  0.26293905768E+03  0.00000000000E+00 0. -1.
<scales pt_clust_5="13000.00000" pt_clust_6="13000.00000" pt_clust_7="13000.00000" pt_clust_8="13000.00000" pt_clust_9="22.37735" pt_clust_10="35.33101"></scales>
<clustering>
<clus scale="   22.377">  1  9  2 -1</clus>
<clus scale="   35.331">  2 10  1 -1</clus>
<clus scale="   90.308">  7  8 -1 -1</clus>
<clus scale="   90.771">  5  6 -1 -1</clus>
<clus scale="  114.836">  2  7  1 -1</clus>
<clus scale="   35.331">  2  5  1 -1</clus>
</clustering>
</event>
<event>
10    2  0.1133532E-006  0.2334869E+03  0.7546771E-02  0.1124268E+00
         -1   -1    0    0    0  501 -0.00000000000E+00  0.00000000000E+00  0.34995900396E+03  0.34995900396E+03  0.00000000000E+00 0.  1.
          1   -1    0    0  503    0  0.00000000000E+00 -0.00000000000E+00 -0.23807012523E+04  0.23807012523E+04  0.00000000000E+00 0. -1.
         23    2    1    2    0    0  0.24230833023E+03 -0.14098542268E+03 -0.14864032960E+04  0.15153871527E+04  0.91723757997E+02 0.  0.
         23    2    1    2    0    0 -0.17057832334E+03  0.16433868497E+02 -0.80806838159E+03  0.83121247695E+03  0.92588531071E+02 0.  0.
        -13    1    4    4    0    0 -0.16477457488E+03 -0.11762635996E+02 -0.71267443925E+03  0.73156946115E+03  0.00000000000E+00 0. -1.
         13    1    4    4    0    0 -0.58037484552E+01  0.28196504493E+02 -0.95393942344E+02  0.99643015800E+02  0.00000000000E+00 0.  1.
        -13    1    3    3    0    0  0.22665635017E+02  0.11982998108E+02 -0.90886394833E+02  0.94433362856E+02  0.00000000000E+00 0.  1.
         13    1    3    3    0    0  0.21964269521E+03 -0.15296842079E+03 -0.13955169012E+04  0.14209537898E+04  0.00000000000E+00 0. -1.
         21    1    1    2  502  501 -0.10160359899E+03  0.12486667920E+03  0.29793535822E+03  0.33864503035E+03  0.00000000000E+00 0.  1.
         21    1    1    2  503  502  0.29873592103E+02 -0.31512501592E+00 -0.34205928944E+02  0.45415596262E+02  0.00000000000E+00 0.  1.
<scales pt_clust_5="13000.00000" pt_clust_6="13000.00000" pt_clust_7="13000.00000" pt_clust_8="13000.00000" pt_clust_9="160.81535" pt_clust_10="29.87525"></scales>
<clustering>
<clus scale="   29.875">  2 10  1 -1</clus>
<clus scale="   91.724">  7  8 -1 -1</clus>
<clus scale="   92.589">  5  6 -1 -1</clus>
<clus scale="  160.815">  1  9  2 -1</clus>
<clus scale="  233.145">  1  7  2 -1</clus>
<clus scale="   29.875">  2  5  1 -1</clus>
</clustering>
</event>
<event>
10    2  0.1133532E-006  0.1429931E+03  0.7546771E-02  0.1211502E+00
         -2   -1    0    0    0  501 -0.00000000000E+00  0.00000000000E+00  0.37909912829E+03  0.37909912829E+03  0.00000000000E+00 0.  1.
          2   -1    0    0  503    0  0.00000000000E+00 -0.00000000000E+00 -0.11689807580E+03  0.11689807580E+03  0.00000000000E+00 0. -1.
         23    2    1    2    0    0  0.97604099734E+02  0.77547422805E+02  0.19302587768E+03  0.25128175963E+03  0.10170236084E+03 0.  0.
         23    2    1    2    0    0 -0.75641825966E+02 -0.10639531172E+02  0.61794780972E+02  0.13493827714E+03  0.92492476577E+02 0.  0.
        -11    1    3    3    0    0  0.54189165558E+02  0.90129866664E+02  0.17159357430E+03  0.20125658566E+03  0.00000000000E+00 0.  1.
         11    1    3    3    0    0  0.43414934176E+02 -0.12582443859E+02  0.21432303379E+02  0.50025173974E+02  0.00000000000E+00 0. -1.
        -11    1    4    4    0    0 -0.75208407414E+02  0.26253267774E+02  0.26691395033E+02  0.84011720512E+02  0.00000000000E+00 0. -1.
         11    1    4    4    0    0 -0.43341855249E+00 -0.36892798947E+02  0.35103385939E+02  0.50926556629E+02  0.00000000000E+00 0.  1.
         21    1    1    2  502  501  0.20502375190E+02 -0.20520018354E+02  0.31132592607E+02  0.42551813875E+02  0.00000000000E+00 0.  1.
         21    1    1    2  503  502 -0.42464648957E+02 -0.46387873278E+02 -0.23752198773E+02  0.67225353438E+02  0.00000000000E+00 0. -1.
<scales pt_clust_5="13000.00000" pt_clust_6="13000.00000" pt_clust_7="13000.00000" pt_clust_8="13000.00000" pt_clust_9="29.00722" pt_clust_10="62.99838"></scales>
<clustering>
<clus scale="   29.007">  1  9  2 -1</clus>
<clus scale="   62.998">  2 10  1 -1</clus>
<clus scale="   92.492">  7  8 -1 -1</clus>
<clus scale="  101.702">  5  6 -1 -1</clus>
<clus scale="  136.596">  2  7  1 -1</clus>
<clus scale="   62.998">  2  5  1 -1</clus>
</clustering>
</event>
<event>
10    2  0.1133532E-006  0.9343883E+02  0.7546771E-02  0.1300971E+00
         -2   -1    0    0    0  501 -0.00000000000E+00  0.00000000000E+00  0.76419720589E+02  0.76419720589E+02  0.00000000000E+00 0.  1.
          2   -1    0    0  503    0  0.00000000000E+00 -0.00000000000E+00 -0.39152248471E+03  0.39152248471E+03  0.00000000000E+00 0. -1.
         23    2    1    2    0    0  0.29850895391E+02  0.19408404091E+02  0.14922101429E+02  0.89144158662E+02  0.80350792202E+02 0.  0.
         23    2    1    2    0    0  0.27221669230E+01  0.37575474845E+02 -0.22394176687E+03  0.24459180878E+03  0.90862046354E+02 0.  0.
        -11    1    4    4    0    0  0.36688421942E+02  0.33864067924E+02 -0.64694786233E+02  0.81720442771E+02  0.00000000000E+00 0.  1.
         11    1    4    4    0    0 -0.33966255020E+02  0.37114069218E+01 -0.15924698064E+03  0.16287136601E+03  0.00000000000E+00 0. -1.
        -13    1    3    3    0    0 -0.16512669411E+00  0.35008873020E+02 -0.20168471443E+02  0.40403164447E+02  0.00000000000E+00 0.  1.
         13    1    3    3    0    0  0.30016022085E+02 -0.15600468929E+02  0.35090572872E+02  0.48740994215E+02  0.00000000000E+00 0. -1.
         21    1    1    2  502  501 -0.58749402509E+01 -0.27647840607E+02 -0.95393360761E+01  0.29831475759E+02  0.00000000000E+00 0. -1.
         21    1    1    2  503  502 -0.26698122063E+02 -0.29336038329E+02 -0.96543762602E+02  0.10437476210E+03  0.00000000000E+00 0.  1.
<scales pt_clust_5="13000.00000" pt_clust_6="13000.00000" pt_clust_7="13000.00000" pt_clust_8="13000.00000" pt_clust_9="28.26514" pt_clust_10="41.11634"></scales>
<clustering>
<clus scale="   28.265">  1  9  2 -1</clus>
<clus scale="   41.116">  2 10  1 -1</clus>
<clus scale="   80.351">  7  8 -1 -1</clus>
<clus scale="   83.254">  1  7  2 -1</clus>
<clus scale="   90.862">  5  6 -1 -1</clus>
<clus scale="   41.116">  2  5  1 -1</clus>
</clustering>
</event>
<event>
10    2  0.1133532E-006  0.2479752E+03  0.7546771E-02  0.1148158E+00
          1   -1    0    0  503    0  0.00000000000E+00  0.00000000000E+00  0.16330152781E+04  0.16330152781E+04  0.00000000000E+00 0. -1.
         -1   -1    0    0    0  501 -0.00000000000E+00 -0.00000000000E+00 -0.11039178658E+03  0.11039178658E+03  0.00000000000E+00 0.  1.
         23    2    1    2    0    0  0.52506183231E+02 -0.36120833100E+02  0.31807796456E+02  0.11516451939E+03  0.90495948799E+02 0.  0.
         23    2    1    2    0    0  0.80433606636E+02  0.25286031458E+03  0.83588600283E+03  0.88169663041E+03  0.90970514835E+02 0.  0.
        -11    1    3    3    0    0  0.17628330637E+02  0.27618984471E+02  0.26807285697E+02  0.42334346702E+02  0.00000000000E+00 0. -1.
         11    1    3    3    0    0  0.34877852594E+02 -0.63739817570E+02  0.50005107586E+01  0.72830172685E+02  0.00000000000E+00 0.  1.
        -11    1    4    4    0    0 -0.13589097123E+01  0.54650254219E+02  0.87276051146E+02  0.10298352308E+03  0.00000000000E+00 0.  1.
         11    1    4    4    0    0  0.81792516348E+02  0.19821006036E+03  0.74860995169E+03  0.77871310733E+03  0.00000000000E+00 0. -1.
         21    1    1    2  502  501 -0.40844750401E+02 -0.30510483062E+02 -0.81961797885E+01  0.51636814145E+02  0.00000000000E+00 0.  1.
         21    1    1    2  503  502 -0.92095039466E+02 -0.18622899842E+03  0.66312587205E+03  0.69490910076E+03  0.00000000000E+00 0.  1.
<scales pt_clust_5="13000.00000" pt_clust_6="13000.00000" pt_clust_7="13000.00000" pt_clust_8="13000.00000" pt_clust_9="50.98219" pt_clust_10="230.68612"></scales>
<clustering>
<clus scale="   50.982">  2  9  1 -1</clus>
<clus scale="   90.496">  5  6 -1 -1</clus>
<clus scale="   90.971">  7  8 -1 -1</clus>
<clus scale="  108.942">  2  5  1 -1</clus>
<clus scale="  230.686">  1 10  2 -1</clus>
<clus scale="  230.686">  1  5  2 -1</clus>
</clustering>
</event>
<event>
10    2  0.1133532E-006  0.2368237E+03  0.7546771E-02  0.1121951E+00
          1   -1    0    0  503    0  0.00000000000E+00  0.00000000000E+00  0.52940279846E+03  0.52940279846E+03  0.00000000000E+00 0. -1.
         -1   -1    0    0    0  501 -0.00000000000E+00 -0.00000000000E+00 -0.20353267565E+03  0.20353267565E+03  0.00000000000E+00 0.  1.
         23    2    1    2    0    0  0.82355373052E+02  0.17308085462E+03 -0.10847072333E+01  0.21196787857E+03  0.90497598018E+02 0.  0.
         23    2    1    2    0    0 -0.14747024825E+03 -0.23275402114E+03  0.28947055196E+03  0.40984332336E+03  0.90864959027E+02 0.  0.
        -13    1    3    3    0    0 -0.35728283314E+01  0.68515489176E+02  0.27021229682E+02  0.73737942830E+02  0.00000000000E+00 0.  1.
         13    1    3    3    0    0  0.85928201383E+02  0.10456536545E+03 -0.28105936915E+02  0.13822993574E+03  0.00000000000E+00 0. -1.
        -13    1    4    4    0    0 -0.52891113547E+02 -0.64205422705E+02  0.34878803127E+02  0.90201646906E+02  0.00000000000E+00 0.  1.
         13    1    4    4    0    0 -0.94579134700E+02 -0.16854859843E+03  0.25459174883E+03  0.31964167645E+03  0.00000000000E+00 0. -1.
         21    1    1    2  502  501  0.21589330961E+02  0.68168106948E+01 -0.12951643852E+02  0.26082814224E+02  0.00000000000E+00 0.  1.
         21    1    1    2  503  502  0.43525544234E+02  0.52856355819E+02  0.50435921938E+02  0.85041457967E+02  0.00000000000E+00 0. -1.
<scales pt_clust_5="13000.00000" pt_clust_6="13000.00000" pt_clust_7="13000.00000" pt_clust_8="13000.00000" pt_clust_9="22.63997" pt_clust_10="70.26574"></scales>
<clustering>
<clus scale="   22.640">  2  9  1 -1</clus>
<clus scale="   70.266">  1 10  2 -1</clus>
<clus scale="   90.498">  5  6 -1 -1</clus>
<clus scale="   90.865">  7  8 -1 -1</clus>
<clus scale="  236.683">  2  5  1 -1</clus>
<clus scale="   70.266">  1  5  2 -1</clus>
</clustering>
</event>
<event>
10    2  0.1133532E-006  0.1349705E+03  0.7546771E-02  0.1232994E+00
          2   -1    0    0  503    0  0.00000000000E+00  0.00000000000E+00  0.62140807930E+03  0.62140807930E+03  0.00000000000E+00 0. -1.
         -2   -1    0    0    0  501 -0.00000000000E+00 -0.00000000000E+00 -0.11130010521E+03  0.11130010521E+03  0.00000000000E+00 0.  1.
         23    2    1    2    0    0  0.77323509441E+02 -0.39853108553E+02  0.26277922084E+02  0.12869532023E+03  0.91130460810E+02 0.  0.
         23    2    1    2    0    0  0.14452042453E+01 -0.84109550785E+02  0.16549887789E+03  0.20309076183E+03  0.82337560153E+02 0.  0.
        -13    1    4    4    0    0 -0.24461122541E+02 -0.11696747348E+02  0.94883666536E+02  0.98681662885E+02  0.00000000000E+00 0. -1.
         13    1    4    4    0    0  0.25906326787E+02 -0.72412803437E+02  0.70615211352E+02  0.10440909895E+03  0.00000000000E+00 0.  1.
        -13    1    3    3    0    0  0.81728409114E+02 -0.28169890316E+01 -0.21408830890E+01  0.81804961121E+02  0.00000000000E+00 0.  1.
         13    1    3    3    0    0 -0.44048996731E+01 -0.37036119521E+02  0.28418805173E+02  0.46890359113E+02  0.00000000000E+00 0. -1.
         21    1    1    2  502  501 -0.80256087819E+02  0.84007223090E+02  0.44857381313E+02  0.12454090823E+03  0.00000000000E+00 0. -1.
         21    1    1    2  503  502  0.14873741325E+01  0.39955436249E+02  0.27347379280E+03  0.27638119422E+03  0.00000000000E+00 0. -1.
<scales pt_clust_5="13000.00000" pt_clust_6="13000.00000" pt_clust_7="13000.00000" pt_clust_8="13000.00000" pt_clust_9="99.56037" pt_clust_10="39.98311"></scales>
<clustering>
<clus scale="   39.983">  1 10  2 -1</clus>
<clus scale="   82.338">  5  6 -1 -1</clus>
<clus scale="   91.130">  7  8 -1 -1</clus>
<clus scale="  103.612">  1  5  2 -1</clus>
<clus scale="   99.560">  1  9  2 -1</clus>
<clus scale="   39.983">  1  5  2 -1</clus>
</clustering>
</event>
<event>
10    2  0.1133532E-006  0.1170503E+03  0.7546771E-02  0.1250415E+00
          2   -1    0    0  503    0  0.00000000000E+00  0.00000000000E+00  0.14011609584E+04  0.14011609584E+04  0.00000000000E+00 0. -1.
         -2   -1    0    0    0  501 -0.00000000000E+00 -0.00000000000E+00 -0.48786613899E+02  0.48786613899E+02  0.00000000000E+00 0.  1.
         23    2    1    2    0    0 -0.39895812307E+02  0.86129017036E+02  0.32814033924E+03  0.35356954850E+03  0.91243958549E+02 0.  0.
         23    2    1    2    0    0  0.83817480308E+02  0.77207059902E+02  0.63592233289E+03  0.65341340449E+03  0.97803699341E+02 0.  0.
        -13    1    3    3    0    0 -0.15260750054E+02 -0.17969978514E+02  0.78780402543E+02  0.82232368595E+02  0.00000000000E+00 0. -1.
         13    1    3    3    0    0 -0.24635062253E+02  0.10409899555E+03  0.24935993670E+03  0.27133717990E+03  0.00000000000E+00 0.  1.
        -13    1    4    4    0    0  0.40119098520E+02  0.93961828941E+02  0.47263269238E+03  0.48354940727E+03  0.00000000000E+00 0.  1.
         13    1    4    4    0    0  0.43698381788E+02 -0.16754769039E+02  0.16328964051E+03  0.16986399722E+03  0.00000000000E+00 0. -1.
         21    1    1    2  502  501 -0.39755682621E+02 -0.67986555300E+02  0.54495585700E+02  0.95772933875E+02  0.00000000000E+00 0. -1.
         21    1    1    2  503  502 -0.41659853807E+01 -0.95349521637E+02  0.33381608663E+03  0.34719168539E+03  0.00000000000E+00 0. -1.
<scales pt_clust_5="13000.00000" pt_clust_6="13000.00000" pt_clust_7="13000.00000" pt_clust_8="13000.00000" pt_clust_9="78.75713" pt_clust_10="112.33052"></scales>
<clustering>
<clus scale="   78.757">  2  9  1 -1</clus>
<clus scale="   91.244">  5  6 -1 -1</clus>
<clus scale="   97.804">  7  8 -1 -1</clus>
<clus scale="  112.331">  1 10  2 -1</clus>
<clus scale="  111.627">  2  5  1 -1</clus>
<clus scale="  112.331">  1  5  2 -1</clus>
</clustering>
</event>
<event>
10    2  0.1700286E-006  0.1498769E+03  0.7546771E-02  0.1200658E+00
          3   -1    0    0  503    0  0.00000000000E+00  0.00000000000E+00  0.16555161278E+03  0.16555161278E+03  0.00000000000E+00 0. -1.
         -3   -1    0    0    0  501 -0.00000000000E+00 -0.00000000000E+00 -0.63769029551E+03  0.63769029551E+03  0.00000000000E+00 0.  1.
         23    2    1    2    0    0  0.34612556286E+02 -0.11559493393E+03 -0.53574066170E+03  0.55658912065E+03  0.90626567981E+02 0.  0.
         23    2    1    2    0    0 -0.45663079889E+02  0.94250441894E+02  0.90847776802E+02  0.16553458938E+03  0.90444010692E+02 0.  0.
        -13    1    3    3    0    0  0.33880035980E+02 -0.19552730266E+01 -0.80141064936E+02  0.87030283348E+02  0.00000000000E+00 0. -1.
         13    1    3    3    0    0  0.73252030540E+00 -0.11363966090E+03 -0.45559959676E+03  0.46955883730E+03  0.00000000000E+00 0.  1.
        -13    1    4    4    0    0  0.53381941026E+01  0.33442481952E+02  0.78134666718E+02  0.85158217798E+02  0.00000000000E+00 0. -1.
         13    1    4    4    0    0 -0.51001273991E+02  0.60807959942E+02  0.12713110084E+02  0.80376371584E+02  0.00000000000E+00 0.  1.
         21    1    1    2  502  501  0.38691908765E+02  0.10399982760E+02 -0.31658124741E+02  0.51063297067E+02  0.00000000000E+00 0.  1.
         21    1    1    2  503  502 -0.27641385162E+02  0.10944509274E+02  0.44123269098E+01  0.30054901192E+02  0.00000000000E+00 0. -1.
<scales pt_clust_5="13000.00000" pt_clust_6="13000.00000" pt_clust_7="13000.00000" pt_clust_8="13000.00000" pt_clust_9="38.52233" pt_clust_10="29.72925"></scales>
<clustering>
<clus scale="   29.729">  1 10  2 -1</clus>
<clus scale="   38.522">  1  9  2 -1</clus>
<clus scale="   90.444">  7  8 -1 -1</clus>
<clus scale="   90.627">  5  6 -1 -1</clus>
<clus scale="  149.767">  1  7  2 -1</clus>
<clus scale="   29.729">  1  5  2 -1</clus>
</clustering>
</event>
<event>
10    2  0.1133532E-006  0.1162993E+03  0.7546771E-02  0.1249426E+00
          2   -1    0    0  503    0  0.00000000000E+00  0.00000000000E+00  0.49857298409E+02  0.49857298409E+02  0.00000000000E+00 0. -1.
         -2   -1    0    0    0  501 -0.00000000000E+00 -0.00000000000E+00 -0.49277964194E+03  0.49277964194E+03  0.00000000000E+00 0.  1.
         23    2    1    2    0    0  0.29376004363E+02 -0.60555416527E+02 -0.28287926426E+03  0.30467591973E+03  0.90977083992E+02 0.  0.
         23    2    1    2    0    0 -0.71462704527E+02  0.55865062925E+02 -0.11763130318E+03  0.17433726718E+03  0.91260812221E+02 0.  0.
        -11    1    4    4    0    0  0.19412675215E+02  0.13657964676E+02 -0.43998960878E+02  0.49993004675E+02  0.00000000000E+00 0.  1.
         11    1    4    4    0    0 -0.90875379741E+02  0.42207098250E+02 -0.73632342299E+02  0.12434426251E+03  0.00000000000E+00 0. -1.
        -11    1    3    3    0    0  0.12351590990E+02  0.23388744378E+02 -0.50380703987E+02  0.56901761816E+02  0.00000000000E+00 0.  1.
         11    1    3    3    0    0  0.17024413373E+02 -0.83944160905E+02 -0.23249856027E+03  0.24777415791E+03  0.00000000000E+00 0. -1.
         21    1    1    2  502  501  0.19841130898E+02  0.90712872920E+01 -0.31865182710E+02  0.38617982827E+02  0.00000000000E+00 0.  1.
         21    1    1    2  503  502  0.22245569266E+02 -0.43809336900E+01 -0.10546593387E+02  0.25005770614E+02  0.00000000000E+00 0.  1.
<scales pt_clust_5="13000.00000" pt_clust_6="13000.00000" pt_clust_7="13000.00000" pt_clust_8="13000.00000" pt_clust_9="20.94547" pt_clust_10="47.42598"></scales>
<clustering>
<clus scale="   20.945">  9 10 -1 -1</clus>
<clus scale="   47.426">  1  9  2 -1</clus>
<clus scale="   90.977">  7  8 -1 -1</clus>
<clus scale="   91.261">  5  6 -1 -1</clus>
<clus scale="  116.077">  2  7  1 -1</clus>
<clus scale="   47.426">  1  5  2 -1</clus>
</clustering>
</event>
<event>
10    2  0.1133532E-006  0.1305094E+03  0.7546771E-02  0.1228612E+00
         -1   -1    0    0    0  501 -0.00000000000E+00  0.00000000000E+00  0.78113940489E+02  0.78113940489E+02  0.00000000000E+00 0.  1.
          1   -1    0    0  503    0  0.00000000000E+00 -0.00000000000E+00 -0.13420830076E+04  0.13420830076E+04  0.00000000000E+00 0. -1.
         23    2    1    2    0    0  0.80479502985E+02  0.79547103459E+01 -0.20150481996E+03  0.23338974315E+03  0.85594111506E+02 0.  0.
         23    2    1    2    0    0 -0.60048811138E+02  0.12023376415E+03 -0.59274023332E+03  0.61483810602E+03  0.92859542648E+02 0.  0.
        -11    1    4    4    0    0  0.42396736775E+01  0.92603306140E+02 -0.30967611545E+03  0.32325321904E+03  0.00000000000E+00 0. -1.
         11    1    4    4    0    0 -0.64288484815E+02  0.27630458005E+02 -0.28306411787E+03  0.29158488698E+03  0.00000000000E+00 0.  1.
        -13    1    3    3    0    0  0.11076745696E+02 -0.31489165462E+02 -0.33033781252E+02  0.46962671778E+02  0.00000000000E+00 0.  1.
         13    1    3    3    0    0  0.69402757289E+02  0.39443875808E+02 -0.16847103871E+03  0.18642707138E+03  0.00000000000E+00 0. -1.
         21    1    1    2  502  501  0.49802819661E+02 -0.17744739365E+02  0.26241838002E+02  0.59023983964E+02  0.00000000000E+00 0.  1.
         21    1    1    2  503  502 -0.70233511508E+02 -0.11044373513E+03 -0.49596585186E+03  0.51294511498E+03  0.00000000000E+00 0.  1.
<scales pt_clust_5="13000.00000" pt_clust_6="13000.00000" pt_clust_7="13000.00000" pt_clust_8="13000.00000" pt_clust_9="52.86962" pt_clust_10="128.66459"></scales>
<clustering>
<clus scale="   52.870">  1  9  2 -1</clus>
<clus scale="   85.594">  7  8 -1 -1</clus>
<clus scale="   92.860">  5  6 -1 -1</clus>
<clus scale="  128.665">  2 10  1 -1</clus>
<clus scale="  125.444">  1  7  2 -1</clus>
<clus scale="  128.665">  2  5  1 -1</clus>
</clustering>
</event>
<event>
10    2  0.1133532E-006  0.2596632E+03  0.7546771E-02  0.1107482E+00
          1   -1    0    0  503    0  0.00000000000E+00  0.00000000000E+00  0.61195426739E+03  0.61195426739E+03  0.00000000000E+00 0. -1.
         -1   -1    0    0    0  501 -0.00000000000E+00 -0.00000000000E+00 -0.26274647972E+03  0.26274647972E+03  0.00000000000E+00 0.  1.
         23    2    1    2    0    0  0.13377348415E+03  0.10452748621E+03 -0.11493707946E+02  0.19664997423E+03  0.98578733031E+02 0.  0.
         23    2    1    2    0    0 -0.27245245581E+03 -0.20536882754E+03  0.21491969220E+03  0.41454496409E+03  0.96178777050E+02 0.  0.
        -11    1    3    3    0    0  0.10533870376E+03  0.63465566333E+02 -0.50832853019E+02  0.13307178351E+03  0.00000000000E+00 0.  1.
         11    1    3    3    0    0  0.28434780384E+02  0.41061919878E+02  0.39339145073E+02  0.63578190715E+02  0.00000000000E+00 0. -1.
        -13    1    4    4    0    0 -0.20497747088E+03 -0.11179948102E+03  0.17741040076E+03  0.29323938654E+03  0.00000000000E+00 0. -1.
         13    1    4    4    0    0 -0.67474984932E+02 -0.93569346515E+02  0.37509291447E+02  0.12130557755E+03  0.00000000000E+00 0.  1.
         21    1    1    2  502  501  0.76951455922E+02  0.15078053348E+02 -0.59111705696E+01  0.78637244349E+02  0.00000000000E+00 0.  1.
         21    1    1    2  503  502  0.61727515740E+02  0.85763287976E+02  0.15169297398E+03  0.18486856445E+03  0.00000000000E+00 0.  1.
<scales pt_clust_5="13000.00000" pt_clust_6="13000.00000" pt_clust_7="13000.00000" pt_clust_8="13000.00000" pt_clust_9="78.41476" pt_clust_10="110.04445"></scales>
<clustering>
<clus scale="   78.415">  2  9  1 -1</clus>
<clus scale="   96.179">  7  8 -1 -1</clus>
<clus scale="   98.579">  5  6 -1 -1</clus>
<clus scale="  110.044">  1 10  2 -1</clus>
<clus scale="  258.762">  1  7  2 -1</clus>
<clus scale="  110.044">  1  5  2 -1</clus>
</clustering>
</event>
<event>
10    2  0.1133532E-006  0.2119298E+03  0.7546771E-02  0.1162595E+00
          3   -1    0    0  503    0  0.00000000000E+00  0.00000000000E+00  0.32012803937E+03  0.32012803937E+03  0.00000000000E+00 0. -1.
         -3   -1    0    0    0  501 -0.00000000000E+00 -0.00000000000E+00 -0.43209453607E+03  0.43209453607E+03  0.00000000000E+00 0.  1.
         23    2    1    2    0    0  0.18119270407E+03  0.82141133507E+02 -0.27488422111E+03  0.34926842134E+03  0.82759490736E+02 0.  0.
         23    2    1    2    0    0 -0.61040093868E+01 -0.73183081357E+02  0.19621572539E+02  0.12129649264E+03  0.94524127554E+02 0.  0.
        -11    1    3    3    0    0  0.10874883582E+03  0.19896541198E+02 -0.95714683677E+02  0.14623092120E+03  0.00000000000E+00 0. -1.
         11    1    3    3    0    0  0.72443868251E+02  0.62244592309E+02 -0.17916953743E+03  0.20303750014E+03  0.00000000000E+00 0.  1.
        -13    1    4    4    0    0  0.22422336361E+02 -0.78502777371E+02  0.34563801481E+02  0.88657225288E+02  0.00000000000E+00 0. -1.
         13    1    4    4    0    0 -0.28526345748E+02  0.53196960140E+01 -0.14942228942E+02  0.32639267350E+02  0.00000000000E+00 0.  1.
         21    1    1    2  502  501 -0.19842040046E+03  0.23085532451E+02  0.13517402124E+03  0.24119621296E+03  0.00000000000E+00 0. -1.
         21    1    1    2  503  502  0.23331705784E+02 -0.32043584600E+02  0.81221306309E+01  0.40461448501E+02  0.00000000000E+00 0.  1.
<scales pt_clust_5="13000.00000" pt_clust_6="13000.00000" pt_clust_7="13000.00000" pt_clust_8="13000.00000" pt_clust_9="195.10282" pt_clust_10="39.63786"></scales>
<clustering>
<clus scale="   39.638">  1 10  2 -1</clus>
<clus scale="   82.759">  5  6 -1 -1</clus>
<clus scale="   94.524">  7  8 -1 -1</clus>
<clus scale="  124.363">  1  7  2 -1</clus>
<clus scale="  195.103">  1  9  2 -1</clus>
<clus scale="   39.638">  1  5  2 -1</clus>
</clustering>
</event>
<event>
10    2  0.1133532E-006  0.2289545E+03  0.7546771E-02  0.1129114E+00
         -1   -1    0    0    0  501 -0.00000000000E+00  0.00000000000E+00  0.49285059217E+03  0.49285059217E+03  0.00000000000E+00 0.  1.
          1   -1    0    0  503    0  0.00000000000E+00 -0.00000000000E+00 -0.37160636530E+03  0.37160636530E+03  0.00000000000E+00 0. -1.
         23    2    1    2    0    0  0.19096031738E+03 -0.13006585921E+03  0.19252511217E+03  0.30746133565E+03  0.63902922924E+02 0.  0.
         23    2    1    2    0    0 -0.19552326005E+03  0.24929927083E+02 -0.19579432155E+03  0.29252014633E+03  0.91552024390E+02 0.  0.
        -11    1    4    4    0    0 -0.98557146381E+02 -0.20666868892E+02 -0.52414350099E+02  0.11352486366E+03  0.00000000000E+00 0.  1.
         11    1    4    4    0    0 -0.96966113671E+02  0.45596795975E+02 -0.14337997146E+03  0.17899528267E+03  0.00000000000E+00 0. -1.
        -11    1    3    3    0    0  0.37719422478E+02 -0.60784559379E+02  0.56143184026E+02  0.90937201428E+02  0.00000000000E+00 0. -1.
         11    1    3    3    0    0  0.15324089490E+03 -0.69281299828E+02  0.13638192814E+03  0.21652413422E+03  0.00000000000E+00 0.  1.
         21    1    1    2  502  501  0.10188192008E+02  0.65357964156E+02  0.18239459620E+03  0.19401868843E+03  0.00000000000E+00 0.  1.
         21    1    1    2  503  502 -0.56252493381E+01  0.39777967968E+02 -0.57881159948E+02  0.70456787059E+02  0.00000000000E+00 0.  1.
<scales pt_clust_5="13000.00000" pt_clust_6="13000.00000" pt_clust_7="13000.00000" pt_clust_8="13000.00000" pt_clust_9="66.87429" pt_clust_10="40.17375"></scales>
<clustering>
<clus scale="   40.174">  2 10  1 -1</clus>
<clus scale="   63.903">  7  8 -1 -1</clus>
<clus scale="   66.874">  1  9  2 -1</clus>
<clus scale="   91.552">  5  6 -1 -1</clus>
<clus scale="  219.367">  1  7  2 -1</clus>
<clus scale="   40.174">  2  5  1 -1</clus>
</clustering>
</event>
<event>
10    2  0.1133532E-006  0.1565001E+03  0.7546771E-02  0.1193207E+00
         -2   -1    0    0    0  501 -0.00000000000E+00  0.00000000000E+00  0.11126420377E+03  0.11126420377E+03  0.00000000000E+00 0.  1.
          2   -1    0    0  503    0  0.00000000000E+00 -0.00000000000E+00 -0.56141673296E+03  0.56141673296E+03  0.00000000000E+00 0. -1.
         23    2    1    2    0    0  0.94853931907E+02  0.31234094099E+02 -0.53216034510E+02  0.14623033572E+03  0.92620341841E+02 0.  0.
         23    2    1    2    0    0 -0.15090528195E+03 -0.44549504679E+02 -0.37326266877E+03  0.41488193017E+03  0.89693553807E+02 0.  0.
        -11    1    4    4    0    0 -0.11608537279E+03 -0.10784120057E+02 -0.32963524830E+03  0.34964483114E+03  0.00000000000E+00 0. -1.
         11    1    4    4    0    0 -0.34819909162E+02 -0.33765384622E+02 -0.43627420470E+02  0.65237099028E+02  0.00000000000E+00 0.  1.
        -13    1    3    3    0    0  0.38994494646E+02 -0.45448424111E+01  0.22753073605E+02  0.45375418055E+02  0.00000000000E+00 0.  1.
         13    1    3    3    0    0  0.55859437262E+02  0.35778936510E+02 -0.75969108115E+02  0.10085491766E+03  0.00000000000E+00 0. -1.
         21    1    1    2  502  501  0.29186707159E+02 -0.61370150338E-01  0.35055801232E+02  0.45615532893E+02  0.00000000000E+00 0.  1.
         21    1    1    2  503  502  0.26864642885E+02  0.13376780731E+02 -0.58729627139E+02  0.65953137938E+02  0.00000000000E+00 0.  1.
<scales pt_clust_5="13000.00000" pt_clust_6="13000.00000" pt_clust_7="13000.00000" pt_clust_8="13000.00000" pt_clust_9="29.18677" pt_clust_10="31.34687"></scales>
<clustering>
<clus scale="   29.187">  1  9  2 -1</clus>
<clus scale="   31.347">  2 10  1 -1</clus>
<clus scale="   89.694">  5  6 -1 -1</clus>
<clus scale="   92.620">  7  8 -1 -1</clus>
<clus scale="  154.786">  2  5  1 -1</clus>
<clus scale="   31.347">  2  5  1 -1</clus>
</clustering>
</event>
<event>
10    2  0.1133532E-006  0.1341817E+03  0.7546771E-02  0.1225157E+00
         -2   -1    0    0    0  501 -0.00000000000E+00  0.00000000000E+00  0.70528123558E+02  0.70528123558E+02  0.00000000000E+00 0.  1.
          2   -1    0    0  503    0  0.00000000000E+00 -0.00000000000E+00 -0.60131738137E+03  0.60131738137E+03  0.00000000000E+00 0. -1.
         23    2    1    2    0    0  0.55841881138E+02  0.64605940170E+02 -0.42457776824E+02  0.14215710056E+03  0.10542170191E+03 0.  0.
         23    2    1    2    0    0 -0.48574440474E+02 -0.51499354629E+02 -0.28120104275E+03  0.30425617375E+03  0.92120209630E+02 0.  0.
        -11    1    3    3    0    0 -0.25038406778E+02 -0.28520816070E+01  0.64844101587E+01  0.26021217469E+02  0.00000000000E+00 0. -1.
         11    1    3    3    0    0  0.80880287916E+02  0.67458021777E+02 -0.48942186982E+02  0.11613588309E+03  0.00000000000E+00 0.  1.
        -13    1    4    4    0    0 -0.58130815986E+02 -0.93361393515E+01 -0.22914931694E+03  0.23659197941E+03  0.00000000000E+00 0. -1.
         13    1    4    4    0    0  0.95563755112E+01 -0.42163215277E+02 -0.52051725811E+02  0.67664194337E+02  0.00000000000E+00 0.  1.
         21    1    1    2  502  501 -0.17679394088E+02  0.17103897348E+02 -0.11402670452E+02  0.27113191867E+02  0.00000000000E+00 0. -1.
         21    1    1    2  503  502  0.10411953424E+02 -0.30210482888E+02 -0.19572776778E+03  0.19831903875E+03  0.00000000000E+00 0.  1.
<scales pt_clust_5="13000.00000" pt_clust_6="13000.00000" pt_clust_7="13000.00000" pt_clust_8="13000.00000" pt_clust_9="24.59887" pt_clust_10="31.50184"></scales>
<clustering>
<clus scale="   24.599">  1  9  2 -1</clus>
<clus scale="   31.502">  2 10  1 -1</clus>
<clus scale="   92.120">  7  8 -1 -1</clus>
<clus scale="  105.422">  5  6 -1 -1</clus>
<clus scale="  124.005">  2  7  1 -1</clus>
<clus scale="   31.502">  2  5  1 -1</clus>
</clustering>
</event>
<event>
10    2  0.1133532E-006  0.2641397E+03  0.7546771E-02  0.1104780E+00
          2   -1    0    0  503    0  0.00000000000E+00  0.00000000000E+00  0.16783964216E+04  0.16783964216E+04  0.00000000000E+00 0. -1.
         -2   -1    0    0    0  501 -0.00000000000E+00 -0.00000000000E+00 -0.18636702661E+03  0.18636702661E+03  0.00000000000E+00 0.  1.
         23    2    1    2    0    0 -0.83559662291E+02  0.20490721360E+03  0.13905110672E+03  0.27759991355E+03  0.93580544870E+02 0.  0.
         23    2    1    2    0    0  0.13318563799E+03 -0.21441602883E+03  0.13543014820E+04  0.13806691930E+04  0.91663889437E+02 0.  0.
        -13    1    3    3    0    0 -0.26079101683E+02  0.17030214466E+03  0.89167453614E+02  0.19399426487E+03  0.00000000000E+00 0.  1.
         13    1    3    3    0    0 -0.57480560607E+02  0.34605068940E+02  0.49883653103E+02  0.83605648678E+02  0.00000000000E+00 0. -1.
        -13    1    4    4    0    0  0.10016426182E+03 -0.75005143756E+02  0.65363624101E+03  0.66550656382E+03  0.00000000000E+00 0.  1.
         13    1    4    4    0    0  0.33021376171E+02 -0.13941088507E+03  0.70066524100E+03  0.71516262913E+03  0.00000000000E+00 0. -1.
         21    1    1    2  502  501  0.14625253291E+02 -0.19075189110E+02 -0.90093543705E+02  0.93244879166E+02  0.00000000000E+00 0.  1.
         21    1    1    2  503  502 -0.64251228993E+02  0.28584004344E+02  0.88770349967E+02  0.11324946254E+03  0.00000000000E+00 0.  1.
<scales pt_clust_5="13000.00000" pt_clust_6="13000.00000" pt_clust_7="13000.00000" pt_clust_8="13000.00000" pt_clust_9="24.03666" pt_clust_10="67.60966"></scales>
<clustering>
<clus scale="   24.037">  2  9  1 -1</clus>
<clus scale="   67.610">  2 10  1 -1</clus>
<clus scale="   91.664">  7  8 -1 -1</clus>
<clus scale="   93.581">  5  6 -1 -1</clus>
<clus scale="  263.467">  1  7  2 -1</clus>
<clus scale="  263.467">  1  5  2 -1</clus>
</clustering>
</event>
<event>
10    2  0.1133532E-006  0.1929076E+03  0.7546771E-02  0.1156123E+00
         -1   -1    0    0    0  501 -0.00000000000E+00  0.00000000000E+00  0.17727967406E+03  0.17727967406E+03  0.00000000000E+00 0.  1.
          1   -1    0    0  503    0  0.00000000000E+00 -0.00000000000E+00 -0.56369453028E+03  0.56369453028E+03  0.00000000000E+00 0. -1.
         23    2    1    2    0    0  0.11583265026E+03  0.16090032278E+02  0.18917788756E+02  0.14812129613E+03  0.88915373426E+02 0.  0.
         23    2    1    2    0    0 -0.19995541934E+03 -0.37194134458E+02 -0.25703773295E+03  0.34027581884E+03  0.91398377248E+02 0.  0.
        -13    1    3    3    0    0  0.67331371069E+02  0.65197328631E+00  0.53991815675E+02  0.86307906701E+02  0.00000000000E+00 0.  1.
         13    1    3    3    0    0  0.48501279193E+02  0.15438058992E+02 -0.35074026919E+02  0.61813389433E+02  0.00000000000E+00 0. -1.
        -13    1    4    4    0    0 -0.15489282973E+02 -0.34708013028E+02 -0.35798315194E+02  0.52211908854E+02  0.00000000000E+00 0.  1.
         13    1    4    4    0    0 -0.18446613637E+03 -0.24861214300E+01 -0.22123941776E+03  0.28806390999E+03  0.00000000000E+00 0. -1.
         21    1    1    2  502  501  0.74051356159E+02 -0.42715364771E+01  0.24132684198E+02  0.78001511648E+02  0.00000000000E+00 0. -1.
         21    1    1    2  503  502  0.10071412923E+02  0.25375638657E+02 -0.17242759622E+03  0.17457557772E+03  0.00000000000E+00 0.  1.
<scales pt_clust_5="13000.00000" pt_clust_6="13000.00000" pt_clust_7="13000.00000" pt_clust_8="13000.00000" pt_clust_9="74.78903" pt_clust_10="27.30122"></scales>
<clustering>
<clus scale="   27.301">  2 10  1 -1</clus>
<clus scale="   74.789">  1  9  2 -1</clus>
<clus scale="   88.915">  5  6 -1 -1</clus>
<clus scale="   91.398">  7  8 -1 -1</clus>
<clus scale="  191.744">  1  5  2 -1</clus>
<clus scale="   27.301">  2  5  1 -1</clus>
</clustering>
</event>
<event>
10    2  0.1133532E-006  0.2912030E+03  0.7546771E-02  0.1130324E+00
          1   -1    0    0  503    0  0.00000000000E+00  0.00000000000E+00  0.15920233889E+03  0.15920233889E+03  0.00000000000E+00 0. -1.
         -1   -1    0    0    0  501 -0.00000000000E+00 -0.00000000000E+00 -0.17585035662E+04  0.17585035662E+04  0.00000000000E+00 0.  1.
         23    2    1    2    0    0 -0.21774359927E+03  0.20284204650E+03 -0.13525156317E+04  0.13885009159E+04  0.10039466386E+03 0.  0.
         23    2    1    2    0    0  0.47004672984E+02 -0.13471189022E+02 -0.61312578112E+02  0.11999226605E+03  0.90818497349E+02 0.  0.
        -13    1    3    3    0    0 -0.65917918144E+01  0.56962037085E+02 -0.25918204435E+03  0.26544953853E+03  0.00000000000E+00 0. -1.
         13    1    3    3    0    0 -0.21115180745E+03  0.14588000942E+03 -0.10933335874E+04  0.11230513774E+04  0.00000000000E+00 0.  1.
        -13    1    4    4    0    0 -0.18094642851E+02 -0.30607996172E+02 -0.25380236149E+02  0.43685488627E+02  0.00000000000E+00 0.  1.
         13    1    4    4    0    0  0.65099315835E+02  0.17136807151E+02 -0.35932341962E+02  0.76306777421E+02  0.00000000000E+00 0. -1.
         21    1    1    2  502  501  0.58726458185E+01 -0.25128186174E+02 -0.17433099310E+03  0.17623055599E+03  0.00000000000E+00 0.  1.
         21    1    1    2  503  502  0.16486628047E+03 -0.16424267131E+03 -0.11142024387E+02  0.23298216717E+03  0.00000000000E+00 0. -1.
<scales pt_clust_5="13000.00000" pt_clust_6="13000.00000" pt_clust_7="13000.00000" pt_clust_8="13000.00000" pt_clust_9="25.80530" pt_clust_10="273.34979"></scales>
<clustering>
<clus scale="   25.805">  2  9  1 -1</clus>
<clus scale="   90.818">  7  8 -1 -1</clus>
<clus scale="  100.395">  5  6 -1 -1</clus>
<clus scale="  103.496">  1  7  2 -1</clus>
<clus scale="  273.350">  1 10  2 -1</clus>
<clus scale="  103.496">  1  5  2 -1</clus>
</clustering>
</event>
<event>
10    2  0.1133532E-006  0.1000860E+03  0.7546771E-02  0.1287592E+00
         -1   -1    0    0    0  501 -0.00000000000E+00  0.00000000000E+00  0.25173488429E+03  0.25173488429E+03  0.00000000000E+00 0.  1.
          1   -1    0    0  503    0  0.00000000000E+00 -0.00000000000E+00 -0.11581208514E+03  0.11581208514E+03  0.00000000000E+00 0. -1.
         23    2    1    2    0    0 -0.19271726562E+02  0.17783555915E+02  0.13605736402E+03  0.15891712406E+03  0.77816397429E+02 0.  0.
         23    2    1    2    0    0  0.48369091945E+02  0.30798076441E+02 -0.50280154823E+02  0.11974700115E+03  0.92320960499E+02 0.  0.
        -11    1    3    3    0    0 -0.36789708509E+02 -0.13007772440E+02  0.10422607398E+03  0.11129132623E+03  0.00000000000E+00 0.  1.
         11    1    3    3    0    0  0.17517981947E+02  0.30791328355E+02  0.31831290040E+02  0.47625797830E+02  0.00000000000E+00 0. -1.
        -11    1    4    4    0    0  0.73185770114E+02  0.58290575970E+01 -0.32142987191E+02  0.80145533159E+02  0.00000000000E+00 0. -1.
         11    1    4    4    0    0 -0.24816678169E+02  0.24969018844E+02 -0.18137167632E+02  0.39601467992E+02  0.00000000000E+00 0.  1.
         21    1    1    2  502  501 -0.25234747789E+02 -0.11176499154E+02  0.42239415419E+02  0.50456663032E+02  0.00000000000E+00 0.  1.
         21    1    1    2  503  502 -0.38626175934E+01 -0.37405133201E+02  0.79061745324E+01  0.38426181181E+02  0.00000000000E+00 0.  1.
<scales pt_clust_5="13000.00000" pt_clust_6="13000.00000" pt_clust_7="13000.00000" pt_clust_8="13000.00000" pt_clust_9="27.59903" pt_clust_10="39.24348"></scales>
<clustering>
<clus scale="   27.599">  1  9  2 -1</clus>
<clus scale="   39.243">  2 10  1 -1</clus>
<clus scale="   77.816">  5  6 -1 -1</clus>
<clus scale="   86.887">  1  5  2 -1</clus>
<clus scale="   92.321">  7  8 -1 -1</clus>
<clus scale="   39.243">  2  5  1 -1</clus>
</clustering>
</event>
<event>
10    2  0.1133532E-006  0.1000229E+03  0.7546771E-02  0.1281221E+00
         -1   -1    0    0    0  501 -0.00000000000E+00  0.00000000000E+00  0.73366854941E+02  0.73366854941E+02  0.00000000000E+00 0.  1.
          1   -1    0    0  503    0  0.00000000000E+00 -0.00000000000E+00 -0.42660334747E+03  0.42660334747E+03  0.00000000000E+00 0. -1.
         23    2    1    2    0    0 -0.53800496577E+02 -0.21642365056E+01 -0.69846672364E+02  0.12426530364E+03  0.87545020972E+02 0.  0.
         23    2    1    2    0    0  0.41386806405E+02  0.28321356650E+01 -0.27279759059E+03  0.29011542647E+03  0.89596576447E+02 0.  0.
        -13    1    3    3    0    0  0.11203441587E+02  0.27761133530E+02 -0.29893231944E+02  0.42306062856E+02  0.00000000000E+00 0.  1.
         13    1    3    3    0    0 -0.65003938165E+02 -0.29925370036E+02 -0.39953440420E+02  0.81959240785E+02  0.00000000000E+00 0. -1.
        -13    1    4    4    0    0 -0.15022064027E+02  0.28910193488E+02 -0.58176300413E+02  0.66677909572E+02  0.00000000000E+00 0.  1.
         13    1    4    4    0    0  0.56408870432E+02 -0.26078057823E+02 -0.21462129017E+03  0.22343751690E+03  0.00000000000E+00 0. -1.
         21    1    1    2  502  501 -0.53545551853E+01 -0.33997109516E+02 -0.27649151314E+02  0.44146917051E+02  0.00000000000E+00 0. -1.
         21    1    1    2  503  502  0.17768245358E+02  0.33329210357E+02  0.17056921737E+02  0.41442555245E+02  0.00000000000E+00 0.  1.
<scales pt_clust_5="13000.00000" pt_clust_6="13000.00000" pt_clust_7="13000.00000" pt_clust_8="13000.00000" pt_clust_9="34.41620" pt_clust_10="23.70926"></scales>
<clustering>
<clus scale="   34.416">  1  9  2 -1</clus>
<clus scale="   23.709">  1 10  2 -1</clus>
<clus scale="   87.545">  5  6 -1 -1</clus>
<clus scale="   89.597">  7  8 -1 -1</clus>
<clus scale="   98.189">  1  5  2 -1</clus>
<clus scale="  100.023">  2  5  1 -1</clus>
</clustering>
</event>
<event>
10    2  0.1133532E-006  0.1011928E+03  0.7546771E-02  0.1278276E+00
          2   -1    0    0  503    0  0.00000000000E+00  0.00000000000E+00  0.15467879955E+03  0.15467879955E+03  0.00000000000E+00 0.  1.
         -2   -1    0    0    0  501 -0.00000000000E+00 -0.00000000000E+00 -0.14189023193E+03  0.14189023193E+03  0.00000000000E+00 0. -1.
         23    2    1    2    0    0  0.39085001451E+02 -0.60621328436E+01 -0.19947984841E+02  0.99927966443E+02  0.89572817223E+02 0.  0.
         23    2    1    2    0    0 -0.50135938386E+02 -0.99179222573E+01  0.75174882483E+02  0.12690599948E+03  0.88554459214E+02 0.  0.
        -11    1    4    4    0    0 -0.97540313517E+01  0.32739789275E+02  0.36560497365E+01  0.34356973514E+02  0.00000000000E+00 0. -1.
         11    1    4    4    0    0 -0.40381907034E+02 -0.42657711532E+02  0.71518832747E+02  0.92549025961E+02  0.00000000000E+00 0.  1.
        -13    1    3    3    0    0 -0.24775273427E+02  0.10861725985E+02  0.79778009949E+01  0.28203485130E+02  0.00000000000E+00 0.  1.
         13    1    3    3    0    0  0.63860274878E+02 -0.16923858829E+02 -0.27925785836E+02  0.71724481314E+02  0.00000000000E+00 0. -1.
         21    1    1    2  502  501  0.22952323101E+02 -0.91098286719E+01 -0.31170002369E+02  0.39766407455E+02  0.00000000000E+00 0. -1.
         21    1    1    2  503  502 -0.11901386166E+02  0.25089883773E+02 -0.11268327662E+02  0.29968658107E+02  0.00000000000E+00 0. -1.
<scales pt_clust_5="13000.00000" pt_clust_6="13000.00000" pt_clust_7="13000.00000" pt_clust_8="13000.00000" pt_clust_9="24.69409" pt_clust_10="24.48718"></scales>
<clustering>
<clus scale="   24.694">  2  9  1 -1</clus>
<clus scale="   24.487">  2 10  1 -1</clus>
<clus scale="   88.554">  5  6 -1 -1</clus>
<clus scale="   89.573">  7  8 -1 -1</clus>
<clus scale="  100.292">  1  5  2 -1</clus>
<clus scale="  100.292">  1  5  2 -1</clus>
</clustering>
</event>
<event>
10    2  0.1133532E-006  0.3635501E+03  0.7546771E-02  0.1057270E+00
         -1   -1    0    0    0  501 -0.00000000000E+00  0.00000000000E+00  0.68325728246E+03  0.68325728246E+03  0.00000000000E+00 0.  1.
          1   -1    0    0  502    0  0.00000000000E+00 -0.00000000000E+00 -0.41205841388E+03  0.41205841388E+03  0.00000000000E+00 0. -1.
         23    2    1    2    0    0  0.23392735921E+03 -0.71353417144E+02 -0.10084646090E+01  0.26063737766E+03  0.90097203674E+02 0.  0.
         23    2    1    2    0    0 -0.43115981889E+03  0.16369675135E+03  0.27846223154E+03  0.54678005085E+03  0.93444067659E+02 0.  0.
        -11    1    3    3    0    0  0.78550826344E+02 -0.36269371146E+02 -0.41976471026E+02  0.96165085777E+02  0.00000000000E+00 0. -1.
         11    1    3    3    0    0  0.15537653286E+03 -0.35084045998E+02  0.40968006417E+02  0.16447229188E+03  0.00000000000E+00 0.  1.
        -11    1    4    4    0    0 -0.10392409813E+03  0.72962442380E+02  0.45129671626E+02  0.13476061528E+03  0.00000000000E+00 0.  1.
         11    1    4    4    0    0 -0.32723572076E+03  0.90734308966E+02  0.23333255991E+03  0.41201943556E+03  0.00000000000E+00 0. -1.
         21    1    1    2  502  503  0.14685021954E+02 -0.10384136526E+03 -0.47711512818E+01  0.10498306003E+03  0.00000000000E+00 0.  1.
         21    1    1    2  503  501  0.18254743773E+03  0.11498031054E+02 -0.14837470675E+01  0.18291520780E+03  0.00000000000E+00 0.  1.
<scales pt_clust_5="13000.00000" pt_clust_6="13000.00000" pt_clust_7="13000.00000" pt_clust_8="13000.00000" pt_clust_9="104.87459" pt_clust_10="186.96571"></scales>
<clustering>
<clus scale="   90.097">  5  6 -1 -1</clus>
<clus scale="   93.444">  7  8 -1 -1</clus>
<clus scale="  104.875">  2  9  1 -1</clus>
<clus scale="  186.966">  2 10  1 -1</clus>
<clus scale="  362.704">  1  5  2 -1</clus>
<clus scale="  104.875">  2  5  1 -1</clus>
</clustering>
</event>
<event>
10    2  0.1133532E-006  0.2906552E+03  0.7546771E-02  0.1090029E+00
          1   -1    0    0  503    0  0.00000000000E+00  0.00000000000E+00  0.75098393471E+03  0.75098393471E+03  0.00000000000E+00 0. -1.
         -1   -1    0    0    0  501 -0.00000000000E+00 -0.00000000000E+00 -0.19306387956E+03  0.19306387956E+03  0.00000000000E+00 0.  1.
         23    2    1    2    0    0  0.24880611515E+03 -0.23526568762E+03  0.25482132779E+03  0.43650391163E+03  0.91363718554E+02 0.  0.
         23    2    1    2    0    0 -0.13311547099E+03  0.17992216588E+03  0.15116724359E+03  0.28494722573E+03  0.90838711605E+02 0.  0.
        -11    1    3    3    0    0  0.13254010160E+03 -0.66516124591E+02  0.12471565878E+03  0.19376601587E+03  0.00000000000E+00 0. -1.
         11    1    3    3    0    0  0.11626601355E+03 -0.16874956303E+03  0.13010566900E+03  0.24273789576E+03  0.00000000000E+00 0.  1.
        -11    1    4    4    0    0 -0.13683787570E+03  0.13164796175E+03  0.13811562686E+03  0.23480144046E+03  0.00000000000E+00 0. -1.
         11    1    4    4    0    0  0.37224047113E+01  0.48274204131E+02  0.13051616731E+02  0.50145785273E+02  0.00000000000E+00 0.  1.
         21    1    1    2  502  501 -0.95699322796E+02  0.33307654427E+02  0.43702378007E+02  0.11035242666E+03  0.00000000000E+00 0.  1.
         21    1    1    2  503  502 -0.19991321360E+02  0.22035867318E+02  0.10822910576E+03  0.11224425024E+03  0.00000000000E+00 0. -1.
<scales pt_clust_5="13000.00000" pt_clust_6="13000.00000" pt_clust_7="13000.00000" pt_clust_8="13000.00000" pt_clust_9="104.48445" pt_clust_10="29.75285"></scales>
<clustering>
<clus scale="   29.753">  1 10  2 -1</clus>
<clus scale="   90.839">  7  8 -1 -1</clus>
<clus scale="   91.364">  5  6 -1 -1</clus>
<clus scale="  104.484">  2  9  1 -1</clus>
<clus scale="  290.491">  1  7  2 -1</clus>
<clus scale="   29.753">  1  5  2 -1</clus>
</clustering>
</event>
<event>
10    2  0.1133532E-006  0.1361721E+03  0.7546771E-02  0.1222749E+00
          2   -1    0    0  503    0  0.00000000000E+00  0.00000000000E+00  0.19650825792E+03  0.19650825792E+03  0.00000000000E+00 0. -1.
         -2   -1    0    0    0  501 -0.00000000000E+00 -0.00000000000E+00 -0.26324337900E+03  0.26324337900E+03  0.00000000000E+00 0.  1.
         23    2    1    2    0    0 -0.11742933367E+03 -0.24780367973E+02 -0.11693536996E+03  0.18892785317E+03  0.87270487065E+02 0.  0.
         23    2    1    2    0    0  0.11975509896E+02  0.40375578580E+02  0.70337743073E+02  0.13158865737E+03  0.10292995902E+03 0.  0.
        -13    1    4    4    0    0 -0.21377137527E+02 -0.55662073501E+01  0.71469553508E+02  0.74805492791E+02  0.00000000000E+00 0.  1.
         13    1    4    4    0    0  0.33352647423E+02  0.45941785930E+02 -0.11318104356E+01  0.56783164577E+02  0.00000000000E+00 0. -1.
        -13    1    3    3    0    0 -0.78757900531E+02 -0.38990178661E+02 -0.11869911066E+03  0.14769062191E+03  0.00000000000E+00 0.  1.
         13    1    3    3    0    0 -0.38671433143E+02  0.14209810688E+02  0.17637406993E+01  0.41237231264E+02  0.00000000000E+00 0. -1.
         21    1    1    2  502  501  0.20631885819E+02 -0.22713563607E+02 -0.41369047679E+02  0.51507075146E+02  0.00000000000E+00 0.  1.
         21    1    1    2  503  502  0.84821937958E+02  0.71183530000E+01  0.21231553489E+02  0.87728051226E+02  0.00000000000E+00 0. -1.
<scales pt_clust_5="13000.00000" pt_clust_6="13000.00000" pt_clust_7="13000.00000" pt_clust_8="13000.00000" pt_clust_9="30.68519" pt_clust_10="88.06101"></scales>
<clustering>
<clus scale="   30.685">  2  9  1 -1</clus>
<clus scale="   87.270">  7  8 -1 -1</clus>
<clus scale="   88.061">  1 10  2 -1</clus>
<clus scale="  102.930">  5  6 -1 -1</clus>
<clus scale="  124.757">  2  7  1 -1</clus>
<clus scale="   88.061">  1  5  2 -1</clus>
</clustering>
</event>
<event>
10    2  0.1133532E-006  0.1478628E+03  0.7546771E-02  0.1203255E+00
          1   -1    0    0  503    0  0.00000000000E+00  0.00000000000E+00  0.94070600172E+02  0.94070600172E+02  0.00000000000E+00 0. -1.
         -1   -1    0    0    0  501 -0.00000000000E+00 -0.00000000000E+00 -0.54476651472E+03  0.54476651472E+03  0.00000000000E+00 0.  1.
         23    2    1    2    0    0 -0.40633030619E+02 -0.11602433526E+03 -0.16853726187E+03  0.22858047914E+03  0.93442695023E+02 0.  0.
         23    2    1    2    0    0  0.63455163520E+02  0.88526266007E+02 -0.14004047781E+03  0.20020649261E+03  0.92778481912E+02 0.  0.
        -11    1    3    3    0    0 -0.44854643182E+02 -0.72554228757E+01 -0.45460428594E+02  0.64274650867E+02  0.00000000000E+00 0.  1.
         11    1    3    3    0    0  0.42216125629E+01 -0.10876891238E+03 -0.12307683328E+03  0.16430582827E+03  0.00000000000E+00 0. -1.
        -13    1    4    4    0    0 -0.10796332042E+02  0.62787266497E+02 -0.73181648046E+02  0.97027600354E+02  0.00000000000E+00 0.  1.
         13    1    4    4    0    0  0.74251495562E+02  0.25738999510E+02 -0.66858829769E+02  0.10317889226E+03  0.00000000000E+00 0. -1.
         21    1    1    2  502  501 -0.43351821280E+02  0.30451395691E+02 -0.16841907436E+03  0.17655495608E+03  0.00000000000E+00 0.  1.
         21    1    1    2  503  502  0.20529688379E+02 -0.29533264430E+01  0.26300899502E+02  0.33495187066E+02  0.00000000000E+00 0. -1.
<scales pt_clust_5="13000.00000" pt_clust_6="13000.00000" pt_clust_7="13000.00000" pt_clust_8="13000.00000" pt_clust_9="51.80887" pt_clust_10="20.74103"></scales>
<clustering>
<clus scale="   20.741">  1 10  2 -1</clus>
<clus scale="   51.809">  2  9  1 -1</clus>
<clus scale="   92.778">  7  8 -1 -1</clus>
<clus scale="   93.443">  5  6 -1 -1</clus>
<clus scale="  147.444">  1  7  2 -1</clus>
<clus scale="   20.741">  1  5  2 -1</clus>
</clustering>
</event>
<event>
10    2  0.1133532E-006  0.1877648E+03  0.7546771E-02  0.1160614E+00
         -1   -1    0    0    0  501 -0.00000000000E+00  0.00000000000E+00  0.73386275090E+03  0.73386275090E+03  0.00000000000E+00 0.  1.
          1   -1    0    0  503    0  0.00000000000E+00 -0.00000000000E+00 -0.81217439430E+02  0.81217439430E+02  0.00000000000E+00 0. -1.
         23    2    1    2    0    0  0.14960082442E+03 -0.79192825476E+02  0.43988519222E+03  0.47983164108E+03  0.89930590880E+02 0.  0.
         23    2    1    2    0    0 -0.14910998808E+03  0.36932626044E+02  0.10875931283E+03  0.20812502604E+03  0.88823594410E+02 0.  0.
        -11    1    4    4    0    0 -0.84190731801E+02  0.56064097648E+02  0.95599254291E+02  0.13917787104E+03  0.00000000000E+00 0.  1.
         11    1    4    4    0    0 -0.64919256280E+02 -0.19131471604E+02  0.13160058542E+02  0.68947154999E+02  0.00000000000E+00 0. -1.
        -13    1    3    3    0    0  0.11939923271E+03 -0.15874115362E+02  0.30179398681E+03  0.32494272539E+03  0.00000000000E+00 0.  1.
         13    1    3    3    0    0  0.30201591707E+02 -0.63318710114E+02  0.13809120541E+03  0.15488891569E+03  0.00000000000E+00 0. -1.
         21    1    1    2  502  501  0.14879741667E+02  0.28828589654E+02  0.10149992614E+03  0.10655857216E+03  0.00000000000E+00 0.  1.
         21    1    1    2  503  502 -0.15370578008E+02  0.13431609777E+02  0.25008802738E+01  0.20564951049E+02  0.00000000000E+00 0.  1.
<scales pt_clust_5="13000.00000" pt_clust_6="13000.00000" pt_clust_7="13000.00000" pt_clust_8="13000.00000" pt_clust_9="32.62075" pt_clust_10="20.41232"></scales>
<clustering>
<clus scale="   20.412">  2 10  1 -1</clus>
<clus scale="   32.621">  1  9  2 -1</clus>
<clus scale="   88.824">  5  6 -1 -1</clus>
<clus scale="   89.931">  7  8 -1 -1</clus>
<clus scale="  187.237">  2  5  1 -1</clus>
<clus scale="   20.412">  2  5  1 -1</clus>
</clustering>
</event>
<event>
10    2  0.1133532E-006  0.9494234E+02  0.7546771E-02  0.1292288E+00
          1   -1    0    0  503    0  0.00000000000E+00  0.00000000000E+00  0.25993266883E+03  0.25993266883E+03  0.00000000000E+00 0. -1.
         -1   -1    0    0    0  501 -0.00000000000E+00 -0.00000000000E+00 -0.18738061113E+03  0.18738061113E+03  0.00000000000E+00 0.  1.
         23    2    1    2    0    0  0.60957299674E+02 -0.18933658841E+01 -0.77643770792E+02  0.13232378922E+03  0.88100243093E+02 0.  0.
         23    2    1    2    0    0  0.70003237178E+01 -0.18835630899E+02  0.30038192887E+02  0.96914644913E+02  0.89924245025E+02 0.  0.
        -11    1    3    3    0    0  0.56097474587E+01  0.37986181648E+02 -0.21739897797E+02  0.44125303613E+02  0.00000000000E+00 0.  1.
         11    1    3    3    0    0  0.55347552215E+02 -0.39879547532E+02 -0.55903872995E+02  0.88198485607E+02  0.00000000000E+00 0. -1.
        -11    1    4    4    0    0 -0.30010246734E+02 -0.12594310761E+02 -0.17015183389E+02  0.36725305149E+02  0.00000000000E+00 0. -1.
         11    1    4    4    0    0  0.37010570452E+02 -0.62413201382E+01  0.47053376276E+02  0.60189339764E+02  0.00000000000E+00 0.  1.
         21    1    1    2  502  501 -0.23733446843E+02 -0.17604671135E+02 -0.38750458349E+02  0.48731909126E+02  0.00000000000E+00 0.  1.
         21    1    1    2  503  502 -0.44224176549E+02  0.38333667918E+02  0.15890809396E+03  0.16934293671E+03  0.00000000000E+00 0. -1.
<scales pt_clust_5="13000.00000" pt_clust_6="13000.00000" pt_clust_7="13000.00000" pt_clust_8="13000.00000" pt_clust_9="29.54997" pt_clust_10="58.76754"></scales>
<clustering>
<clus scale="   29.550">  2  9  1 -1</clus>
<clus scale="   58.768">  1 10  2 -1</clus>
<clus scale="   88.100">  5  6 -1 -1</clus>
<clus scale="   89.924">  7  8 -1 -1</clus>
<clus scale="   93.217">  2  5  1 -1</clus>
<clus scale="   58.768">  1  5  2 -1</clus>
</clustering>
</event>
<event>
10    2  0.1133532E-006  0.1085524E+03  0.7546771E-02  0.1264740E+00
          1   -1    0    0  503    0  0.00000000000E+00  0.00000000000E+00  0.54688346497E+03  0.54688346497E+03  0.00000000000E+00 0. -1.
         -1   -1    0    0    0  501 -0.00000000000E+00 -0.00000000000E+00 -0.46452129636E+02  0.46452129636E+02  0.00000000000E+00 0.  1.
         23    2    1    2    0    0 -0.51523332836E+02 -0.19756535465E+02  0.83183602194E+02  0.13575071327E+03  0.91998749765E+02 0.  0.
         23    2    1    2    0    0  0.44085262767E+02  0.11018794067E+02  0.18233796579E+03  0.21078788763E+03  0.95495945395E+02 0.  0.
        -13    1    3    3    0    0 -0.61253763199E+01  0.19929470856E+02  0.71307964723E+02  0.74293538593E+02  0.00000000000E+00 0. -1.
         13    1    3    3    0    0 -0.45397956516E+02 -0.39686006321E+02  0.11875637470E+02  0.61457174673E+02  0.00000000000E+00 0.  1.
        -13    1    4    4    0    0  0.42361072675E+02  0.50677384349E+02  0.11527923089E+03  0.13286067453E+03  0.00000000000E+00 0. -1.
         13    1    4    4    0    0  0.17241900921E+01 -0.39658590282E+02  0.67058734894E+02  0.77927213092E+02  0.00000000000E+00 0.  1.
         21    1    1    2  502  501  0.19094351016E+02  0.32101781871E+02  0.65621171394E+02  0.75506667090E+02  0.00000000000E+00 0. -1.
         21    1    1    2  503  502 -0.11656280948E+02 -0.23364040473E+02  0.16928859596E+03  0.17129032662E+03  0.00000000000E+00 0. -1.
<scales pt_clust_5="13000.00000" pt_clust_6="13000.00000" pt_clust_7="13000.00000" pt_clust_8="13000.00000" pt_clust_9="32.47423" pt_clust_10="26.11029"></scales>
<clustering>
<clus scale="   26.110">  1 10  2 -1</clus>
<clus scale="   32.474">  1  9  2 -1</clus>
<clus scale="   91.999">  5  6 -1 -1</clus>
<clus scale="   95.496">  7  8 -1 -1</clus>
<clus scale="  105.489">  2  5  1 -1</clus>
<clus scale="   26.110">  1  5  2 -1</clus>
</clustering>
</event>
<event>
10    2  0.2110837E-006  0.1763595E+03  0.7546771E-02  0.1171431E+00
          1   -1    0    0  502    0  0.00000000000E+00  0.00000000000E+00  0.22541512561E+03  0.22541512561E+03  0.00000000000E+00 0. -1.
         -1   -1    0    0    0  501 -0.00000000000E+00 -0.00000000000E+00 -0.39246596485E+03  0.39246596485E+03  0.00000000000E+00 0.  1.
         23    2    1    2    0    0 -0.11996473390E+03  0.51322773426E+02 -0.28314750596E+03  0.32507383758E+03  0.92059357458E+02 0.  0.
         23    2    1    2    0    0  0.13131164619E+03 -0.79102582062E+02  0.15073261169E+03  0.23369517895E+03  0.91614133865E+02 0.  0.
        -11    1    3    3    0    0 -0.10366261025E+03  0.13644168643E+02 -0.25413481044E+03  0.27480284201E+03  0.00000000000E+00 0.  1.
         11    1    3    3    0    0 -0.16302123653E+02  0.37678604783E+02 -0.29012695522E+02  0.50270995568E+02  0.00000000000E+00 0. -1.
        -13    1    4    4    0    0  0.11717157173E+03 -0.33692457405E+02  0.13863780100E+03  0.18462068891E+03  0.00000000000E+00 0. -1.
         13    1    4    4    0    0  0.14140074463E+02 -0.45410124657E+02  0.12094810690E+02  0.49074490041E+02  0.00000000000E+00 0.  1.
         21    1    1    2  502  503  0.95103342094E+01  0.23518471524E+02 -0.25425625703E+02  0.35916951457E+02  0.00000000000E+00 0.  1.
         21    1    1    2  503  501 -0.20857246499E+02  0.42613371125E+01 -0.92103192647E+01  0.23195122471E+02  0.00000000000E+00 0.  1.
<scales pt_clust_5="13000.00000" pt_clust_6="13000.00000" pt_clust_7="13000.00000" pt_clust_8="13000.00000" pt_clust_9="25.11128" pt_clust_10="21.28811"></scales>
<clustering>
<clus scale="   21.288">  2 10  1 -1</clus>
<clus scale="   25.111">  2  9  1 -1</clus>
<clus scale="   91.614">  7  8 -1 -1</clus>
<clus scale="   92.059">  5  6 -1 -1</clus>
<clus scale="  176.127">  1  7  2 -1</clus>
<clus scale="  176.127">  1  5  2 -1</clus>
</clustering>
</event>
<event>
10    2  0.1133532E-006  0.9684593E+02  0.7546771E-02  0.1291090E+00
         -1   -1    0    0    0  501 -0.00000000000E+00  0.00000000000E+00  0.24285888616E+03  0.24285888616E+03  0.00000000000E+00 0.  1.
          1   -1    0    0  502    0  0.00000000000E+00 -0.00000000000E+00 -0.10568212232E+03  0.10568212232E+03  0.00000000000E+00 0. -1.
         23    2    1    2    0    0 -0.44941067165E+02 -0.34114052311E+02  0.49830378783E+02  0.11691823856E+03  0.89461387065E+02 0.  0.
         23    2    1    2    0    0 -0.22290311972E+02 -0.58331453606E+01 -0.12423961182E+02  0.10000427809E+03  0.96517445227E+02 0.  0.
        -11    1    3    3    0    0 -0.32359063954E+01 -0.44127520212E+02  0.58310854352E+02  0.73197437561E+02  0.00000000000E+00 0.  1.
         11    1    3    3    0    0 -0.41705160770E+02  0.10013467901E+02 -0.84804755684E+01  0.43720801001E+02  0.00000000000E+00 0. -1.
        -13    1    4    4    0    0 -0.55127052262E+02 -0.25694319049E+02 -0.88643517023E+01  0.61463539221E+02  0.00000000000E+00 0. -1.
         13    1    4    4    0    0  0.32836740290E+02  0.19861173689E+02 -0.35596094800E+01  0.38540738873E+02  0.00000000000E+00 0.  1.
         21    1    1    2  502  503  0.87499872275E+01  0.20501350180E+02  0.15221384862E+02  0.26991817145E+02  0.00000000000E+00 0.  1.
         21    1    1    2  503  501  0.58481391909E+02  0.19445847491E+02  0.84548961381E+02  0.10462667468E+03  0.00000000000E+00 0.  1.
<scales pt_clust_5="13000.00000" pt_clust_6="13000.00000" pt_clust_7="13000.00000" pt_clust_8="13000.00000" pt_clust_9="21.29227" pt_clust_10="85.84466"></scales>
<clustering>
<clus scale="   21.292">  9 10 -1 -1</clus>
<clus scale="   85.845">  1  9  2 -1</clus>
<clus scale="   89.461">  5  6 -1 -1</clus>
<clus scale="   89.816">  1  5  2 -1</clus>
<clus scale="   96.517">  7  8 -1 -1</clus>
<clus scale="   96.846">  2  5  1 -1</clus>
</clustering>
</event>
<event>
10    2  0.1133532E-006  0.9440795E+02  0.7546771E-02  0.1292552E+00
         -1   -1    0    0    0  501 -0.00000000000E+00  0.00000000000E+00  0.15834985391E+03  0.15834985391E+03  0.00000000000E+00 0.  1.
          1   -1    0    0  503    0  0.00000000000E+00 -0.00000000000E+00 -0.43455558639E+03  0.43455558639E+03  0.00000000000E+00 0. -1.
         23    2    1    2    0    0  0.26759335663E+02 -0.13544657779E+02  0.10514888465E+03  0.14193026281E+03  0.90489732890E+02 0.  0.
         23    2    1    2    0    0 -0.82251900992E+01 -0.25525223703E+01 -0.17096571145E+03  0.19365933240E+03  0.90556575749E+02 0.  0.
        -11    1    3    3    0    0  0.11541191278E+01 -0.49043732765E+02  0.39282983960E+02  0.62847215875E+02  0.00000000000E+00 0. -1.
         11    1    3    3    0    0  0.25605216536E+02  0.35499074986E+02  0.65865900690E+02  0.79083046934E+02  0.00000000000E+00 0.  1.
        -13    1    4    4    0    0  0.37597098799E+02  0.13673987695E+02 -0.99367050596E+02  0.10711830153E+03  0.00000000000E+00 0.  1.
         13    1    4    4    0    0 -0.45822288898E+02 -0.16226510065E+02 -0.71598660853E+02  0.86541030873E+02  0.00000000000E+00 0. -1.
         21    1    1    2  502  501 -0.23978415646E+02 -0.19163711920E+02  0.11348641253E+02  0.32726196384E+02  0.00000000000E+00 0. -1.
         21    1    1    2  503  502  0.54442700814E+01  0.35260892069E+02 -0.22173754693E+03  0.22458964871E+03  0.00000000000E+00 0. -1.
<scales pt_clust_5="13000.00000" pt_clust_6="13000.00000" pt_clust_7="13000.00000" pt_clust_8="13000.00000" pt_clust_9="30.69548" pt_clust_10="35.44297"></scales>
<clustering>
<clus scale="   30.695">  1  9  2 -1</clus>
<clus scale="   35.443">  2 10  1 -1</clus>
<clus scale="   90.490">  5  6 -1 -1</clus>
<clus scale="   90.557">  7  8 -1 -1</clus>
<clus scale="   94.344">  1  5  2 -1</clus>
<clus scale="   35.443">  2  5  1 -1</clus>
</clustering>
</event>
<event>
10    2  0.1133532E-006  0.1582951E+03  0.7546771E-02  0.1218087E+00
          2   -1    0    0  503    0  0.00000000000E+00  0.00000000000E+00  0.43933880477E+03  0.43933880477E+03  0.00000000000E+00 0. -1.
         -2   -1    0    0    0  501 -0.00000000000E+00 -0.00000000000E+00 -0.29514234272E+03  0.29514234272E+03  0.00000000000E+00 0.  1.
         23    2    1    2    0    0 -0.94335742601E+02 -0.10650223658E+03  0.94550328665E+02  0.19367467333E+03  0.91258729498E+02 0.  0.
         23    2    1    2    0    0  0.14578748638E+02 -0.16406662577E+02  0.21187326040E+03  0.22969405400E+03  0.85949761385E+02 0.  0.
        -13    1    3    3    0    0 -0.69668935367E+02 -0.11268713125E+02  0.36631559780E+02  0.79514876738E+02  0.00000000000E+00 0.  1.
         13    1    3    3    0    0 -0.24666807234E+02 -0.95233523451E+02  0.57918768885E+02  0.11415979659E+03  0.00000000000E+00 0. -1.
        -13    1    4    4    0    0  0.44033674948E+02  0.13810502389E+02  0.12097907205E+03  0.12948216240E+03  0.00000000000E+00 0.  1.
         13    1    4    4    0    0 -0.29454926310E+02 -0.30217164966E+02  0.90894188346E+02  0.10021189160E+03  0.00000000000E+00 0. -1.
         21    1    1    2  502  501 -0.25484186937E+02  0.65134885111E+02 -0.17684057718E+03  0.19016988926E+03  0.00000000000E+00 0.  1.
         21    1    1    2  503  502  0.10524118090E+03  0.57774014042E+02  0.14613450165E+02  0.12094253090E+03  0.00000000000E+00 0.  1.
<scales pt_clust_5="13000.00000" pt_clust_6="13000.00000" pt_clust_7="13000.00000" pt_clust_8="13000.00000" pt_clust_9="69.94281" pt_clust_10="129.34135"></scales>
<clustering>
<clus scale="   69.943">  2  9  1 -1</clus>
<clus scale="   85.950">  7  8 -1 -1</clus>
<clus scale="   87.581">  1  7  2 -1</clus>
<clus scale="   91.259">  5  6 -1 -1</clus>
<clus scale="  129.341">  2 10  1 -1</clus>
<clus scale="   87.581">  1  5  2 -1</clus>
</clustering>
</event>
<event>
10    2  0.1133532E-006  0.1031847E+03  0.7546771E-02  0.1278417E+00
         -2   -1    0    0    0  501 -0.00000000000E+00  0.00000000000E+00  0.24880285783E+02  0.24880285783E+02  0.00000000000E+00 0.  1.
          2   -1    0    0  503    0  0.00000000000E+00 -0.00000000000E+00 -0.10435911172E+04  0.10435911172E+04  0.00000000000E+00 0. -1.
         23    2    1    2    0    0  0.32012483989E+02 -0.11183294726E+02 -0.33054506024E+03  0.34494987836E+03  0.92631077495E+02 0.  0.
         23    2    1    2    0    0  0.30279479964E+01  0.75114103965E+01 -0.42051151858E+03  0.43269249677E+03  0.10162317522E+03 0.  0.
        -11    1    4    4    0    0  0.44494376033E+02 -0.17005377120E+02 -0.13526438796E+03  0.14340637015E+03  0.00000000000E+00 0.  1.
         11    1    4    4    0    0 -0.41466428036E+02  0.24516787516E+02 -0.28524713062E+03  0.28928612662E+03  0.00000000000E+00 0. -1.
        -11    1    3    3    0    0  0.40092652175E+02 -0.45397926881E+02 -0.16634222031E+03  0.17702577999E+03  0.00000000000E+00 0.  1.
         11    1    3    3    0    0 -0.80801681864E+01  0.34214632154E+02 -0.16420283993E+03  0.16792409837E+03  0.00000000000E+00 0. -1.
         21    1    1    2  502  501 -0.55359006107E+01  0.22757625215E+02 -0.27246824112E+01  0.23579219564E+02  0.00000000000E+00 0.  1.
         21    1    1    2  503  502 -0.29504531375E+02 -0.19085740885E+02 -0.26492957016E+03  0.26724980828E+03  0.00000000000E+00 0. -1.
<scales pt_clust_5="13000.00000" pt_clust_6="13000.00000" pt_clust_7="13000.00000" pt_clust_8="13000.00000" pt_clust_9="23.42127" pt_clust_10="34.56602"></scales>
<clustering>
<clus scale="   23.421">  1  9  2 -1</clus>
<clus scale="   34.566">  2 10  1 -1</clus>
<clus scale="   92.631">  7  8 -1 -1</clus>
<clus scale="   94.342">  1  7  2 -1</clus>
<clus scale="  101.623">  5  6 -1 -1</clus>
<clus scale="   34.566">  2  5  1 -1</clus>
</clustering>
</event>
<event>
10    2  0.1133532E-006  0.2098070E+03  0.7546771E-02  0.1164028E+00
          1   -1    0    0  503    0  0.00000000000E+00  0.00000000000E+00  0.65390766744E+03  0.65390766744E+03  0.00000000000E+00 0. -1.
         -1   -1    0    0    0  501 -0.00000000000E+00 -0.00000000000E+00 -0.38067308908E+03  0.38067308908E+03  0.00000000000E+00 0.  1.
         23    2    1    2    0    0 -0.18235556773E+03 -0.11132217692E+03  0.28147577440E+01  0.23205487118E+03  0.90528228866E+02 0.  0.
         23    2    1    2    0    0  0.14132680536E+03  0.55589785379E+02  0.22377480349E+03  0.28507430827E+03  0.90159350068E+02 0.  0.
        -11    1    3    3    0    0  0.14329773576E+01 -0.31127325997E+02 -0.40012359153E+01  0.31416138157E+02  0.00000000000E+00 0.  1.
         11    1    3    3    0    0 -0.18378854509E+03 -0.80194850920E+02  0.68159936593E+01  0.20063873303E+03  0.00000000000E+00 0. -1.
        -13    1    4    4    0    0  0.62111653521E+01  0.28558931608E+02  0.83394432614E+02  0.88367542348E+02  0.00000000000E+00 0. -1.
         13    1    4    4    0    0  0.13511564001E+03  0.27030853771E+02  0.14038037088E+03  0.19670676592E+03  0.00000000000E+00 0.  1.
         21    1    1    2  502  501  0.13295866915E+03  0.12506766933E+03 -0.18429813816E+03  0.25939493701E+03  0.00000000000E+00 0.  1.
         21    1    1    2  503  502 -0.91929906781E+02 -0.69335277796E+02  0.23094315528E+03  0.25805664006E+03  0.00000000000E+00 0. -1.
<scales pt_clust_5="13000.00000" pt_clust_6="13000.00000" pt_clust_7="13000.00000" pt_clust_8="13000.00000" pt_clust_9="189.27133" pt_clust_10="115.14551"></scales>
<clustering>
<clus scale="   90.159">  7  8 -1 -1</clus>
<clus scale="   90.528">  5  6 -1 -1</clus>
<clus scale="  115.146">  1 10  2 -1</clus>
<clus scale="  123.993">  1  7  2 -1</clus>
<clus scale="  189.271">  2  9  1 -1</clus>
<clus scale="  115.146">  1  5  2 -1</clus>
</clustering>
</event>
<event>
10    2  0.1133532E-006  0.2155160E+03  0.7546771E-02  0.1137557E+00
          2   -1    0    0  503    0  0.00000000000E+00  0.00000000000E+00  0.46781916855E+03  0.46781916855E+03  0.00000000000E+00 0. -1.
         -2   -1    0    0    0  501 -0.00000000000E+00 -0.00000000000E+00 -0.11446923010E+04  0.11446923010E+04  0.00000000000E+00 0.  1.
         23    2    1    2    0    0 -0.82967216809E+02 -0.20717716359E+03 -0.99478068701E+03  0.10235300172E+04  0.90659499035E+02 0.  0.
         23    2    1    2    0    0  0.15602776776E+02  0.16025783653E+03  0.24075245915E+03  0.30454326759E+03  0.94121381384E+02 0.  0.
        -11    1    3    3    0    0 -0.53817523753E+02 -0.19369743611E+03 -0.92669192371E+03  0.94824730112E+03  0.00000000000E+00 0.  1.
         11    1    3    3    0    0 -0.29149693055E+02 -0.13479727478E+02 -0.68088763297E+02  0.75282716114E+02  0.00000000000E+00 0. -1.
        -13    1    4    4    0    0 -0.27950477364E+02  0.27752558948E+02  0.22024691166E+02  0.45127826604E+02  0.00000000000E+00 0.  1.
         13    1    4    4    0    0  0.43553254140E+02  0.13250527758E+03  0.21872776799E+03  0.25941544098E+03  0.00000000000E+00 0. -1.
         21    1    1    2  502  501  0.19632618192E+02  0.23013450262E+02 -0.97354548624E+02  0.10194590099E+03  0.00000000000E+00 0. -1.
         21    1    1    2  503  502  0.47731821840E+02  0.23905876798E+02  0.17450964404E+03  0.18249228374E+03  0.00000000000E+00 0.  1.
<scales pt_clust_5="13000.00000" pt_clust_6="13000.00000" pt_clust_7="13000.00000" pt_clust_8="13000.00000" pt_clust_9="30.24994" pt_clust_10="53.49011"></scales>
<clustering>
<clus scale="   30.250">  2  9  1 -1</clus>
<clus scale="   53.490">  1 10  2 -1</clus>
<clus scale="   90.659">  5  6 -1 -1</clus>
<clus scale="   94.121">  7  8 -1 -1</clus>
<clus scale="  214.027">  2  5  1 -1</clus>
<clus scale="   53.490">  1  5  2 -1</clus>
</clustering>
</event>
<event>
10    2  0.1133532E-006  0.1258205E+03  0.7546771E-02  0.1234597E+00
          1   -1    0    0  503    0  0.00000000000E+00  0.00000000000E+00  0.13911085495E+03  0.13911085495E+03  0.00000000000E+00 0. -1.
         -1   -1    0    0    0  501 -0.00000000000E+00 -0.00000000000E+00 -0.35807170528E+03  0.35807170528E+03  0.00000000000E+00 0.  1.
         23    2    1    2    0    0  0.11943697964E+03 -0.12957237746E+02 -0.34245125449E+01  0.15022606189E+03  0.90128021566E+02 0.  0.
         23    2    1    2    0    0 -0.48685889493E+02  0.21561912153E+02 -0.32795286058E+02  0.11201763694E+03  0.92936474580E+02 0.  0.
        -13    1    3    3    0    0  0.93481458154E+02 -0.22824032200E+02 -0.40079861905E+02  0.10424065807E+03  0.00000000000E+00 0. -1.
         13    1    3    3    0    0  0.25955521481E+02  0.98667944534E+01  0.36655349360E+02  0.45985403824E+02  0.00000000000E+00 0.  1.
        -13    1    4    4    0    0 -0.74804797183E+02  0.13579518759E+02 -0.36711440816E+02  0.84426837547E+02  0.00000000000E+00 0.  1.
         13    1    4    4    0    0  0.26118907691E+02  0.79823933937E+01  0.39161547585E+01  0.27590799396E+02  0.00000000000E+00 0. -1.
         21    1    1    2  502  501 -0.77667664164E+00 -0.26150117541E+02 -0.15572231497E+03  0.15790462708E+03  0.00000000000E+00 0.  1.
         21    1    1    2  503  502 -0.69974413501E+02  0.17545443135E+02 -0.27018736755E+02  0.77034234308E+02  0.00000000000E+00 0.  1.
<scales pt_clust_5="13000.00000" pt_clust_6="13000.00000" pt_clust_7="13000.00000" pt_clust_8="13000.00000" pt_clust_9="26.16165" pt_clust_10="70.99918"></scales>
<clustering>
<clus scale="   26.162">  2  9  1 -1</clus>
<clus scale="   70.999">  2 10  1 -1</clus>
<clus scale="   90.128">  5  6 -1 -1</clus>
<clus scale="   92.936">  7  8 -1 -1</clus>
<clus scale="  123.761">  2  5  1 -1</clus>
<clus scale="  125.821">  1  5  2 -1</clus>
</clustering>
</event>
<event>
10    2  0.1133532E-006  0.1402853E+03  0.7546771E-02  0.1213033E+00
         -1   -1    0    0    0  501 -0.00000000000E+00  0.00000000000E+00  0.22965948123E+03  0.22965948123E+03  0.00000000000E+00 0.  1.
          1   -1    0    0  503    0  0.00000000000E+00 -0.00000000000E+00 -0.55531903774E+03  0.55531903774E+03  0.00000000000E+00 0. -1.
         23    2    1    2    0    0 -0.84126358043E+02  0.18560639264E+02  0.65563261003E+02  0.14095816102E+03  0.90271371521E+02 0.  0.
         23    2    1    2    0    0  0.12564812431E+03 -0.67204654419E+02 -0.42769177987E+03  0.45983273098E+03  0.90675052790E+02 0.  0.
        -11    1    4    4    0    0  0.96266510327E+02 -0.34440536713E+02 -0.16974291607E+03  0.19815662779E+03  0.00000000000E+00 0. -1.
         11    1    4    4    0    0  0.29381613978E+02 -0.32764117706E+02 -0.25794886380E+03  0.26167610319E+03  0.00000000000E+00 0.  1.
        -11    1    3    3    0    0  0.25893168324E+01 -0.25436260276E+02  0.24478393092E+02  0.35396322222E+02  0.00000000000E+00 0. -1.
         11    1    3    3    0    0 -0.86715674876E+02  0.43996899541E+02  0.41084867911E+02  0.10556183879E+03  0.00000000000E+00 0.  1.
         21    1    1    2  502  501 -0.98735219411E+01  0.33121051853E+02  0.10313718108E+03  0.10877393361E+03  0.00000000000E+00 0. -1.
         21    1    1    2  503  502 -0.31648244321E+02  0.15522963302E+02 -0.66668218726E+02  0.75413693361E+02  0.00000000000E+00 0.  1.
<scales pt_clust_5="13000.00000" pt_clust_6="13000.00000" pt_clust_7="13000.00000" pt_clust_8="13000.00000" pt_clust_9="34.56140" pt_clust_10="36.09024"></scales>
<clustering>
<clus scale="   34.561">  1  9  2 -1</clus>
<clus scale="   36.090">  2 10  1 -1</clus>
<clus scale="   90.271">  7  8 -1 -1</clus>
<clus scale="   90.675">  5  6 -1 -1</clus>
<clus scale="  140.025">  1  7  2 -1</clus>
<clus scale="   36.090">  2  5  1 -1</clus>
</clustering>
</event>
<event>
10    2  0.1273371E-006  0.2112627E+03  0.7546771E-02  0.1150487E+00
          2   -1    0    0  503    0  0.00000000000E+00  0.00000000000E+00  0.12844964629E+04  0.12844964629E+04  0.00000000000E+00 0. -1.
         -2   -1    0    0    0  501 -0.00000000000E+00 -0.00000000000E+00 -0.45120703506E+03  0.45120703506E+03  0.00000000000E+00 0.  1.
         23    2    1    2    0    0 -0.20745063019E+03 -0.28469928435E+03  0.10197221013E+04  0.10826053354E+04  0.90064987830E+02 0.  0.
         23    2    1    2    0    0  0.72449793808E+02  0.11456522117E+03  0.10747120899E+03  0.19587299479E+03  0.91880394009E+02 0.  0.
        -11    1    3    3    0    0 -0.68568694306E+02 -0.10121996022E+03  0.23584853382E+03  0.26565330243E+03  0.00000000000E+00 0.  1.
         11    1    3    3    0    0 -0.13888193588E+03 -0.18347932413E+03  0.78387356745E+03  0.81695203301E+03  0.00000000000E+00 0. -1.
        -11    1    4    4    0    0  0.64483057663E+02  0.20056882235E+02  0.57370284099E+02  0.88609777949E+02  0.00000000000E+00 0. -1.
         11    1    4    4    0    0  0.79667361446E+01  0.94508338932E+02  0.50100924888E+02  0.10726321684E+03  0.00000000000E+00 0.  1.
         21    1    1    2  502  501  0.99880913127E+02  0.15865391928E+03 -0.34589955778E+03  0.39343839033E+03  0.00000000000E+00 0.  1.
         21    1    1    2  503  502  0.35119923253E+02  0.11480143896E+02  0.51995675389E+02  0.63786777410E+02  0.00000000000E+00 0.  1.
<scales pt_clust_5="13000.00000" pt_clust_6="13000.00000" pt_clust_7="13000.00000" pt_clust_8="13000.00000" pt_clust_9="191.10270" pt_clust_10="36.94865"></scales>
<clustering>
<clus scale="   36.949">  1 10  2 -1</clus>
<clus scale="   90.065">  5  6 -1 -1</clus>
<clus scale="   91.880">  7  8 -1 -1</clus>
<clus scale="  166.708">  1  7  2 -1</clus>
<clus scale="  191.103">  2  9  1 -1</clus>
<clus scale="   36.949">  1  5  2 -1</clus>
</clustering>
</event>
<event>
10    2  0.1133532E-006  0.1303349E+03  0.7546771E-02  0.1227431E+00
         -2   -1    0    0    0  501 -0.00000000000E+00  0.00000000000E+00  0.11492385931E+03  0.11492385931E+03  0.00000000000E+00 0.  1.
          2   -1    0    0  503    0  0.00000000000E+00 -0.00000000000E+00 -0.91866335883E+03  0.91866335883E+03  0.00000000000E+00 0. -1.
         23    2    1    2    0    0  0.65200667532E+02  0.35589008351E+02  0.14818349857E+02  0.11694090972E+03  0.89094827639E+02 0.  0.
         23    2    1    2    0    0 -0.13229345387E+03 -0.15255091976E+03 -0.62380246286E+03  0.66144665400E+03  0.87228563832E+02 0.  0.
        -11    1    4    4    0    0  0.10702389478E+02 -0.18844047260E+02 -0.98367109108E+02  0.10072600167E+03  0.00000000000E+00 0.  1.
         11    1    4    4    0    0 -0.14299584335E+03 -0.13370687250E+03 -0.52543535376E+03  0.56072065233E+03  0.00000000000E+00 0. -1.
        -11    1    3    3    0    0  0.57136304330E+02  0.55270687665E+02  0.35692017392E+02  0.87139694129E+02  0.00000000000E+00 0.  1.
         11    1    3    3    0    0  0.80643632029E+01 -0.19681679314E+02 -0.20873667535E+02  0.29801215593E+02  0.00000000000E+00 0. -1.
         21    1    1    2  502  501 -0.45485705264E+01  0.30771573641E+02 -0.71134104940E+00  0.31114068270E+02  0.00000000000E+00 0.  1.
         21    1    1    2  503  502  0.71641356868E+02  0.86190337769E+02 -0.19404404547E+03  0.22408558615E+03  0.00000000000E+00 0.  1.
<scales pt_clust_5="13000.00000" pt_clust_6="13000.00000" pt_clust_7="13000.00000" pt_clust_8="13000.00000" pt_clust_9="31.10594" pt_clust_10="115.25635"></scales>
<clustering>
<clus scale="   31.106">  1  9  2 -1</clus>
<clus scale="   87.229">  5  6 -1 -1</clus>
<clus scale="   89.095">  7  8 -1 -1</clus>
<clus scale="  115.256">  2 10  1 -1</clus>
<clus scale="  129.066">  2  5  1 -1</clus>
<clus scale="  115.256">  2  5  1 -1</clus>
</clustering>
</event>
<event>
10    2  0.1133532E-006  0.1734738E+03  0.7546771E-02  0.1174361E+00
          1   -1    0    0  503    0  0.00000000000E+00  0.00000000000E+00  0.31091910689E+03  0.31091910689E+03  0.00000000000E+00 0. -1.
         -1   -1    0    0    0  501 -0.00000000000E+00 -0.00000000000E+00 -0.32267620494E+03  0.32267620494E+03  0.00000000000E+00 0.  1.
         23    2    1    2    0    0  0.79556173849E+02 -0.10872688454E+03 -0.69390754730E+02  0.17627275262E+03  0.90034916869E+02 0.  0.
         23    2    1    2    0    0  0.55180830897E+02  0.17353222248E+03  0.58891986517E+02  0.21178683257E+03  0.90703032113E+02 0.  0.
        -11    1    4    4    0    0  0.76733973906E+02  0.14248693942E+03  0.63222353738E+02  0.17374606950E+03  0.00000000000E+00 0. -1.
         11    1    4    4    0    0 -0.21553143009E+02  0.31045283067E+02 -0.43303672206E+01  0.38040763064E+02  0.00000000000E+00 0.  1.
        -13    1    3    3    0    0  0.62288541110E+01 -0.77350450081E+02 -0.13217090625E+02  0.78718372924E+02  0.00000000000E+00 0.  1.
         13    1    3    3    0    0  0.73327319738E+02 -0.31376434461E+02 -0.56173664106E+02  0.97554379699E+02  0.00000000000E+00 0. -1.
         21    1    1    2  502  501 -0.11408484663E+03 -0.60754401130E+02 -0.87942037498E+02  0.15633378217E+03  0.00000000000E+00 0.  1.
         21    1    1    2  503  502 -0.20652158112E+02 -0.40509368129E+01  0.86683707658E+02  0.89201944469E+02  0.00000000000E+00 0.  1.
<scales pt_clust_5="13000.00000" pt_clust_6="13000.00000" pt_clust_7="13000.00000" pt_clust_8="13000.00000" pt_clust_9="132.34433" pt_clust_10="21.04571"></scales>
<clustering>
<clus scale="   21.046">  1 10  2 -1</clus>
<clus scale="   90.035">  7  8 -1 -1</clus>
<clus scale="   90.703">  5  6 -1 -1</clus>
<clus scale="  132.344">  2  9  1 -1</clus>
<clus scale="  173.125">  2  7  1 -1</clus>
<clus scale="   21.046">  1  5  2 -1</clus>
</clustering>
</event>
<event>
10    2  0.1133532E-006  0.3381383E+03  0.7546771E-02  0.1092959E+00
         -1   -1    0    0    0  501 -0.00000000000E+00  0.00000000000E+00  0.33764085681E+03  0.33764085681E+03  0.00000000000E+00 0.  1.
          1   -1    0    0  503    0  0.00000000000E+00 -0.00000000000E+00 -0.12737269077E+04  0.12737269077E+04  0.00000000000E+00 0. -1.
         23    2    1    2    0    0 -0.30609028897E+02  0.13777180206E+03  0.10813180527E+03  0.20110591775E+03  0.93984683596E+02 0.  0.
         23    2    1    2    0    0  0.30160045327E+03 -0.15457260980E+03 -0.18089848877E+03  0.39507961298E+03  0.92239428869E+02 0.  0.
        -11    1    3    3    0    0 -0.22801377241E+02 -0.73825574688E+01  0.19069793819E+02  0.30627797752E+02  0.00000000000E+00 0. -1.
         11    1    3    3    0    0 -0.78076516564E+01  0.14515435953E+03  0.89062011456E+02  0.17047812000E+03  0.00000000000E+00 0.  1.
        -13    1    4    4    0    0  0.28502182162E+02 -0.20755815306E+02 -0.56288838042E+02  0.66419963453E+02  0.00000000000E+00 0. -1.
         13    1    4    4    0    0  0.27309827111E+03 -0.13381679449E+03 -0.12460965073E+03  0.32865964953E+03  0.00000000000E+00 0.  1.
         21    1    1    2  502  501  0.57785242058E+02  0.90765413817E+01  0.28202408795E+02  0.64937613638E+02  0.00000000000E+00 0. -1.
         21    1    1    2  503  502 -0.32877666643E+03  0.77242663560E+01 -0.89152177617E+03  0.95024462012E+03  0.00000000000E+00 0. -1.
<scales pt_clust_5="13000.00000" pt_clust_6="13000.00000" pt_clust_7="13000.00000" pt_clust_8="13000.00000" pt_clust_9="58.49374" pt_clust_10="325.31429"></scales>
<clustering>
<clus scale="   58.494">  1  9  2 -1</clus>
<clus scale="   92.239">  7  8 -1 -1</clus>
<clus scale="   93.985">  5  6 -1 -1</clus>
<clus scale="  170.781">  1  5  2 -1</clus>
<clus scale="  325.314">  2 10  1 -1</clus>
<clus scale="  325.314">  2  5  1 -1</clus>
</clustering>
</event>
<event>
10    2  0.1133532E-006  0.1459497E+03  0.7546771E-02  0.1210035E+00
          2   -1    0    0  503    0  0.00000000000E+00  0.00000000000E+00  0.14521976654E+03  0.14521976654E+03  0.00000000000E+00 0. -1.
         -2   -1    0    0    0  501 -0.00000000000E+00 -0.00000000000E+00 -0.73110292356E+03  0.73110292356E+03  0.00000000000E+00 0.  1.
         23    2    1    2    0    0 -0.18055250106E+02 -0.74307487943E+02 -0.52058178957E+03  0.53465991726E+03  0.94911709889E+02 0.  0.
         23    2    1    2    0    0 -0.68612053537E+02  0.15132579212E+03 -0.34806330105E+01  0.20090025688E+03  0.11287909087E+03 0.  0.
        -11    1    3    3    0    0  0.36513887209E+02 -0.37565969741E+02 -0.29762066145E+03  0.30219616835E+03  0.00000000000E+00 0.  1.
         11    1    3    3    0    0 -0.54569137315E+02 -0.36741518202E+02 -0.22296112811E+03  0.23246374891E+03  0.00000000000E+00 0. -1.
        -13    1    4    4    0    0 -0.31736523700E+02  0.24103005125E+02  0.44759929424E+02  0.59930068202E+02  0.00000000000E+00 0. -1.
         13    1    4    4    0    0 -0.36875529837E+02  0.12722278699E+03 -0.48240562434E+02  0.14097018868E+03  0.00000000000E+00 0.  1.
         21    1    1    2  502  501  0.13177298620E+02 -0.16077644030E+02 -0.36478939613E+02  0.41986246222E+02  0.00000000000E+00 0. -1.
         21    1    1    2  503  502  0.73490005023E+02 -0.60940660146E+02 -0.25341794831E+02  0.98776269734E+02  0.00000000000E+00 0. -1.
<scales pt_clust_5="13000.00000" pt_clust_6="13000.00000" pt_clust_7="13000.00000" pt_clust_8="13000.00000" pt_clust_9="20.78778" pt_clust_10="97.30116"></scales>
<clustering>
<clus scale="   20.788">  2  9  1 -1</clus>
<clus scale="   94.912">  5  6 -1 -1</clus>
<clus scale="   97.301">  1 10  2 -1</clus>
<clus scale="  112.879">  7  8 -1 -1</clus>
<clus scale="  132.544">  2  5  1 -1</clus>
<clus scale="   97.301">  1  5  2 -1</clus>
</clustering>
</event>
<event>
10    2  0.1133532E-006  0.1626549E+03  0.7546771E-02  0.1186252E+00
          1   -1    0    0  503    0  0.00000000000E+00  0.00000000000E+00  0.38547939130E+03  0.38547939130E+03  0.00000000000E+00 0. -1.
         -1   -1    0    0    0  501 -0.00000000000E+00 -0.00000000000E+00 -0.12560310309E+03  0.12560310309E+03  0.00000000000E+00 0.  1.
         23    2    1    2    0    0 -0.54098574990E+01  0.12952679455E+03  0.24445848277E+02  0.15908947786E+03  0.88912346739E+02 0.  0.
         23    2    1    2    0    0 -0.36916603183E+02 -0.13285360669E+03  0.91067523946E+02  0.18925551879E+03  0.92257471646E+02 0.  0.
        -13    1    4    4    0    0 -0.99447108607E+00 -0.79518214281E+02  0.96120424115E+02  0.12475284088E+03  0.00000000000E+00 0. -1.
         13    1    4    4    0    0 -0.35922132096E+02 -0.53335392414E+02 -0.50529001696E+01  0.64502677916E+02  0.00000000000E+00 0.  1.
        -13    1    3    3    0    0 -0.40184935594E+02  0.70324949628E+02 -0.11134494768E+02  0.81758207922E+02  0.00000000000E+00 0. -1.
         13    1    3    3    0    0  0.34775078095E+02  0.59201844924E+02  0.35580343045E+02  0.77331269937E+02  0.00000000000E+00 0.  1.
         21    1    1    2  502  501  0.13300172178E+02  0.15917306799E+02  0.71751278490E+01  0.21948523762E+02  0.00000000000E+00 0. -1.
         21    1    1    2  503  502  0.29026288504E+02 -0.12590494657E+02  0.13718778813E+03  0.14078897397E+03  0.00000000000E+00 0.  1.
<scales pt_clust_5="13000.00000" pt_clust_6="13000.00000" pt_clust_7="13000.00000" pt_clust_8="13000.00000" pt_clust_9="20.74259" pt_clust_10="31.73013"></scales>
<clustering>
<clus scale="   20.743">  2  9  1 -1</clus>
<clus scale="   31.730">  1 10  2 -1</clus>
<clus scale="   88.912">  7  8 -1 -1</clus>
<clus scale="   92.257">  5  6 -1 -1</clus>
<clus scale="  160.781">  2  7  1 -1</clus>
<clus scale="   31.730">  1  5  2 -1</clus>
</clustering>
</event>
<event>
10    2  0.1133532E-006  0.1083312E+03  0.7546771E-02  0.1270232E+00
          2   -1    0    0  503    0  0.00000000000E+00  0.00000000000E+00  0.55086292317E+02  0.55086292317E+02  0.00000000000E+00 0. -1.
         -2   -1    0    0    0  501 -0.00000000000E+00 -0.00000000000E+00 -0.64640486047E+03  0.64640486047E+03  0.00000000000E+00 0.  1.
         23    2    1    2    0    0  0.43279957869E+02 -0.12127562050E+02 -0.39631159331E+03  0.41239519956E+03  0.10481740846E+03 0.  0.
         23    2    1    2    0    0  0.27526533226E+02 -0.21977257288E+02 -0.61853212997E+02  0.11583977398E+03  0.91391046658E+02 0.  0.
        -11    1    3    3    0    0  0.28868728495E+02  0.39871190375E+02 -0.27847066980E+03  0.28278795810E+03  0.00000000000E+00 0.  1.
         11    1    3    3    0    0  0.14411229373E+02 -0.51998752426E+02 -0.11784092350E+03  0.12960724146E+03  0.00000000000E+00 0. -1.
        -13    1    4    4    0    0  0.57740996121E+02 -0.21114008112E+02 -0.20891681374E+02  0.64932937114E+02  0.00000000000E+00 0.  1.
         13    1    4    4    0    0 -0.30214462896E+02 -0.86324917571E+00 -0.40961531622E+02  0.50906836870E+02  0.00000000000E+00 0. -1.
         21    1    1    2  502  501 -0.64797626917E+02  0.56502638684E+02 -0.11612150361E+03  0.14448350851E+03  0.00000000000E+00 0. -1.
         21    1    1    2  503  502 -0.60088641776E+01 -0.22397819345E+02 -0.17032258243E+02  0.28772670731E+02  0.00000000000E+00 0.  1.
<scales pt_clust_5="13000.00000" pt_clust_6="13000.00000" pt_clust_7="13000.00000" pt_clust_8="13000.00000" pt_clust_9="83.25269" pt_clust_10="23.18984"></scales>
<clustering>
<clus scale="   23.190">  1 10  2 -1</clus>
<clus scale="   83.253">  1  9  2 -1</clus>
<clus scale="   91.391">  7  8 -1 -1</clus>
<clus scale="   95.401">  1  7  2 -1</clus>
<clus scale="  104.817">  5  6 -1 -1</clus>
<clus scale="   23.190">  1  5  2 -1</clus>
</clustering>
</event>
<event>
10    2  0.1133532E-006  0.2025605E+03  0.7546771E-02  0.1147834E+00
          1   -1    0    0  503    0  0.00000000000E+00  0.00000000000E+00  0.49414127128E+03  0.49414127128E+03  0.00000000000E+00 0. -1.
         -1   -1    0    0    0  501 -0.00000000000E+00 -0.00000000000E+00 -0.24397647582E+03  0.24397647582E+03  0.00000000000E+00 0.  1.
         23    2    1    2    0    0  0.14488645373E+03  0.35660664014E+02  0.52774961625E+02  0.18411698057E+03  0.94074962280E+02 0.  0.
         23    2    1    2    0    0 -0.20088777279E+03 -0.84747993365E+01  0.25009538341E+03  0.33371200532E+03  0.91587565828E+02 0.  0.
        -11    1    3    3    0    0  0.86753606483E+01  0.28925556509E+02 -0.12792623006E+02  0.32796355058E+02  0.00000000000E+00 0.  1.
         11    1    3    3    0    0  0.13621109308E+03  0.67351075055E+01  0.65567584631E+02  0.15132062551E+03  0.00000000000E+00 0. -1.
        -11    1    4    4    0    0 -0.17386557282E+03  0.19690766778E+02  0.16687928293E+03  0.24179673029E+03  0.00000000000E+00 0.  1.
         11    1    4    4    0    0 -0.27022199975E+02 -0.28165566114E+02  0.83216100477E+02  0.91915275034E+02  0.00000000000E+00 0. -1.
         21    1    1    2  502  501  0.50821656545E+02 -0.57378764435E+01 -0.13010984613E+03  0.13980105887E+03  0.00000000000E+00 0.  1.
         21    1    1    2  503  502  0.51796625172E+01 -0.21447988234E+02  0.77404296558E+02  0.80487702345E+02  0.00000000000E+00 0. -1.
<scales pt_clust_5="13000.00000" pt_clust_6="13000.00000" pt_clust_7="13000.00000" pt_clust_8="13000.00000" pt_clust_9="51.23326" pt_clust_10="22.06457"></scales>
<clustering>
<clus scale="   22.065">  1 10  2 -1</clus>
<clus scale="   51.233">  2  9  1 -1</clus>
<clus scale="   91.588">  7  8 -1 -1</clus>
<clus scale="   94.075">  5  6 -1 -1</clus>
<clus scale="  201.417">  1  7  2 -1</clus>
<clus scale="   22.065">  1  5  2 -1</clus>
</clustering>
</event>
<event>
10    2  0.1133532E-006  0.1216324E+03  0.7546771E-02  0.1241952E+00
         -2   -1    0    0    0  501 -0.00000000000E+00  0.00000000000E+00  0.13956348682E+03  0.13956348682E+03  0.00000000000E+00 0.  1.
          2   -1    0    0  503    0  0.00000000000E+00 -0.00000000000E+00 -0.34982434573E+03  0.34982434573E+03  0.00000000000E+00 0. -1.
         23    2    1    2    0    0 -0.68326006318E+02 -0.32259773299E+02  0.45067321437E+02  0.12669625062E+03  0.91168746548E+02 0.  0.
         23    2    1    2    0    0  0.22947662893E+02  0.53352354349E+02 -0.71022155192E+02  0.13272243568E+03  0.95906357754E+02 0.  0.
        -11    1    3    3    0    0 -0.15147080166E+02  0.29184291873E+02 -0.17243779312E+01  0.32926135651E+02  0.00000000000E+00 0. -1.
         11    1    3    3    0    0 -0.53178926152E+02 -0.61444065172E+02  0.46791699368E+02  0.93770114969E+02  0.00000000000E+00 0.  1.
        -13    1    4    4    0    0  0.15217939915E+02 -0.27117623304E+02 -0.16369646351E+02  0.35141378894E+02  0.00000000000E+00 0.  1.
         13    1    4    4    0    0  0.77297229782E+01  0.80469977653E+02 -0.54652508842E+02  0.97581056786E+02  0.00000000000E+00 0. -1.
         21    1    1    2  502  501 -0.76329858749E+01 -0.33198876007E+02  0.36926504633E+01  0.34264610153E+02  0.00000000000E+00 0.  1.
         21    1    1    2  503  502  0.53011329300E+02  0.12106294956E+02 -0.18799867562E+03  0.19570453609E+03  0.00000000000E+00 0. -1.
<scales pt_clust_5="13000.00000" pt_clust_6="13000.00000" pt_clust_7="13000.00000" pt_clust_8="13000.00000" pt_clust_9="34.06505" pt_clust_10="53.91110"></scales>
<clustering>
<clus scale="   34.065">  1  9  2 -1</clus>
<clus scale="   53.911">  2 10  1 -1</clus>
<clus scale="   91.169">  5  6 -1 -1</clus>
<clus scale="   95.906">  7  8 -1 -1</clus>
<clus scale="  117.933">  1  5  2 -1</clus>
<clus scale="   53.911">  2  5  1 -1</clus>
</clustering>
</event>
<event>
10    2  0.1133532E-006  0.1646885E+03  0.7546771E-02  0.1183623E+00
          2   -1    0    0  503    0  0.00000000000E+00  0.00000000000E+00  0.11926605140E+04  0.11926605140E+04  0.00000000000E+00 0. -1.
         -2   -1    0    0    0  501 -0.00000000000E+00 -0.00000000000E+00 -0.79772922858E+02  0.79772922858E+02  0.00000000000E+00 0.  1.
         23    2    1    2    0    0  0.19675914707E+03  0.68637232948E+02  0.16797285735E+03  0.28187135862E+03  0.88381843714E+02 0.  0.
         23    2    1    2    0    0 -0.70771080350E+02 -0.45257096583E+02  0.46886057332E+03  0.48460607752E+03  0.89196763104E+02 0.  0.
        -13    1    4    4    0    0 -0.27139451854E+02  0.20490746895E+02  0.67726619692E+02  0.75784665799E+02  0.00000000000E+00 0. -1.
         13    1    4    4    0    0 -0.43631628496E+02 -0.65747843477E+02  0.40113395363E+03  0.40882141172E+03  0.00000000000E+00 0.  1.
        -13    1    3    3    0    0  0.10545609506E+02  0.35697269861E+02  0.29285553872E+02  0.47361889964E+02  0.00000000000E+00 0.  1.
         13    1    3    3    0    0  0.18621353757E+03  0.32939963087E+02  0.13868730348E+03  0.23450946865E+03  0.00000000000E+00 0. -1.
         21    1    1    2  502  501 -0.60160206825E+02 -0.10687759943E+02  0.64002036828E+02  0.88485814772E+02  0.00000000000E+00 0.  1.
         21    1    1    2  503  502 -0.65827859900E+02 -0.12692376422E+02  0.41205212366E+03  0.41747018597E+03  0.00000000000E+00 0.  1.
<scales pt_clust_5="13000.00000" pt_clust_6="13000.00000" pt_clust_7="13000.00000" pt_clust_8="13000.00000" pt_clust_9="61.10220" pt_clust_10="69.49120"></scales>
<clustering>
<clus scale="   61.102">  2  9  1 -1</clus>
<clus scale="   69.491">  1 10  2 -1</clus>
<clus scale="   88.382">  7  8 -1 -1</clus>
<clus scale="   89.197">  5  6 -1 -1</clus>
<clus scale="  164.249">  2  7  1 -1</clus>
<clus scale="   69.491">  1  5  2 -1</clus>
</clustering>
</event>
<event>
10    2  0.1133532E-006  0.1309634E+03  0.7546771E-02  0.1232041E+00
         -1   -1    0    0    0  501 -0.00000000000E+00  0.00000000000E+00  0.29169514595E+03  0.29169514595E+03  0.00000000000E+00 0.  1.
          1   -1    0    0  503    0  0.00000000000E+00 -0.00000000000E+00 -0.17091458426E+03  0.17091458426E+03  0.00000000000E+00 0. -1.
         23    2    1    2    0    0 -0.11966086668E+02  0.99307050829E+02  0.17022986452E+03  0.21771719891E+03  0.91746903770E+02 0.  0.
         23    2    1    2    0    0 -0.32491117741E+02 -0.21863290069E+02 -0.39966474609E+02  0.12378416130E+03  0.11041523133E+03 0.  0.
        -11    1    3    3    0    0  0.29579887770E+02  0.41347965674E+02  0.26643771005E+02  0.57397861974E+02  0.00000000000E+00 0. -1.
         11    1    3    3    0    0 -0.41545974438E+02  0.57959085155E+02  0.14358609352E+03  0.16031933694E+03  0.00000000000E+00 0.  1.
        -13    1    4    4    0    0 -0.67586286862E+02 -0.23280367415E+02 -0.12291326160E+01  0.71494002866E+02  0.00000000000E+00 0.  1.
         13    1    4    4    0    0  0.35095169121E+02  0.14170773458E+01 -0.38737341993E+02  0.52290158429E+02  0.00000000000E+00 0. -1.
         21    1    1    2  502  501  0.25233323963E+02 -0.21550248186E+02  0.34168421875E+02  0.47629978884E+02  0.00000000000E+00 0.  1.
         21    1    1    2  503  502  0.19223880446E+02 -0.55893512574E+02 -0.43651250092E+02  0.73478391121E+02  0.00000000000E+00 0. -1.
<scales pt_clust_5="13000.00000" pt_clust_6="13000.00000" pt_clust_7="13000.00000" pt_clust_8="13000.00000" pt_clust_9="33.18334" pt_clust_10="60.81513"></scales>
<clustering>
<clus scale="   33.183">  1  9  2 -1</clus>
<clus scale="   60.815">  2 10  1 -1</clus>
<clus scale="   91.747">  5  6 -1 -1</clus>
<clus scale="  110.415">  7  8 -1 -1</clus>
<clus scale="  115.661">  1  5  2 -1</clus>
<clus scale="   60.815">  2  5  1 -1</clus>
</clustering>
</event>
<event>
10    2  0.1133532E-006  0.1088311E+03  0.7546771E-02  0.1265890E+00
         -2   -1    0    0    0  501 -0.00000000000E+00  0.00000000000E+00  0.36249671416E+02  0.36249671416E+02  0.00000000000E+00 0.  1.
          2   -1    0    0  503    0  0.00000000000E+00 -0.00000000000E+00 -0.88969195771E+03  0.88969195771E+03  0.00000000000E+00 0. -1.
         23    2    1    2    0    0 -0.59015578140E+02  0.53944580167E+02 -0.20126751104E+03  0.23752889704E+03  0.97562850191E+02 0.  0.
         23    2    1    2    0    0  0.58214466400E+01 -0.45099293636E+02 -0.36443045862E+03  0.37819248147E+03  0.90289303571E+02 0.  0.
        -11    1    3    3    0    0 -0.66973942554E+02  0.73096910470E+02 -0.13112888209E+03  0.16438811095E+03  0.00000000000E+00 0.  1.
         11    1    3    3    0    0  0.79583644137E+01 -0.19152330304E+02 -0.70138628946E+02  0.73140786095E+02  0.00000000000E+00 0. -1.
        -11    1    4    4    0    0 -0.28730150273E+02  0.29606605111E+01 -0.46060237147E+02  0.54366648705E+02  0.00000000000E+00 0.  1.
         11    1    4    4    0    0  0.34551596913E+02 -0.48059954147E+02 -0.31837022148E+03  0.32382583276E+03  0.00000000000E+00 0. -1.
         21    1    1    2  502  501  0.74498103533E+02 -0.13524384431E+02 -0.12590829895E+03  0.14692098608E+03  0.00000000000E+00 0. -1.
         21    1    1    2  503  502 -0.21303972033E+02  0.46790978998E+01 -0.16183601768E+03  0.16329926454E+03  0.00000000000E+00 0.  1.
<scales pt_clust_5="13000.00000" pt_clust_6="13000.00000" pt_clust_7="13000.00000" pt_clust_8="13000.00000" pt_clust_9="71.62659" pt_clust_10="21.81177"></scales>
<clustering>
<clus scale="   21.812">  2 10  1 -1</clus>
<clus scale="   71.627">  1  9  2 -1</clus>
<clus scale="   90.289">  7  8 -1 -1</clus>
<clus scale="   97.563">  5  6 -1 -1</clus>
<clus scale="  102.361">  2  7  1 -1</clus>
<clus scale="   21.812">  2  5  1 -1</clus>
</clustering>
</event>
<event>
10    2  0.1133532E-006  0.1120534E+03  0.7546771E-02  0.1258569E+00
          1   -1    0    0  503    0  0.00000000000E+00  0.00000000000E+00  0.11876876062E+03  0.11876876062E+03  0.00000000000E+00 0. -1.
         -1   -1    0    0    0  501 -0.00000000000E+00 -0.00000000000E+00 -0.37820518344E+03  0.37820518344E+03  0.00000000000E+00 0.  1.
         23    2    1    2    0    0  0.34700558842E+02  0.52710951725E+02 -0.25469748375E+03  0.27956982592E+03  0.96467124556E+02 0.  0.
         23    2    1    2    0    0 -0.37654354536E+01 -0.40847741926E+02 -0.62938390661E+01  0.10093555075E+03  0.92009002116E+02 0.  0.
        -13    1    3    3    0    0  0.67383172546E+02  0.23979766960E+02 -0.16691381336E+03  0.18159224173E+03  0.00000000000E+00 0. -1.
         13    1    3    3    0    0 -0.32682613704E+02  0.28731184766E+02 -0.87783670390E+02  0.97977584190E+02  0.00000000000E+00 0.  1.
        -13    1    4    4    0    0  0.18214305115E+02 -0.47761048289E+02  0.29012479081E+02  0.58775867385E+02  0.00000000000E+00 0. -1.
         13    1    4    4    0    0 -0.21979740569E+02  0.69133063631E+01 -0.35306318147E+02  0.42159683365E+02  0.00000000000E+00 0.  1.
         21    1    1    2  502  501 -0.19099321306E+02  0.78102377243E+01 -0.53217978076E+02  0.57078341586E+02  0.00000000000E+00 0.  1.
         21    1    1    2  503  502 -0.11835802082E+02 -0.19673447524E+02  0.54772878077E+02  0.59390225806E+02  0.00000000000E+00 0.  1.
<scales pt_clust_5="13000.00000" pt_clust_6="13000.00000" pt_clust_7="13000.00000" pt_clust_8="13000.00000" pt_clust_9="20.63453" pt_clust_10="22.98233"></scales>
<clustering>
<clus scale="   20.635">  2  9  1 -1</clus>
<clus scale="   22.982">  1 10  2 -1</clus>
<clus scale="   92.009">  7  8 -1 -1</clus>
<clus scale="   96.467">  5  6 -1 -1</clus>
<clus scale="  108.239">  1  7  2 -1</clus>
<clus scale="   22.982">  1  5  2 -1</clus>
</clustering>
</event>
<event>
10    2  0.1133532E-006  0.1286064E+03  0.7546771E-02  0.1230479E+00
         -2   -1    0    0    0  501 -0.00000000000E+00  0.00000000000E+00  0.71239250899E+02  0.71239250899E+02  0.00000000000E+00 0.  1.
          2   -1    0    0  503    0  0.00000000000E+00 -0.00000000000E+00 -0.45897528193E+03  0.45897528193E+03  0.00000000000E+00 0. -1.
         23    2    1    2    0    0  0.33678643924E+02  0.85802497138E+02 -0.17660780962E+03  0.21825107939E+03  0.89145362545E+02 0.  0.
         23    2    1    2    0    0  0.16301234788E+02 -0.91699986826E+02 -0.15847101488E+03  0.20582713708E+03  0.92612795898E+02 0.  0.
        -11    1    4    4    0    0  0.22895683830E+02  0.65960756968E+01 -0.64658933216E+01  0.24688627525E+02  0.00000000000E+00 0.  1.
         11    1    4    4    0    0 -0.65944490418E+01 -0.98296062522E+02 -0.15200512156E+03  0.18113850956E+03  0.00000000000E+00 0. -1.
        -13    1    3    3    0    0  0.55775596227E+02  0.85447881101E+02 -0.12021736322E+03  0.15768472323E+03  0.00000000000E+00 0.  1.
         13    1    3    3    0    0 -0.22096952303E+02  0.35461603741E+00 -0.56390446398E+02  0.60566356160E+02  0.00000000000E+00 0. -1.
         21    1    1    2  502  501 -0.48417673488E+02 -0.15744011959E+02 -0.19143766694E+01  0.50949090832E+02  0.00000000000E+00 0.  1.
         21    1    1    2  503  502 -0.15622052241E+01  0.21641501647E+02 -0.50742829866E+02  0.55187225528E+02  0.00000000000E+00 0.  1.
<scales pt_clust_5="13000.00000" pt_clust_6="13000.00000" pt_clust_7="13000.00000" pt_clust_8="13000.00000" pt_clust_9="50.59274" pt_clust_10="21.69781"></scales>
<clustering>
<clus scale="   21.698">  2 10  1 -1</clus>
<clus scale="   50.593">  1  9  2 -1</clus>
<clus scale="   89.145">  7  8 -1 -1</clus>
<clus scale="   92.613">  5  6 -1 -1</clus>
<clus scale="  126.132">  1  7  2 -1</clus>
<clus scale="   21.698">  2  5  1 -1</clus>
</clustering>
</event>
<event>
10    2  0.1133532E-006  0.1540893E+03  0.7546771E-02  0.1195546E+00
          2   -1    0    0  503    0  0.00000000000E+00  0.00000000000E+00  0.80517123128E+03  0.80517123128E+03  0.00000000000E+00 0. -1.
         -2   -1    0    0    0  501 -0.00000000000E+00 -0.00000000000E+00 -0.48836051028E+02  0.48836051028E+02  0.00000000000E+00 0.  1.
         23    2    1    2    0    0 -0.34091514630E+02 -0.91981021251E+02  0.15664365349E+03  0.20605769106E+03  0.91103228391E+02 0.  0.
         23    2    1    2    0    0  0.62294886869E+02  0.13747921607E+03  0.47036175413E+03  0.50232611320E+03  0.91160059631E+02 0.  0.
        -11    1    3    3    0    0 -0.10483004976E+02 -0.10450418162E+03  0.13822666674E+03  0.17360192616E+03  0.00000000000E+00 0.  1.
         11    1    3    3    0    0 -0.23608509654E+02  0.12523160368E+02  0.18416986752E+02  0.32455764892E+02  0.00000000000E+00 0. -1.
        -11    1    4    4    0    0 -0.15867715705E+02  0.29780495470E+02  0.42611779858E+02  0.54354632690E+02  0.00000000000E+00 0.  1.
         11    1    4    4    0    0  0.78162602574E+02  0.10769872060E+03  0.42774997427E+03  0.44797148051E+03  0.00000000000E+00 0. -1.
         21    1    1    2  502  501 -0.31985435741E+02 -0.19179345163E+02  0.53091996965E+02  0.64882012316E+02  0.00000000000E+00 0.  1.
         21    1    1    2  503  502  0.37820635019E+01 -0.26318849654E+02  0.76237775665E+02  0.80741465740E+02  0.00000000000E+00 0.  1.
<scales pt_clust_5="13000.00000" pt_clust_6="13000.00000" pt_clust_7="13000.00000" pt_clust_8="13000.00000" pt_clust_9="38.18224" pt_clust_10="26.58921"></scales>
<clustering>
<clus scale="   26.589">  1 10  2 -1</clus>
<clus scale="   38.182">  2  9  1 -1</clus>
<clus scale="   91.103">  5  6 -1 -1</clus>
<clus scale="   91.160">  7  8 -1 -1</clus>
<clus scale="  154.056">  2  5  1 -1</clus>
<clus scale="   26.589">  1  5  2 -1</clus>
</clustering>
</event>
<event>
10    2  0.1133532E-006  0.3286833E+03  0.7546771E-02  0.1071755E+00
         -1   -1    0    0    0  501 -0.00000000000E+00  0.00000000000E+00  0.44131964710E+03  0.44131964710E+03  0.00000000000E+00 0.  1.
          1   -1    0    0  503    0  0.00000000000E+00 -0.00000000000E+00 -0.67998403453E+03  0.67998403453E+03  0.00000000000E+00 0. -1.
         23    2    1    2    0    0 -0.26390066144E+03  0.88362739381E+02  0.14204017091E+03  0.32528401026E+03  0.90458522876E+02 0.  0.
         23    2    1    2    0    0  0.36930652490E+03 -0.81038742839E+02 -0.37856233749E+03  0.54281216829E+03  0.91547908261E+02 0.  0.
        -13    1    3    3    0    0 -0.15883293722E+03  0.63742153049E+01  0.85723381084E+02  0.18060185667E+03  0.00000000000E+00 0.  1.
         13    1    3    3    0    0 -0.10506772422E+03  0.81988524076E+02  0.56316789822E+02  0.14468215359E+03  0.00000000000E+00 0. -1.
        -13    1    4    4    0    0  0.12963674714E+03  0.60453821871E+01 -0.91179006339E+02  0.15860593952E+03  0.00000000000E+00 0.  1.
         13    1    4    4    0    0  0.23966977776E+03 -0.87084125026E+02 -0.28738333115E+03  0.38420622877E+03  0.00000000000E+00 0. -1.
         21    1    1    2  502  501 -0.38466493614E+02 -0.11594537395E+02  0.11301278806E+03  0.11994163036E+03  0.00000000000E+00 0.  1.
         21    1    1    2  503  502 -0.66939369849E+02  0.42705408527E+01 -0.11515500891E+03  0.13326587272E+03  0.00000000000E+00 0.  1.
<scales pt_clust_5="13000.00000" pt_clust_6="13000.00000" pt_clust_7="13000.00000" pt_clust_8="13000.00000" pt_clust_9="40.17592" pt_clust_10="68.12613"></scales>
<clustering>
<clus scale="   40.176">  1  9  2 -1</clus>
<clus scale="   68.126">  2 10  1 -1</clus>
<clus scale="   90.459">  5  6 -1 -1</clus>
<clus scale="   91.548">  7  8 -1 -1</clus>
<clus scale="  328.382">  1  5  2 -1</clus>
<clus scale="   68.126">  2  5  1 -1</clus>
</clustering>
</event>
<event>
10    2  0.1133532E-006  0.1015318E+03  0.7546771E-02  0.1277659E+00
         -1   -1    0    0    0  501 -0.00000000000E+00  0.00000000000E+00  0.13788334428E+03  0.13788334428E+03  0.00000000000E+00 0.  1.
          1   -1    0    0  503    0  0.00000000000E+00 -0.00000000000E+00 -0.18091514893E+03  0.18091514893E+03  0.00000000000E+00 0. -1.
         23    2    1    2    0    0  0.22377681926E+02 -0.65669279641E+02  0.57845304065E+01  0.11636898302E+03  0.93247329618E+02 0.  0.
         23    2    1    2    0    0  0.25394680932E+02  0.15600277105E+02 -0.15971160392E+02  0.98098182818E+02  0.92086465035E+02 0.  0.
        -13    1    3    3    0    0  0.52096101698E+02 -0.12617834868E+02 -0.75058011409E+01  0.54125323275E+02  0.00000000000E+00 0. -1.
         13    1    3    3    0    0 -0.29718419772E+02 -0.53051444773E+02  0.13290331547E+02  0.62243659748E+02  0.00000000000E+00 0.  1.
        -13    1    4    4    0    0  0.16499963887E+02  0.45854235289E+02 -0.36135297937E+02  0.60668109079E+02  0.00000000000E+00 0. -1.
         13    1    4    4    0    0  0.88947170456E+01 -0.30253958184E+02  0.20164137546E+02  0.37430073739E+02  0.00000000000E+00 0.  1.
         21    1    1    2  502  501 -0.15728237701E+02  0.17747013302E+02  0.22490295069E+02  0.32682523076E+02  0.00000000000E+00 0. -1.
         21    1    1    2  503  502 -0.32044125157E+02  0.32321989234E+02 -0.55335469741E+02  0.71648804293E+02  0.00000000000E+00 0. -1.
<scales pt_clust_5="13000.00000" pt_clust_6="13000.00000" pt_clust_7="13000.00000" pt_clust_8="13000.00000" pt_clust_9="23.71358" pt_clust_10="47.26517"></scales>
<clustering>
<clus scale="   23.714">  1  9  2 -1</clus>
<clus scale="   47.265">  2 10  1 -1</clus>
<clus scale="   92.086">  7  8 -1 -1</clus>
<clus scale="   93.247">  5  6 -1 -1</clus>
<clus scale="  100.467">  2  7  1 -1</clus>
<clus scale="   47.265">  2  5  1 -1</clus>
</clustering>
</event>
<event>
10    2  0.1133532E-006  0.1842358E+03  0.7546771E-02  0.1179660E+00
          1   -1    0    0  503    0  0.00000000000E+00  0.00000000000E+00  0.82605392587E+03  0.82605392587E+03  0.00000000000E+00 0. -1.
         -1   -1    0    0    0  501 -0.00000000000E+00 -0.00000000000E+00 -0.18811766568E+03  0.18811766568E+03  0.00000000000E+00 0.  1.
         23    2    1    2    0    0 -0.22105813352E+03  0.63864218288E+02  0.16602448471E+03  0.29861484095E+03  0.93066411440E+02 0.  0.
         23    2    1    2    0    0  0.50683758190E+02 -0.55570090243E+02  0.42563238341E+03  0.44176870203E+03  0.91322406966E+02 0.  0.
        -11    1    4    4    0    0  0.65962866572E+02 -0.69362262345E+02  0.31440845185E+03  0.32865620000E+03  0.00000000000E+00 0. -1.
         11    1    4    4    0    0 -0.15279108382E+02  0.13792172102E+02  0.11122393155E+03  0.11311250203E+03  0.00000000000E+00 0.  1.
        -13    1    3    3    0    0 -0.34149491698E+02 -0.15806272542E+02  0.56249519170E+02  0.67675951724E+02  0.00000000000E+00 0. -1.
         13    1    3    3    0    0 -0.18690864182E+03  0.79670490830E+02  0.10977496554E+03  0.23093888922E+03  0.00000000000E+00 0.  1.
         21    1    1    2  502  501  0.14598546033E+03  0.18110269086E+01 -0.64715401366E+02  0.15969695558E+03  0.00000000000E+00 0.  1.
         21    1    1    2  503  502  0.24388914994E+02 -0.10105154954E+02  0.11099479343E+03  0.11409109299E+03  0.00000000000E+00 0. -1.
<scales pt_clust_5="13000.00000" pt_clust_6="13000.00000" pt_clust_7="13000.00000" pt_clust_8="13000.00000" pt_clust_9="159.00146" pt_clust_10="26.39949"></scales>
<clustering>
<clus scale="   26.399">  1 10  2 -1</clus>
<clus scale="   91.322">  5  6 -1 -1</clus>
<clus scale="   93.066">  7  8 -1 -1</clus>
<clus scale="  128.217">  1  5  2 -1</clus>
<clus scale="  159.001">  2  9  1 -1</clus>
<clus scale="   26.399">  1  5  2 -1</clus>
</clustering>
</event>
<event>
10    2  0.1133532E-006  0.9858155E+02  0.7546771E-02  0.1283439E+00
          2   -1    0    0  503    0  0.00000000000E+00  0.00000000000E+00  0.20735763087E+03  0.20735763087E+03  0.00000000000E+00 0.  1.
         -2   -1    0    0    0  501 -0.00000000000E+00 -0.00000000000E+00 -0.13155662239E+03  0.13155662239E+03  0.00000000000E+00 0. -1.
         23    2    1    2    0    0 -0.29936516650E+02  0.35388680558E+02  0.15485634002E+01  0.10333441082E+03  0.92342020072E+02 0.  0.
         23    2    1    2    0    0 -0.13053442488E+02 -0.30010686143E+02  0.16413504637E+02  0.99091296600E+02  0.92079575824E+02 0.  0.
        -11    1    3    3    0    0 -0.22459598959E+02  0.55884335323E+02 -0.28150958180E+02  0.66482847159E+02  0.00000000000E+00 0. -1.
         11    1    3    3    0    0 -0.74769176907E+01 -0.20495654766E+02  0.29699521580E+02  0.36851563664E+02  0.00000000000E+00 0.  1.
        -13    1    4    4    0    0 -0.34442254461E+02  0.20754587378E+02 -0.38485127182E+01  0.40395950783E+02  0.00000000000E+00 0. -1.
         13    1    4    4    0    0  0.21388811973E+02 -0.50765273521E+02  0.20262017356E+02  0.58695345817E+02  0.00000000000E+00 0.  1.
         21    1    1    2  502  501  0.19401371280E+02  0.22360667938E+02 -0.29543067180E+02  0.41823504117E+02  0.00000000000E+00 0. -1.
         21    1    1    2  503  502  0.23588587857E+02 -0.27738662353E+02  0.87382007621E+02  0.94665041711E+02  0.00000000000E+00 0.  1.
<scales pt_clust_5="13000.00000" pt_clust_6="13000.00000" pt_clust_7="13000.00000" pt_clust_8="13000.00000" pt_clust_9="29.60427" pt_clust_10="36.25972"></scales>
<clustering>
<clus scale="   29.604">  2  9  1 -1</clus>
<clus scale="   36.260">  1 10  2 -1</clus>
<clus scale="   92.080">  7  8 -1 -1</clus>
<clus scale="   92.342">  5  6 -1 -1</clus>
<clus scale="   98.336">  1  7  2 -1</clus>
<clus scale="   36.260">  1  5  2 -1</clus>
</clustering>
</event>
<event>
10    2  0.1133532E-006  0.1045572E+03  0.7546771E-02  0.1272426E+00
          1   -1    0    0  503    0  0.00000000000E+00  0.00000000000E+00  0.25542456071E+03  0.25542456071E+03  0.00000000000E+00 0. -1.
         -1   -1    0    0    0  501 -0.00000000000E+00 -0.00000000000E+00 -0.84208765403E+02  0.84208765403E+02  0.00000000000E+00 0.  1.
         23    2    1    2    0    0 -0.29046111281E+02  0.42304891582E+02  0.42226688208E+02  0.11546205872E+03  0.94419348523E+02 0.  0.
         23    2    1    2    0    0  0.27894058008E+02 -0.18462182858E+02  0.79589592919E+02  0.13021336150E+03  0.97478641483E+02 0.  0.
        -11    1    4    4    0    0  0.28120010368E+02  0.22828538298E+02 -0.45338296082E+01  0.36502503405E+02  0.00000000000E+00 0.  1.
         11    1    4    4    0    0 -0.22595235949E+00 -0.41290721157E+02  0.84123422527E+02  0.93710858099E+02  0.00000000000E+00 0. -1.
        -11    1    3    3    0    0 -0.55539314598E+02  0.92686627549E+00  0.35372367514E+02  0.65853465593E+02  0.00000000000E+00 0. -1.
         11    1    3    3    0    0  0.26493203317E+02  0.41378025306E+02  0.68543206938E+01  0.49608593131E+02  0.00000000000E+00 0.  1.
         21    1    1    2  502  501  0.37924024401E+02 -0.13561085390E+02  0.16382719791E+02  0.43480204363E+02  0.00000000000E+00 0.  1.
         21    1    1    2  503  502 -0.36771971128E+02 -0.10281623333E+02  0.33016794388E+02  0.50477701519E+02  0.00000000000E+00 0. -1.
<scales pt_clust_5="13000.00000" pt_clust_6="13000.00000" pt_clust_7="13000.00000" pt_clust_8="13000.00000" pt_clust_9="36.04323" pt_clust_10="38.18232"></scales>
<clustering>
<clus scale="   38.182">  1 10  2 -1</clus>
<clus scale="   36.043">  2  9  1 -1</clus>
<clus scale="   94.419">  7  8 -1 -1</clus>
<clus scale="   97.479">  5  6 -1 -1</clus>
<clus scale="  101.711">  2  7  1 -1</clus>
<clus scale="   38.182">  1  5  2 -1</clus>
</clustering>
</event>
<event>
10    2  0.1133532E-006  0.1315811E+03  0.7546771E-02  0.1242719E+00
          1   -1    0    0  503    0  0.00000000000E+00  0.00000000000E+00  0.42410098418E+03  0.42410098418E+03  0.00000000000E+00 0. -1.
         -1   -1    0    0    0  501 -0.00000000000E+00 -0.00000000000E+00 -0.15007890478E+03  0.15007890478E+03  0.00000000000E+00 0.  1.
         23    2    1    2    0    0  0.49967459831E+02  0.62080652499E+02  0.17023201990E+03  0.20924774497E+03  0.91950659156E+02 0.  0.
         23    2    1    2    0    0 -0.12265651052E+01  0.20557872938E+02  0.19202223545E+03  0.21289544872E+03  0.89598005417E+02 0.  0.
        -13    1    3    3    0    0  0.92943919892E+01 -0.24289693144E+02  0.31643590967E+02  0.40959635799E+02  0.00000000000E+00 0.  1.
         13    1    3    3    0    0  0.40673067841E+02  0.86370345644E+02  0.13858842893E+03  0.16828810917E+03  0.00000000000E+00 0. -1.
        -13    1    4    4    0    0 -0.35752410984E+02  0.37466101679E+02  0.12986719737E+03  0.13981213331E+03  0.00000000000E+00 0. -1.
         13    1    4    4    0    0  0.34525845879E+02 -0.16908228741E+02  0.62155038080E+02  0.73083315411E+02  0.00000000000E+00 0.  1.
         21    1    1    2  502  501  0.21163381240E+02 -0.11538410804E+02 -0.16822106566E+02  0.29393994263E+02  0.00000000000E+00 0. -1.
         21    1    1    2  503  502 -0.69904275966E+02 -0.71100114633E+02 -0.71410069387E+02  0.12264270100E+03  0.00000000000E+00 0.  1.
<scales pt_clust_5="13000.00000" pt_clust_6="13000.00000" pt_clust_7="13000.00000" pt_clust_8="13000.00000" pt_clust_9="24.10443" pt_clust_10="94.12042"></scales>
<clustering>
<clus scale="   24.104">  2  9  1 -1</clus>
<clus scale="   89.598">  7  8 -1 -1</clus>
<clus scale="   91.720">  1  7  2 -1</clus>
<clus scale="   91.951">  5  6 -1 -1</clus>
<clus scale="   94.120">  2 10  1 -1</clus>
<clus scale="   91.720">  1  5  2 -1</clus>
</clustering>
</event>
<event>
10    2  0.1133532E-006  0.1824032E+03  0.7546771E-02  0.1165683E+00
          1   -1    0    0  503    0  0.00000000000E+00  0.00000000000E+00  0.17823636993E+03  0.17823636993E+03  0.00000000000E+00 0. -1.
         -1   -1    0    0    0  501 -0.00000000000E+00 -0.00000000000E+00 -0.62391606615E+03  0.62391606615E+03  0.00000000000E+00 0.  1.
         23    2    1    2    0    0  0.13894766237E+03 -0.53871202825E+02 -0.45447511730E+03  0.48699655874E+03  0.91703089381E+02 0.  0.
         23    2    1    2    0    0 -0.85165575503E+02  0.16605902232E+02  0.84925675084E+02  0.15308156919E+03  0.93234464115E+02 0.  0.
        -11    1    3    3    0    0  0.42590216014E+02 -0.64734823589E+02 -0.18331653454E+03  0.19902129464E+03  0.00000000000E+00 0. -1.
         11    1    3    3    0    0  0.96357446360E+02  0.10863620764E+02 -0.27115858276E+03  0.28797526410E+03  0.00000000000E+00 0.  1.
        -13    1    4    4    0    0 -0.39208012185E+02 -0.32967116550E+02  0.64696142545E+02  0.82520844962E+02  0.00000000000E+00 0.  1.
         13    1    4    4    0    0 -0.45957563318E+02  0.49573018783E+02  0.20229532539E+02  0.70560724232E+02  0.00000000000E+00 0. -1.
         21    1    1    2  502  501  0.19699796407E+02 -0.20230682005E+02 -0.61445317423E+02  0.67623143272E+02  0.00000000000E+00 0.  1.
         21    1    1    2  503  502 -0.73481883278E+02  0.57495982598E+02 -0.14684936575E+02  0.94451164880E+02  0.00000000000E+00 0. -1.
<scales pt_clust_5="13000.00000" pt_clust_6="13000.00000" pt_clust_7="13000.00000" pt_clust_8="13000.00000" pt_clust_9="28.23761" pt_clust_10="90.57373"></scales>
<clustering>
<clus scale="   28.238">  2  9  1 -1</clus>
<clus scale="   90.574">  1 10  2 -1</clus>
<clus scale="   91.703">  5  6 -1 -1</clus>
<clus scale="   93.234">  7  8 -1 -1</clus>
<clus scale="  181.625">  2  5  1 -1</clus>
<clus scale="   90.574">  1  5  2 -1</clus>
</clustering>
</event>
<event>
10    2  0.1133532E-006  0.1847841E+03  0.7546771E-02  0.1163336E+00
         -1   -1    0    0    0  501 -0.00000000000E+00  0.00000000000E+00  0.33237839171E+03  0.33237839171E+03  0.00000000000E+00 0.  1.
          1   -1    0    0  503    0  0.00000000000E+00 -0.00000000000E+00 -0.17866412811E+03  0.17866412811E+03  0.00000000000E+00 0. -1.
         23    2    1    2    0    0  0.11781110382E+03 -0.11135422775E+03  0.83364686232E+02  0.20379169033E+03  0.91116200079E+02 0.  0.
         23    2    1    2    0    0 -0.78609614348E+02  0.14419455008E+03  0.89020821442E+02  0.20816032461E+03  0.91839394328E+02 0.  0.
        -13    1    4    4    0    0 -0.43229480678E+02  0.10713658621E+03  0.12683934985E+02  0.11622357038E+03  0.00000000000E+00 0. -1.
         13    1    4    4    0    0 -0.35380133670E+02  0.37057963870E+02  0.76336886457E+02  0.91936754232E+02  0.00000000000E+00 0.  1.
        -13    1    3    3    0    0  0.71267480604E+02 -0.82475407210E+02  0.98554292549E+02  0.14694963479E+03  0.00000000000E+00 0.  1.
         13    1    3    3    0    0  0.46543623216E+02 -0.28878820540E+02 -0.15189606317E+02  0.56842055539E+02  0.00000000000E+00 0. -1.
         21    1    1    2  502  501 -0.25499267628E+02  0.82470550977E+01  0.25666987597E+02  0.37108231158E+02  0.00000000000E+00 0. -1.
         21    1    1    2  503  502 -0.13702221844E+02 -0.41087377431E+02 -0.44338231671E+02  0.61982273719E+02  0.00000000000E+00 0.  1.
<scales pt_clust_5="13000.00000" pt_clust_6="13000.00000" pt_clust_7="13000.00000" pt_clust_8="13000.00000" pt_clust_9="26.79975" pt_clust_10="43.32619"></scales>
<clustering>
<clus scale="   26.800">  1  9  2 -1</clus>
<clus scale="   43.326">  2 10  1 -1</clus>
<clus scale="   91.116">  7  8 -1 -1</clus>
<clus scale="   91.839">  5  6 -1 -1</clus>
<clus scale="  184.426">  1  7  2 -1</clus>
<clus scale="   43.326">  2  5  1 -1</clus>
</clustering>
</event>
<event>
10    2  0.1133532E-006  0.1386110E+03  0.7546771E-02  0.1215497E+00
          2   -1    0    0  502    0  0.00000000000E+00  0.00000000000E+00  0.47278978676E+03  0.47278978676E+03  0.00000000000E+00 0. -1.
         -2   -1    0    0    0  501 -0.00000000000E+00 -0.00000000000E+00 -0.12509898075E+03  0.12509898075E+03  0.00000000000E+00 0.  1.
         23    2    1    2    0    0 -0.47489032295E+02  0.52392824653E+02 -0.60734007756E+02  0.12775398553E+03  0.87362720070E+02 0.  0.
         23    2    1    2    0    0  0.10452258453E+03 -0.41971163389E+02  0.36504277409E+03  0.39218166060E+03  0.88677385868E+02 0.  0.
        -11    1    3    3    0    0  0.30247161935E+01  0.39939451459E+02 -0.64137062655E+02  0.75616608605E+02  0.00000000000E+00 0.  1.
         11    1    3    3    0    0 -0.50513748489E+02  0.12453373194E+02  0.34030548987E+01  0.52137376928E+02  0.00000000000E+00 0. -1.
        -11    1    4    4    0    0  0.15808460619E+02  0.20695817367E+02  0.28787876392E+02  0.38819661394E+02  0.00000000000E+00 0.  1.
         11    1    4    4    0    0  0.88714123915E+02 -0.62666980756E+02  0.33625489769E+03  0.35336199921E+03  0.00000000000E+00 0. -1.
         21    1    1    2  502  503 -0.28839915853E+02 -0.42148574234E+01  0.44477362758E+01  0.29483692569E+02  0.00000000000E+00 0.  1.
         21    1    1    2  503  501 -0.28193636386E+02 -0.62068038402E+01  0.38934303410E+02  0.48469428804E+02  0.00000000000E+00 0. -1.
<scales pt_clust_5="13000.00000" pt_clust_6="13000.00000" pt_clust_7="13000.00000" pt_clust_8="13000.00000" pt_clust_9="64.76641" pt_clust_10="28.72833"></scales>
<clustering>
<clus scale="   28.728">  9 10 -1 -1</clus>
<clus scale="   64.766">  2  9  1 -1</clus>
<clus scale="   87.363">  5  6 -1 -1</clus>
<clus scale="   88.677">  7  8 -1 -1</clus>
<clus scale="  137.774">  2  5  1 -1</clus>
<clus scale="  138.611">  1  5  2 -1</clus>
</clustering>
</event>
<event>
10    2  0.1133532E-006  0.9229766E+02  0.7546771E-02  0.1297853E+00
         -1   -1    0    0    0  501 -0.00000000000E+00  0.00000000000E+00  0.41543133354E+02  0.41543133354E+02  0.00000000000E+00 0.  1.
          1   -1    0    0  503    0  0.00000000000E+00 -0.00000000000E+00 -0.61989762582E+03  0.61989762582E+03  0.00000000000E+00 0. -1.
         23    2    1    2    0    0  0.33080973931E+02  0.26452446957E+02 -0.10318793356E+03  0.14443603625E+03  0.91760210056E+02 0.  0.
         23    2    1    2    0    0  0.42372164180E+02  0.96558369690E+01 -0.27034432379E+03  0.28852567741E+03  0.90952612029E+02 0.  0.
        -11    1    3    3    0    0 -0.11536706135E+02 -0.19182072129E+02 -0.67929258043E+02  0.71522245336E+02  0.00000000000E+00 0. -1.
         11    1    3    3    0    0  0.44617680066E+02  0.45634519086E+02 -0.35258675521E+02  0.72913790919E+02  0.00000000000E+00 0.  1.
        -11    1    4    4    0    0 -0.23101557165E+02 -0.62952892147E+00 -0.23582569409E+02  0.33018416529E+02  0.00000000000E+00 0. -1.
         11    1    4    4    0    0  0.65473721345E+02  0.10285365891E+02 -0.24676175438E+03  0.25550726088E+03  0.00000000000E+00 0.  1.
         21    1    1    2  502  501 -0.38972543403E+02 -0.17820295177E+02 -0.39795445058E+02  0.58481616828E+02  0.00000000000E+00 0. -1.
         21    1    1    2  503  502 -0.36480594708E+02 -0.18287988749E+02 -0.16502679005E+03  0.16999742868E+03  0.00000000000E+00 0. -1.
<scales pt_clust_5="13000.00000" pt_clust_6="13000.00000" pt_clust_7="13000.00000" pt_clust_8="13000.00000" pt_clust_9="47.28351" pt_clust_10="40.80790"></scales>
<clustering>
<clus scale="   40.808">  2 10  1 -1</clus>
<clus scale="   47.284">  1  9  2 -1</clus>
<clus scale="   90.953">  7  8 -1 -1</clus>
<clus scale="   91.495">  2  7  1 -1</clus>
<clus scale="   91.760">  5  6 -1 -1</clus>
<clus scale="   40.808">  2  5  1 -1</clus>
</clustering>
</event>
<event>
10    2  0.1133532E-006  0.1019941E+03  0.7546771E-02  0.1276383E+00
         -4   -1    0    0    0  501 -0.00000000000E+00  0.00000000000E+00  0.13099709702E+03  0.13099709702E+03  0.00000000000E+00 0.  1.
          4   -1    0    0  503    0  0.00000000000E+00 -0.00000000000E+00 -0.23280935880E+03  0.23280935880E+03  0.00000000000E+00 0. -1.
         23    2    1    2    0    0 -0.24238979118E+02  0.44255591782E+02  0.18910791244E+02  0.10694742058E+03  0.92379907068E+02 0.  0.
         23    2    1    2    0    0  0.15885170771E+02 -0.36755092267E+02 -0.36769867234E+02  0.10677085309E+03  0.91895138471E+02 0.  0.
        -13    1    4    4    0    0  0.20138839665E+02  0.28238297573E+02 -0.81544732891E+01  0.35629618964E+02  0.00000000000E+00 0.  1.
         13    1    4    4    0    0 -0.42536688946E+01 -0.64993389840E+02 -0.28615393945E+02  0.71141234123E+02  0.00000000000E+00 0. -1.
        -13    1    3    3    0    0  0.34440407661E+02  0.93197712869E+01 -0.13771827453E+01  0.35705692109E+02  0.00000000000E+00 0.  1.
         13    1    3    3    0    0 -0.58679386779E+02  0.34935820495E+02  0.20287973989E+02  0.71241728467E+02  0.00000000000E+00 0. -1.
         21    1    1    2  502  501 -0.14261694152E+02 -0.23100758874E+02  0.25495846279E+02  0.37243511624E+02  0.00000000000E+00 0.  1.
         21    1    1    2  503  502  0.22615502499E+02  0.15600259359E+02 -0.10944903207E+03  0.11284467053E+03  0.00000000000E+00 0.  1.
<scales pt_clust_5="13000.00000" pt_clust_6="13000.00000" pt_clust_7="13000.00000" pt_clust_8="13000.00000" pt_clust_9="27.14850" pt_clust_10="27.05119"></scales>
<clustering>
<clus scale="   27.148">  1  9  2 -1</clus>
<clus scale="   27.051">  2 10  1 -1</clus>
<clus scale="   91.895">  5  6 -1 -1</clus>
<clus scale="   92.380">  7  8 -1 -1</clus>
<clus scale="  101.555">  2  5  1 -1</clus>
<clus scale="   27.051">  2  5  1 -1</clus>
</clustering>
</event>
<event>
10    2  0.1133532E-006  0.1277850E+03  0.7546771E-02  0.1230844E+00
         -3   -1    0    0    0  501 -0.00000000000E+00  0.00000000000E+00  0.40063064849E+03  0.40063064849E+03  0.00000000000E+00 0.  1.
          3   -1    0    0  503    0  0.00000000000E+00 -0.00000000000E+00 -0.82057542706E+02  0.82057542706E+02  0.00000000000E+00 0. -1.
         23    2    1    2    0    0  0.57871794431E+02 -0.81461714625E+02  0.15006217973E+03  0.20135026180E+03  0.89655533018E+02 0.  0.
         23    2    1    2    0    0 -0.34650005655E+02  0.92939634707E+02  0.53772733712E+02  0.14426019326E+03  0.89894926872E+02 0.  0.
        -13    1    3    3    0    0  0.39076350917E+02  0.60197200283E+01  0.22365177663E+02  0.45424656324E+02  0.00000000000E+00 0. -1.
         13    1    3    3    0    0  0.18795443514E+02 -0.87481434653E+02  0.12769700206E+03  0.15592560547E+03  0.00000000000E+00 0.  1.
        -13    1    4    4    0    0 -0.13034470948E+02  0.58325658785E+02 -0.17375782766E+02  0.62239037045E+02  0.00000000000E+00 0. -1.
         13    1    4    4    0    0 -0.21615534706E+02  0.34613975922E+02  0.71148516478E+02  0.82021156215E+02  0.00000000000E+00 0.  1.
         21    1    1    2  502  501 -0.30117451909E+02  0.14488574324E+02  0.10201644414E+03  0.10735145351E+03  0.00000000000E+00 0.  1.
         21    1    1    2  503  502  0.68956631322E+01 -0.25966494405E+02  0.12721748206E+02  0.29726282633E+02  0.00000000000E+00 0.  1.
<scales pt_clust_5="13000.00000" pt_clust_6="13000.00000" pt_clust_7="13000.00000" pt_clust_8="13000.00000" pt_clust_9="32.79601" pt_clust_10="26.86650"></scales>
<clustering>
<clus scale="   26.867">  2 10  1 -1</clus>
<clus scale="   32.796">  1  9  2 -1</clus>
<clus scale="   89.656">  5  6 -1 -1</clus>
<clus scale="   89.895">  7  8 -1 -1</clus>
<clus scale="  127.617">  1  5  2 -1</clus>
<clus scale="   26.867">  2  5  1 -1</clus>
</clustering>
</event>
<event>
10    2  0.1133532E-006  0.1339020E+03  0.7546771E-02  0.1229682E+00
         -2   -1    0    0    0  501 -0.00000000000E+00  0.00000000000E+00  0.86914573908E+02  0.86914573908E+02  0.00000000000E+00 0.  1.
          2   -1    0    0  502    0  0.00000000000E+00 -0.00000000000E+00 -0.51567406085E+03  0.51567406085E+03  0.00000000000E+00 0. -1.
         23    2    1    2    0    0  0.46643335892E+02 -0.31883715950E+02 -0.68031567319E+02  0.12699641104E+03  0.91146158111E+02 0.  0.
         23    2    1    2    0    0  0.32321460360E+02  0.53786786096E+02 -0.10456108656E+03  0.15189878288E+03  0.90567788200E+02 0.  0.
        -11    1    3    3    0    0 -0.15481452463E+02 -0.40006421324E+02 -0.38871551630E+02  0.57889434646E+02  0.00000000000E+00 0.  1.
         11    1    3    3    0    0  0.62124788355E+02  0.81227053749E+01 -0.29160015689E+02  0.69106976390E+02  0.00000000000E+00 0. -1.
        -11    1    4    4    0    0  0.30706087152E+02 -0.83613521018E+01 -0.18999225553E+01  0.31880804614E+02  0.00000000000E+00 0.  1.
         11    1    4    4    0    0  0.16153732085E+01  0.62148138198E+02 -0.10266116401E+03  0.12001797827E+03  0.00000000000E+00 0. -1.
         21    1    1    2  502  503 -0.12251475928E+03 -0.50257105872E+02 -0.23027064022E+03  0.26563172002E+03  0.00000000000E+00 0.  1.
         21    1    1    2  503  501  0.43549963026E+02  0.28354035725E+02 -0.25896192843E+02  0.58061720826E+02  0.00000000000E+00 0. -1.
<scales pt_clust_5="13000.00000" pt_clust_6="13000.00000" pt_clust_7="13000.00000" pt_clust_8="13000.00000" pt_clust_9="98.62661" pt_clust_10="51.96682"></scales>
<clustering>
<clus scale="   51.967">  1 10  2 -1</clus>
<clus scale="   90.568">  7  8 -1 -1</clus>
<clus scale="   91.146">  5  6 -1 -1</clus>
<clus scale="  113.605">  1  5  2 -1</clus>
<clus scale="   98.627">  1  9  2 -1</clus>
<clus scale="  133.902">  2  5  1 -1</clus>
</clustering>
</event>
<event>
10    2  0.1133532E-006  0.1444941E+03  0.7546771E-02  0.1218945E+00
          1   -1    0    0  503    0  0.00000000000E+00  0.00000000000E+00  0.14779048118E+03  0.14779048118E+03  0.00000000000E+00 0. -1.
         -1   -1    0    0    0  501 -0.00000000000E+00 -0.00000000000E+00 -0.47549710429E+03  0.47549710429E+03  0.00000000000E+00 0.  1.
         23    2    1    2    0    0 -0.67505137690E+02 -0.60521296375E+01  0.34486249046E+02  0.11778706542E+03  0.89949538737E+02 0.  0.
         23    2    1    2    0    0  0.21707530925E+02 -0.59477700332E+02 -0.71000268594E+02  0.13186070256E+03  0.91309325933E+02 0.  0.
        -11    1    4    4    0    0 -0.23717875279E+02 -0.48453886962E+02 -0.97660313068E+01  0.54824192990E+02  0.00000000000E+00 0. -1.
         11    1    4    4    0    0  0.45425406204E+02 -0.11023813370E+02 -0.61234237288E+02  0.77036509566E+02  0.00000000000E+00 0.  1.
        -11    1    3    3    0    0  0.13255770894E+02  0.22088144098E+02  0.51962866976E+00  0.25765705611E+02  0.00000000000E+00 0.  1.
         11    1    3    3    0    0 -0.80760908583E+02 -0.28140273735E+02  0.33966620376E+02  0.92021359808E+02  0.00000000000E+00 0. -1.
         21    1    1    2  502  501  0.83878226310E+02  0.89550851268E+02 -0.30316330119E+03  0.32705182922E+03  0.00000000000E+00 0.  1.
         21    1    1    2  503  502 -0.38080619545E+02 -0.24021021298E+02  0.11970697624E+02  0.46587988266E+02  0.00000000000E+00 0. -1.
<scales pt_clust_5="13000.00000" pt_clust_6="13000.00000" pt_clust_7="13000.00000" pt_clust_8="13000.00000" pt_clust_9="113.08242" pt_clust_10="45.02381"></scales>
<clustering>
<clus scale="   45.024">  1 10  2 -1</clus>
<clus scale="   89.950">  7  8 -1 -1</clus>
<clus scale="   91.309">  5  6 -1 -1</clus>
<clus scale="  113.089">  1  5  2 -1</clus>
<clus scale="  113.082">  2  9  1 -1</clus>
<clus scale="   45.024">  1  5  2 -1</clus>
</clustering>
</event>
<event>
10    2  0.1133532E-006  0.1141672E+03  0.7546771E-02  0.1258497E+00
         -1   -1    0    0    0  501 -0.00000000000E+00  0.00000000000E+00  0.51894641782E+03  0.51894641782E+03  0.00000000000E+00 0.  1.
          1   -1    0    0  503    0  0.00000000000E+00 -0.00000000000E+00 -0.59243468032E+02  0.59243468032E+02  0.00000000000E+00 0. -1.
         23    2    1    2    0    0  0.48551634394E+02 -0.18025413336E+02  0.39472626537E+03  0.41119849167E+03  0.10292326388E+03 0.  0.
         23    2    1    2    0    0 -0.47762623315E+02  0.16869705551E+02  0.25115259103E+02  0.10610590779E+03  0.89787706719E+02 0.  0.
        -11    1    4    4    0    0 -0.68860719516E+02  0.91957429762E+01  0.39037898570E+02  0.79688881947E+02  0.00000000000E+00 0. -1.
         11    1    4    4    0    0  0.21098096201E+02  0.76739625752E+01 -0.13922639467E+02  0.26417025848E+02  0.00000000000E+00 0.  1.
        -11    1    3    3    0    0  0.68654427690E+01  0.32748225278E+02  0.49310812228E+02  0.59591415202E+02  0.00000000000E+00 0. -1.
         11    1    3    3    0    0  0.41686191625E+02 -0.50773638614E+02  0.34541545314E+03  0.35160707646E+03  0.00000000000E+00 0.  1.
         21    1    1    2  502  501 -0.12660342553E+02 -0.16890381352E+02  0.31074742491E+02  0.37566060170E+02  0.00000000000E+00 0.  1.
         21    1    1    2  503  502  0.11871331474E+02  0.18046089137E+02  0.87866828186E+01  0.23319426216E+02  0.00000000000E+00 0. -1.
<scales pt_clust_5="13000.00000" pt_clust_6="13000.00000" pt_clust_7="13000.00000" pt_clust_8="13000.00000" pt_clust_9="21.10851" pt_clust_10="20.90284"></scales>
<clustering>
<clus scale="   21.109">  1  9  2 -1</clus>
<clus scale="   20.903">  2 10  1 -1</clus>
<clus scale="   89.788">  5  6 -1 -1</clus>
<clus scale="  102.483">  2  5  1 -1</clus>
<clus scale="  102.923">  7  8 -1 -1</clus>
<clus scale="   20.903">  2  5  1 -1</clus>
</clustering>
</event>
<event>
10    2  0.1133532E-006  0.1261804E+03  0.7546771E-02  0.1233748E+00
         -1   -1    0    0    0  501 -0.00000000000E+00  0.00000000000E+00  0.54445434666E+03  0.54445434666E+03  0.00000000000E+00 0.  1.
          1   -1    0    0  503    0  0.00000000000E+00 -0.00000000000E+00 -0.96683978709E+02  0.96683978709E+02  0.00000000000E+00 0. -1.
         23    2    1    2    0    0  0.14452836382E+03  0.83618803275E+00  0.28661064708E+03  0.33350558706E+03  0.90505062963E+02 0.  0.
         23    2    1    2    0    0 -0.54302760329E+02 -0.16850277070E+02  0.64769436828E+02  0.12364317029E+03  0.88655693530E+02 0.  0.
        -11    1    4    4    0    0  0.19757159449E+02  0.14056987331E+02  0.21832655173E+02  0.32628347709E+02  0.00000000000E+00 0.  1.
         11    1    4    4    0    0 -0.74059919777E+02 -0.30907264402E+02  0.42936781656E+02  0.91014822580E+02  0.00000000000E+00 0. -1.
        -13    1    3    3    0    0  0.10216515504E+03  0.13146029229E+02  0.26513260321E+03  0.28443950899E+03  0.00000000000E+00 0.  1.
         13    1    3    3    0    0  0.42363208784E+02 -0.12309841196E+02  0.21478043864E+02  0.49066078068E+02  0.00000000000E+00 0. -1.
         21    1    1    2  502  501 -0.60547618188E+02 -0.87791046326E+01  0.12277522869E+03  0.13717450027E+03  0.00000000000E+00 0. -1.
         21    1    1    2  503  502 -0.29677985305E+02  0.24793193670E+02 -0.26384944645E+02  0.46815067746E+02  0.00000000000E+00 0. -1.
<scales pt_clust_5="13000.00000" pt_clust_6="13000.00000" pt_clust_7="13000.00000" pt_clust_8="13000.00000" pt_clust_9="64.36641" pt_clust_10="38.67150"></scales>
<clustering>
<clus scale="   38.672">  2 10  1 -1</clus>
<clus scale="   64.366">  1  9  2 -1</clus>
<clus scale="   88.656">  5  6 -1 -1</clus>
<clus scale="   90.505">  7  8 -1 -1</clus>
<clus scale="  124.861">  2  5  1 -1</clus>
<clus scale="   38.672">  2  5  1 -1</clus>
</clustering>
</event>
<event>
10    2  0.1133532E-006  0.1095843E+03  0.7546771E-02  0.1262075E+00
         -1   -1    0    0    0  501 -0.00000000000E+00  0.00000000000E+00  0.15158933939E+03  0.15158933939E+03  0.00000000000E+00 0.  1.
          1   -1    0    0  503    0  0.00000000000E+00 -0.00000000000E+00 -0.43325116596E+03  0.43325116596E+03  0.00000000000E+00 0. -1.
         23    2    1    2    0    0 -0.40363584052E+02 -0.52848977976E+02  0.78503349051E+02  0.13747152474E+03  0.91177908017E+02 0.  0.
         23    2    1    2    0    0  0.19737089060E+02  0.34905807017E+02 -0.30862346215E+03  0.32377374343E+03  0.89291810936E+02 0.  0.
        -13    1    4    4    0    0  0.20004672534E+02 -0.26774461259E+02 -0.74355005514E+02  0.81521319567E+02  0.00000000000E+00 0.  1.
         13    1    4    4    0    0 -0.26758347380E+00  0.61680268275E+02 -0.23426845663E+03  0.24225242387E+03  0.00000000000E+00 0. -1.
        -13    1    3    3    0    0 -0.69609538698E+02 -0.39416714555E+02  0.62578681796E+02  0.10156405210E+03  0.00000000000E+00 0.  1.
         13    1    3    3    0    0  0.29245954646E+02 -0.13432263421E+02  0.15924667255E+02  0.35907472634E+02  0.00000000000E+00 0. -1.
         21    1    1    2  502  501 -0.12989198514E+02  0.18652071877E+02  0.28690369642E+02  0.36602682600E+02  0.00000000000E+00 0.  1.
         21    1    1    2  503  502  0.33615693506E+02 -0.70890091711E+00 -0.80232083122E+02  0.86992554581E+02  0.00000000000E+00 0.  1.
<scales pt_clust_5="13000.00000" pt_clust_6="13000.00000" pt_clust_7="13000.00000" pt_clust_8="13000.00000" pt_clust_9="22.72926" pt_clust_10="33.24703"></scales>
<clustering>
<clus scale="   22.729">  1  9  2 -1</clus>
<clus scale="   33.247">  2 10  1 -1</clus>
<clus scale="   89.292">  5  6 -1 -1</clus>
<clus scale="   91.178">  7  8 -1 -1</clus>
<clus scale="  108.020">  2  5  1 -1</clus>
<clus scale="   33.247">  2  5  1 -1</clus>
</clustering>
</event>
<event>
10    2  0.1133532E-006  0.1252149E+03  0.7546771E-02  0.1235276E+00
          2   -1    0    0  503    0  0.00000000000E+00  0.00000000000E+00  0.19977428451E+03  0.19977428451E+03  0.00000000000E+00 0. -1.
         -2   -1    0    0    0  501 -0.00000000000E+00 -0.00000000000E+00 -0.36985097829E+03  0.36985097829E+03  0.00000000000E+00 0.  1.
         23    2    1    2    0    0 -0.52833679605E+02 -0.33088774616E+02 -0.52559913650E+02  0.12039069220E+03  0.88572622966E+02 0.  0.
         23    2    1    2    0    0  0.20983331182E+02  0.99039465433E+02  0.95106483970E+02  0.16578284717E+03  0.90496371324E+02 0.  0.
        -11    1    3    3    0    0 -0.51925429949E+02  0.14650511467E+02 -0.48367661623E+02  0.72459081229E+02  0.00000000000E+00 0. -1.
         11    1    3    3    0    0 -0.90824965656E+00 -0.47739286083E+02 -0.41922520270E+01  0.47931610970E+02  0.00000000000E+00 0.  1.
        -13    1    4    4    0    0  0.66565417645E+01  0.30055781933E+02  0.90026485642E+02  0.95144246767E+02  0.00000000000E+00 0. -1.
         13    1    4    4    0    0  0.14326789417E+02  0.68983683500E+02  0.50799983276E+01  0.70638600405E+02  0.00000000000E+00 0.  1.
         21    1    1    2  502  501 -0.58387473710E+01 -0.55859469820E+02 -0.23283333696E+03  0.23951144887E+03  0.00000000000E+00 0.  1.
         21    1    1    2  503  502  0.37689095795E+02 -0.10091220997E+02  0.20210072863E+02  0.43940274557E+02  0.00000000000E+00 0. -1.
<scales pt_clust_5="13000.00000" pt_clust_6="13000.00000" pt_clust_7="13000.00000" pt_clust_8="13000.00000" pt_clust_9="56.29084" pt_clust_10="39.01667"></scales>
<clustering>
<clus scale="   39.017">  1 10  2 -1</clus>
<clus scale="   56.291">  2  9  1 -1</clus>
<clus scale="   88.573">  5  6 -1 -1</clus>
<clus scale="   90.496">  7  8 -1 -1</clus>
<clus scale="  123.832">  2  5  1 -1</clus>
<clus scale="   39.017">  1  5  2 -1</clus>
</clustering>
</event>
<event>
10    2  0.1133532E-006  0.1721462E+03  0.7546771E-02  0.1201175E+00
         -1   -1    0    0    0  501 -0.00000000000E+00  0.00000000000E+00  0.72353246993E+02  0.72353246993E+02  0.00000000000E+00 0.  1.
          1   -1    0    0  503    0  0.00000000000E+00 -0.00000000000E+00 -0.10927539351E+04  0.10927539351E+04  0.00000000000E+00 0. -1.
         23    2    1    2    0    0  0.31305433612E+02 -0.32293476505E+02 -0.51811682238E+02  0.11294041560E+03  0.89711695227E+02 0.  0.
         23    2    1    2    0    0  0.11437140572E+03 -0.57914564357E+02 -0.23298796920E+03  0.28055625307E+03  0.89406387556E+02 0.  0.
        -13    1    3    3    0    0  0.76346548477E+01 -0.61942564622E+02 -0.32737418795E+02  0.70476292865E+02  0.00000000000E+00 0. -1.
         13    1    3    3    0    0  0.23670778764E+02  0.29649088117E+02 -0.19074263443E+02  0.42464122732E+02  0.00000000000E+00 0.  1.
        -13    1    4    4    0    0  0.15927451650E+02 -0.39341425089E+02 -0.13054237972E+03  0.13726887610E+03  0.00000000000E+00 0. -1.
         13    1    4    4    0    0  0.98443954067E+02 -0.18573139268E+02 -0.10244558948E+03  0.14328737697E+03  0.00000000000E+00 0.  1.
         21    1    1    2  502  501 -0.21781224114E+02 -0.11270077005E+01 -0.18499797564E+01  0.21888679617E+02  0.00000000000E+00 0.  1.
         21    1    1    2  503  502 -0.12389561522E+03  0.91335048562E+02 -0.73375105687E+03  0.74972183376E+03  0.00000000000E+00 0. -1.
<scales pt_clust_5="13000.00000" pt_clust_6="13000.00000" pt_clust_7="13000.00000" pt_clust_8="13000.00000" pt_clust_9="21.81036" pt_clust_10="147.10819"></scales>
<clustering>
<clus scale="   21.810">  1  9  2 -1</clus>
<clus scale="   89.406">  7  8 -1 -1</clus>
<clus scale="   89.712">  5  6 -1 -1</clus>
<clus scale="   97.737">  1  5  2 -1</clus>
<clus scale="  147.108">  2 10  1 -1</clus>
<clus scale="  147.108">  2  5  1 -1</clus>
</clustering>
</event>
<event>
10    2  0.1133532E-006  0.2229144E+03  0.7546771E-02  0.1131976E+00
         -1   -1    0    0    0  501 -0.00000000000E+00  0.00000000000E+00  0.93229173461E+02  0.93229173461E+02  0.00000000000E+00 0.  1.
          1   -1    0    0  503    0  0.00000000000E+00 -0.00000000000E+00 -0.83525591994E+03  0.83525591994E+03  0.00000000000E+00 0. -1.
         23    2    1    2    0    0  0.21633246025E+03 -0.27338957104E+02 -0.39039219370E+03  0.45644014708E+03  0.91566320392E+02 0.  0.
         23    2    1    2    0    0 -0.18724855221E+03 -0.14292057022E+02 -0.25207698846E+03  0.32649085561E+03  0.88245042270E+02 0.  0.
        -11    1    4    4    0    0 -0.28997103338E+02 -0.34294817997E+02 -0.34126200509E+02  0.56405355283E+02  0.00000000000E+00 0. -1.
         11    1    4    4    0    0 -0.15825144887E+03  0.20002760974E+02 -0.21795078796E+03  0.27008550033E+03  0.00000000000E+00 0.  1.
        -11    1    3    3    0    0  0.31810339454E+02  0.29242103122E+02 -0.63006457352E+02  0.76399031141E+02  0.00000000000E+00 0.  1.
         11    1    3    3    0    0  0.18452212080E+03 -0.56581060226E+02 -0.32738573634E+03  0.38004111594E+03  0.00000000000E+00 0. -1.
         21    1    1    2  502  501 -0.52572262181E+02  0.27919922381E+02 -0.22160233868E+02  0.63517247907E+02  0.00000000000E+00 0.  1.
         21    1    1    2  503  502  0.23488354141E+02  0.13711091745E+02 -0.77397330450E+02  0.82036842808E+02  0.00000000000E+00 0.  1.
<scales pt_clust_5="13000.00000" pt_clust_6="13000.00000" pt_clust_7="13000.00000" pt_clust_8="13000.00000" pt_clust_9="58.72924" pt_clust_10="27.19737"></scales>
<clustering>
<clus scale="   27.197">  2 10  1 -1</clus>
<clus scale="   58.729">  1  9  2 -1</clus>
<clus scale="   88.245">  5  6 -1 -1</clus>
<clus scale="   91.566">  7  8 -1 -1</clus>
<clus scale="  221.571">  2  5  1 -1</clus>
<clus scale="   27.197">  2  5  1 -1</clus>
</clustering>
</event>
<event>
10    2  0.1133532E-006  0.1585755E+03  0.7546771E-02  0.1190442E+00
         -1   -1    0    0    0  501 -0.00000000000E+00  0.00000000000E+00  0.42093990435E+03  0.42093990435E+03  0.00000000000E+00 0.  1.
          1   -1    0    0  503    0  0.00000000000E+00 -0.00000000000E+00 -0.17577328179E+03  0.17577328179E+03  0.00000000000E+00 0. -1.
         23    2    1    2    0    0 -0.38972221357E+02 -0.11505072523E+03  0.24429166527E+03  0.28713246849E+03  0.89504934663E+02 0.  0.
         23    2    1    2    0    0  0.68398517311E+02  0.12054549896E+03  0.48758823629E+02  0.17245062223E+03  0.90289643560E+02 0.  0.
        -13    1    4    4    0    0  0.39928882461E+02  0.77415143189E+02  0.74587288209E+02  0.11467643006E+03  0.00000000000E+00 0.  1.
         13    1    4    4    0    0  0.28469634850E+02  0.43130355773E+02 -0.25828464580E+02  0.57774192163E+02  0.00000000000E+00 0. -1.
        -13    1    3    3    0    0 -0.33212036722E+02  0.21202639977E+01  0.46811396350E+02  0.57435544141E+02  0.00000000000E+00 0. -1.
         13    1    3    3    0    0 -0.57601846351E+01 -0.11717098923E+03  0.19748026892E+03  0.22969692435E+03  0.00000000000E+00 0.  1.
         21    1    1    2  502  501  0.15643730051E+02 -0.17195643040E+02  0.35026445068E+02  0.42038890132E+02  0.00000000000E+00 0.  1.
         21    1    1    2  503  502 -0.45070026005E+02  0.11700869310E+02 -0.82910311403E+02  0.95091205290E+02  0.00000000000E+00 0.  1.
<scales pt_clust_5="13000.00000" pt_clust_6="13000.00000" pt_clust_7="13000.00000" pt_clust_8="13000.00000" pt_clust_9="23.24686" pt_clust_10="46.25459"></scales>
<clustering>
<clus scale="   23.247">  1  9  2 -1</clus>
<clus scale="   46.255">  2 10  1 -1</clus>
<clus scale="   89.505">  7  8 -1 -1</clus>
<clus scale="   90.290">  5  6 -1 -1</clus>
<clus scale="  158.130">  1  7  2 -1</clus>
<clus scale="   46.255">  2  5  1 -1</clus>
</clustering>
</event>
<event>
10    2  0.1133532E-006  0.1114426E+03  0.7546771E-02  0.1259488E+00
         -1   -1    0    0    0  501 -0.00000000000E+00  0.00000000000E+00  0.50043279010E+03  0.50043279010E+03  0.00000000000E+00 0.  1.
          1   -1    0    0  503    0  0.00000000000E+00 -0.00000000000E+00 -0.44252011216E+02  0.44252011216E+02  0.00000000000E+00 0. -1.
         23    2    1    2    0    0  0.27121545690E+02 -0.79836855751E+02  0.25025691564E+03  0.28061578269E+03  0.94906226838E+02 0.  0.
         23    2    1    2    0    0 -0.16113435688E+02  0.28572425338E+02  0.11906272787E+03  0.15334967345E+03  0.90907441274E+02 0.  0.
        -11    1    4    4    0    0 -0.46642253787E+02  0.39325597267E+02  0.95462599808E+02  0.11329214624E+03  0.00000000000E+00 0.  1.
         11    1    4    4    0    0  0.30528818098E+02 -0.10753171929E+02  0.23600128065E+02  0.40057527204E+02  0.00000000000E+00 0. -1.
        -13    1    3    3    0    0  0.42867838112E+02 -0.48376478390E+02  0.63627820627E+02  0.90699695499E+02  0.00000000000E+00 0. -1.
         13    1    3    3    0    0 -0.15746292423E+02 -0.31460377361E+02  0.18662909501E+03  0.18991608719E+03  0.00000000000E+00 0.  1.
         21    1    1    2  502  501  0.11115169018E+02  0.18937959239E+02  0.58133120873E+02  0.62142200032E+02  0.00000000000E+00 0.  1.
         21    1    1    2  503  502 -0.22123279019E+02  0.32326471175E+02  0.28728014494E+02  0.48577145140E+02  0.00000000000E+00 0. -1.
<scales pt_clust_5="13000.00000" pt_clust_6="13000.00000" pt_clust_7="13000.00000" pt_clust_8="13000.00000" pt_clust_9="21.95890" pt_clust_10="40.03085"></scales>
<clustering>
<clus scale="   21.959">  1  9  2 -1</clus>
<clus scale="   40.031">  2 10  1 -1</clus>
<clus scale="   90.907">  5  6 -1 -1</clus>
<clus scale="   94.906">  7  8 -1 -1</clus>
<clus scale="  108.058">  2  5  1 -1</clus>
<clus scale="   40.031">  2  5  1 -1</clus>
</clustering>
</event>
<event>
10    2  0.1133532E-006  0.1724202E+03  0.7546771E-02  0.1176449E+00
          2   -1    0    0  503    0  0.00000000000E+00  0.00000000000E+00  0.63759873957E+03  0.63759873957E+03  0.00000000000E+00 0. -1.
         -2   -1    0    0    0  501 -0.00000000000E+00 -0.00000000000E+00 -0.11752833075E+03  0.11752833075E+03  0.00000000000E+00 0.  1.
         23    2    1    2    0    0  0.39787921041E+02 -0.11264307808E+03  0.45218061916E+02  0.14784375234E+03  0.74441656905E+02 0.  0.
         23    2    1    2    0    0 -0.56662960496E+02  0.17984035651E+03  0.13716925394E+03  0.24770339098E+03  0.83596176676E+02 0.  0.
        -11    1    3    3    0    0  0.55923868820E+02 -0.49207442652E+02  0.31967621706E+02  0.81060350071E+02  0.00000000000E+00 0.  1.
         11    1    3    3    0    0 -0.16135947779E+02 -0.63435635433E+02  0.13250440210E+02  0.66783402274E+02  0.00000000000E+00 0. -1.
        -13    1    4    4    0    0 -0.61320797582E+02  0.12617549058E+03  0.57680902623E+02  0.15168250119E+03  0.00000000000E+00 0.  1.
         13    1    4    4    0    0  0.46578370856E+01  0.53664865933E+02  0.79488351315E+02  0.96020889793E+02  0.00000000000E+00 0. -1.
         21    1    1    2  502  501  0.22291311757E+02 -0.27264465942E+02  0.22412256232E+02  0.41744016486E+02  0.00000000000E+00 0. -1.
         21    1    1    2  503  502 -0.54162723022E+01 -0.39932812488E+02  0.31527083673E+03  0.31783591051E+03  0.00000000000E+00 0. -1.
<scales pt_clust_5="13000.00000" pt_clust_6="13000.00000" pt_clust_7="13000.00000" pt_clust_8="13000.00000" pt_clust_9="35.21724" pt_clust_10="40.58523"></scales>
<clustering>
<clus scale="   35.217">  2  9  1 -1</clus>
<clus scale="   40.585">  1 10  2 -1</clus>
<clus scale="   74.442">  5  6 -1 -1</clus>
<clus scale="   83.596">  7  8 -1 -1</clus>
<clus scale="  168.172">  2  5  1 -1</clus>
<clus scale="   40.585">  1  5  2 -1</clus>
</clustering>
</event>
<event>
10    2  0.1133532E-006  0.1694490E+03  0.7546771E-02  0.1192524E+00
          3   -1    0    0  503    0  0.00000000000E+00  0.00000000000E+00  0.19804051003E+03  0.19804051003E+03  0.00000000000E+00 0. -1.
         -3   -1    0    0    0  501 -0.00000000000E+00 -0.00000000000E+00 -0.45153325747E+03  0.45153325747E+03  0.00000000000E+00 0.  1.
         23    2    1    2    0    0 -0.83313182751E+02  0.66556644879E+02 -0.21120423695E+03  0.25212641845E+03  0.87118469793E+02 0.  0.
         23    2    1    2    0    0  0.20083612055E+02  0.73438568650E+02 -0.49703739696E+02  0.12918988240E+03  0.91776844226E+02 0.  0.
        -11    1    4    4    0    0  0.51154506468E+02  0.15493748034E+02 -0.20488464660E+02  0.57241741275E+02  0.00000000000E+00 0.  1.
         11    1    4    4    0    0 -0.31070894413E+02  0.57944820615E+02 -0.29215275037E+02  0.71948141124E+02  0.00000000000E+00 0. -1.
        -13    1    3    3    0    0 -0.87677276662E+02  0.44312193312E+02 -0.20692052676E+03  0.22905671724E+03  0.00000000000E+00 0.  1.
         13    1    3    3    0    0  0.43640939108E+01  0.22244451567E+02 -0.42837101942E+01  0.23069701216E+02  0.00000000000E+00 0. -1.
         21    1    1    2  502  501 -0.29675917924E+02  0.38253286330E+02 -0.38755271987E+02  0.62015684520E+02  0.00000000000E+00 0. -1.
         21    1    1    2  503  502  0.92905488620E+02 -0.17824849986E+03  0.46170501196E+02  0.20624178213E+03  0.00000000000E+00 0. -1.
<scales pt_clust_5="13000.00000" pt_clust_6="13000.00000" pt_clust_7="13000.00000" pt_clust_8="13000.00000" pt_clust_9="48.41461" pt_clust_10="145.33866"></scales>
<clustering>
<clus scale="   48.415">  2  9  1 -1</clus>
<clus scale="   87.118">  7  8 -1 -1</clus>
<clus scale="   91.777">  5  6 -1 -1</clus>
<clus scale="  123.787">  1  5  2 -1</clus>
<clus scale="  145.339">  1 10  2 -1</clus>
<clus scale="  123.787">  1  5  2 -1</clus>
</clustering>
</event>
<event>
10    2  0.1133532E-006  0.9350698E+02  0.7546771E-02  0.1295466E+00
         -1   -1    0    0    0  501 -0.00000000000E+00  0.00000000000E+00  0.98781673702E+02  0.98781673702E+02  0.00000000000E+00 0.  1.
          1   -1    0    0  503    0  0.00000000000E+00 -0.00000000000E+00 -0.18640945579E+03  0.18640945579E+03  0.00000000000E+00 0. -1.
         23    2    1    2    0    0 -0.48294533559E+02 -0.13694188851E+02  0.10709263302E+02  0.10287331114E+03  0.89153446621E+02 0.  0.
         23    2    1    2    0    0  0.81893461682E+01 -0.11893653993E+02 -0.83160853839E+02  0.12160410083E+03  0.87540306891E+02 0.  0.
        -11    1    3    3    0    0 -0.63785115510E+02  0.17533633370E+02 -0.82366891840E+00  0.66156236971E+02  0.00000000000E+00 0. -1.
         11    1    3    3    0    0  0.15490581951E+02 -0.31227822221E+02  0.11532932221E+02  0.36717074168E+02  0.00000000000E+00 0.  1.
        -13    1    4    4    0    0  0.25265050590E+02 -0.37867414160E+02 -0.17158612096E+02  0.48648553992E+02  0.00000000000E+00 0.  1.
         13    1    4    4    0    0 -0.17075704422E+02  0.25973760167E+02 -0.66002241743E+02  0.72955546834E+02  0.00000000000E+00 0. -1.
         21    1    1    2  502  501  0.20260772896E+02  0.40790507196E+01  0.92039263834E+01  0.22624098523E+02  0.00000000000E+00 0.  1.
         21    1    1    2  503  502  0.19844414495E+02  0.21508792125E+02 -0.24380117936E+02  0.38089619004E+02  0.00000000000E+00 0. -1.
<scales pt_clust_5="13000.00000" pt_clust_6="13000.00000" pt_clust_7="13000.00000" pt_clust_8="13000.00000" pt_clust_9="20.66731" pt_clust_10="30.66567"></scales>
<clustering>
<clus scale="   20.667">  1  9  2 -1</clus>
<clus scale="   30.666">  2 10  1 -1</clus>
<clus scale="   87.540">  7  8 -1 -1</clus>
<clus scale="   89.153">  5  6 -1 -1</clus>
<clus scale="   91.970">  2  7  1 -1</clus>
<clus scale="   30.666">  2  5  1 -1</clus>
</clustering>
</event>
<event>
10    2  0.1133532E-006  0.1318997E+03  0.7546771E-02  0.1236408E+00
         -1   -1    0    0    0  501 -0.00000000000E+00  0.00000000000E+00  0.19787116532E+03  0.19787116532E+03  0.00000000000E+00 0.  1.
          1   -1    0    0  503    0  0.00000000000E+00 -0.00000000000E+00 -0.44512507165E+03  0.44512507165E+03  0.00000000000E+00 0. -1.
         23    2    1    2    0    0  0.35501315606E+02 -0.59178776967E+01  0.11158763964E+03  0.14762187900E+03  0.89694220282E+02 0.  0.
         23    2    1    2    0    0 -0.41545713290E+02  0.59543578293E+02 -0.36303536923E+03  0.38960558082E+03  0.12135215402E+03 0.  0.
        -11    1    4    4    0    0  0.13702301828E+02  0.69617265607E+02 -0.11368757687E+03  0.13401187216E+03  0.00000000000E+00 0.  1.
         11    1    4    4    0    0 -0.55248015119E+02 -0.10073687315E+02 -0.24934779236E+03  0.25559370866E+03  0.00000000000E+00 0. -1.
        -11    1    3    3    0    0 -0.20348553917E+02  0.25245599670E+02  0.32482696000E+02  0.45896944219E+02  0.00000000000E+00 0. -1.
         11    1    3    3    0    0  0.55849869523E+02 -0.31163477366E+02  0.79104943638E+02  0.10172493478E+03  0.00000000000E+00 0.  1.
         21    1    1    2  502  501 -0.29114519157E+00 -0.33729919899E+02  0.47169454231E+02  0.57989220329E+02  0.00000000000E+00 0. -1.
         21    1    1    2  503  502  0.63355428757E+01 -0.19895780697E+02 -0.42975630972E+02  0.47779556826E+02  0.00000000000E+00 0.  1.
<scales pt_clust_5="13000.00000" pt_clust_6="13000.00000" pt_clust_7="13000.00000" pt_clust_8="13000.00000" pt_clust_9="33.99979" pt_clust_10="20.88016"></scales>
<clustering>
<clus scale="   20.880">  2 10  1 -1</clus>
<clus scale="   34.000">  1  9  2 -1</clus>
<clus scale="   89.694">  7  8 -1 -1</clus>
<clus scale="  103.519">  1  7  2 -1</clus>
<clus scale="  121.352">  5  6 -1 -1</clus>
<clus scale="   20.880">  2  5  1 -1</clus>
</clustering>
</event>
<event>
10    2  0.1133532E-006  0.1122165E+03  0.7546771E-02  0.1266360E+00
         -2   -1    0    0    0  501 -0.00000000000E+00  0.00000000000E+00  0.11318237729E+03  0.11318237729E+03  0.00000000000E+00 0.  1.
          2   -1    0    0  502    0  0.00000000000E+00 -0.00000000000E+00 -0.44937950592E+03  0.44937950592E+03  0.00000000000E+00 0. -1.
         23    2    1    2    0    0 -0.25233893035E+02 -0.73807842570E+01  0.62789163440E+02  0.12895134112E+03  0.10952051861E+03 0.  0.
         23    2    1    2    0    0 -0.22997574167E+01  0.32642528754E+02 -0.26533354691E+03  0.28184328068E+03  0.89235195867E+02 0.  0.
        -11    1    3    3    0    0 -0.65821322577E+02  0.64798010037E+01  0.21837616341E+02  0.69651387741E+02  0.00000000000E+00 0.  1.
         11    1    3    3    0    0  0.40587429541E+02 -0.13860585261E+02  0.40951547099E+02  0.59299953375E+02  0.00000000000E+00 0. -1.
        -13    1    4    4    0    0 -0.41711995549E+01  0.63487113562E+02 -0.16426110750E+03  0.17615255869E+03  0.00000000000E+00 0.  1.
         13    1    4    4    0    0  0.18714421382E+01 -0.30844584808E+02 -0.10107243941E+03  0.10569072200E+03  0.00000000000E+00 0. -1.
         21    1    1    2  502  503 -0.11654470861E+02 -0.22731024968E+02 -0.23075125005E+02  0.34423648574E+02  0.00000000000E+00 0.  1.
         21    1    1    2  503  501  0.39188121313E+02 -0.25307195281E+01 -0.11057762015E+03  0.11734361283E+03  0.00000000000E+00 0.  1.
<scales pt_clust_5="13000.00000" pt_clust_6="13000.00000" pt_clust_7="13000.00000" pt_clust_8="13000.00000" pt_clust_9="25.54459" pt_clust_10="37.06354"></scales>
<clustering>
<clus scale="   25.545">  2  9  1 -1</clus>
<clus scale="   37.064">  2 10  1 -1</clus>
<clus scale="   89.235">  7  8 -1 -1</clus>
<clus scale="   92.524">  2  7  1 -1</clus>
<clus scale="  109.521">  5  6 -1 -1</clus>
<clus scale="   25.545">  2  5  1 -1</clus>
</clustering>
</event>
<event>
10    2  0.1133532E-006  0.8416177E+02  0.7546771E-02  0.1320018E+00
         -1   -1    0    0    0  501 -0.00000000000E+00  0.00000000000E+00  0.73135091664E+02  0.73135091664E+02  0.00000000000E+00 0.  1.
          1   -1    0    0  503    0  0.00000000000E+00 -0.00000000000E+00 -0.86502294134E+03  0.86502294134E+03  0.00000000000E+00 0. -1.
         23    2    1    2    0    0 -0.74849847104E+01 -0.39369208083E+02 -0.10471515331E+03  0.13743907250E+03  0.79487582525E+02 0.  0.
         23    2    1    2    0    0  0.90601055280E+01 -0.30308224417E+02 -0.21035367680E+03  0.22835486204E+03  0.83045768691E+02 0.  0.
        -11    1    3    3    0    0  0.18611822023E+01  0.24388048510E+02 -0.25680163038E+02  0.35464231036E+02  0.00000000000E+00 0.  1.
         11    1    3    3    0    0 -0.93461669127E+01 -0.63757256593E+02 -0.79034990276E+02  0.10197484147E+03  0.00000000000E+00 0. -1.
        -13    1    4    4    0    0 -0.85257476939E+01  0.22753106998E+02 -0.11739582171E+03  0.11988399062E+03  0.00000000000E+00 0.  1.
         13    1    4    4    0    0  0.17585853222E+02 -0.53061331416E+02 -0.92957855083E+02  0.10847087142E+03  0.00000000000E+00 0. -1.
         21    1    1    2  502  501  0.23649743206E+02  0.49174637287E+01  0.42247444550E+02  0.48665576892E+02  0.00000000000E+00 0.  1.
         21    1    1    2  503  502 -0.25224864024E+02  0.64759968772E+02 -0.51906646411E+03  0.52369852156E+03  0.00000000000E+00 0.  1.
<scales pt_clust_5="13000.00000" pt_clust_6="13000.00000" pt_clust_7="13000.00000" pt_clust_8="13000.00000" pt_clust_9="24.15557" pt_clust_10="69.19314"></scales>
<clustering>
<clus scale="   24.156">  1  9  2 -1</clus>
<clus scale="   69.193">  2 10  1 -1</clus>
<clus scale="   79.488">  5  6 -1 -1</clus>
<clus scale="   80.653">  1  5  2 -1</clus>
<clus scale="   83.046">  7  8 -1 -1</clus>
<clus scale="   69.193">  2  5  1 -1</clus>
</clustering>
</event>
<event>
10    2  0.1133532E-006  0.1157582E+03  0.7546771E-02  0.1250396E+00
          4   -1    0    0  503    0  0.00000000000E+00  0.00000000000E+00  0.15901320585E+03  0.15901320585E+03  0.00000000000E+00 0. -1.
         -4   -1    0    0    0  501 -0.00000000000E+00 -0.00000000000E+00 -0.82607300404E+03  0.82607300404E+03  0.00000000000E+00 0.  1.
         23    2    1    2    0    0  0.96053110278E+02  0.92201289761E+02 -0.29862675785E+03  0.33932345792E+03  0.90747951859E+02 0.  0.
         23    2    1    2    0    0 -0.68010282940E+02 -0.35495972815E+01  0.74959850725E+02  0.13624627297E+03  0.91137640143E+02 0.  0.
        -11    1    3    3    0    0  0.85208196742E+02  0.24090690975E+02 -0.20250747109E+03  0.22102052853E+03  0.00000000000E+00 0.  1.
         11    1    3    3    0    0  0.10844913536E+02  0.68110598786E+02 -0.96119286757E+02  0.11830292939E+03  0.00000000000E+00 0. -1.
        -11    1    4    4    0    0 -0.71853811370E+01  0.35754293497E+02  0.74112925056E+01  0.37214600121E+02  0.00000000000E+00 0.  1.
         11    1    4    4    0    0 -0.60824901803E+02 -0.39303890778E+02  0.67548558220E+02  0.99031672849E+02  0.00000000000E+00 0. -1.
         21    1    1    2  502  501 -0.70634579631E+02  0.23395570989E+02 -0.34927524888E+03  0.35711314182E+03  0.00000000000E+00 0.  1.
         21    1    1    2  503  502  0.42591752293E+02 -0.11204726347E+03 -0.94117642187E+02  0.15240333718E+03  0.00000000000E+00 0. -1.
<scales pt_clust_5="13000.00000" pt_clust_6="13000.00000" pt_clust_7="13000.00000" pt_clust_8="13000.00000" pt_clust_9="74.40831" pt_clust_10="108.67321"></scales>
<clustering>
<clus scale="   74.408">  2  9  1 -1</clus>
<clus scale="   90.748">  5  6 -1 -1</clus>
<clus scale="   91.138">  7  8 -1 -1</clus>
<clus scale="  108.673">  2 10  1 -1</clus>
<clus scale="  115.452">  2  5  1 -1</clus>
<clus scale="  115.758">  1  5  2 -1</clus>
</clustering>
</event>
<event>
10    2  0.1133532E-006  0.1105458E+03  0.7546771E-02  0.1260338E+00
         -1   -1    0    0    0  501 -0.00000000000E+00  0.00000000000E+00  0.14432987812E+03  0.14432987812E+03  0.00000000000E+00 0.  1.
          1   -1    0    0  503    0  0.00000000000E+00 -0.00000000000E+00 -0.32373510216E+03  0.32373510216E+03  0.00000000000E+00 0. -1.
         23    2    1    2    0    0 -0.10197223911E+02 -0.84722969286E+02  0.41337857419E+02  0.13111822515E+03  0.90560508006E+02 0.  0.
         23    2    1    2    0    0  0.92939786165E+01  0.41377833770E+02 -0.18177011601E+03  0.20657504577E+03  0.88511983918E+02 0.  0.
        -11    1    3    3    0    0 -0.15702549414E+02 -0.23545813583E+02  0.60484955897E+02  0.66778778705E+02  0.00000000000E+00 0.  1.
         11    1    3    3    0    0  0.55053255034E+01 -0.61177155702E+02 -0.19147098478E+02  0.64339446445E+02  0.00000000000E+00 0. -1.
        -11    1    4    4    0    0 -0.14640945080E+02 -0.22769768481E+02 -0.32120440810E+02  0.42006456020E+02  0.00000000000E+00 0.  1.
         11    1    4    4    0    0  0.23934923697E+02  0.64147602251E+02 -0.14964967520E+03  0.16456858975E+03  0.00000000000E+00 0. -1.
         21    1    1    2  502  501 -0.11577589084E+02  0.23854096373E+02  0.40048467883E+02  0.48030597149E+02  0.00000000000E+00 0.  1.
         21    1    1    2  503  502  0.12480834378E+02  0.19491039142E+02 -0.79021433334E+02  0.82341112208E+02  0.00000000000E+00 0. -1.
<scales pt_clust_5="13000.00000" pt_clust_6="13000.00000" pt_clust_7="13000.00000" pt_clust_8="13000.00000" pt_clust_9="26.71566" pt_clust_10="23.14459"></scales>
<clustering>
<clus scale="   23.145">  2 10  1 -1</clus>
<clus scale="   26.716">  1  9  2 -1</clus>
<clus scale="   88.512">  7  8 -1 -1</clus>
<clus scale="   90.561">  5  6 -1 -1</clus>
<clus scale="  108.874">  2  7  1 -1</clus>
<clus scale="   23.145">  2  5  1 -1</clus>
</clustering>
</event>
<event>
10    2  0.1133532E-006  0.1848912E+03  0.7546771E-02  0.1178889E+00
          1   -1    0    0  503    0  0.00000000000E+00  0.00000000000E+00  0.10775882516E+04  0.10775882516E+04  0.00000000000E+00 0. -1.
         -1   -1    0    0    0  501 -0.00000000000E+00 -0.00000000000E+00 -0.63527586361E+03  0.63527586361E+03  0.00000000000E+00 0.  1.
         23    2    1    2    0    0  0.79096542884E+02  0.70546618123E+02  0.71147377491E+02  0.15682200794E+03  0.91093931888E+02 0.  0.
         23    2    1    2    0    0  0.24597006264E+02  0.18213121542E+03  0.44196605156E+03  0.48780033914E+03  0.94012700147E+02 0.  0.
        -13    1    4    4    0    0  0.26729717429E+02  0.24348764122E+02  0.16612273109E+03  0.17001206396E+03  0.00000000000E+00 0.  1.
         13    1    4    4    0    0 -0.21327111644E+01  0.15778245129E+03  0.27584332047E+03  0.31778827518E+03  0.00000000000E+00 0. -1.
        -13    1    3    3    0    0  0.92676419551E+02  0.37375284955E+02  0.67935747748E+02  0.12083499695E+03  0.00000000000E+00 0. -1.
         13    1    3    3    0    0 -0.13579876668E+02  0.33171333169E+02  0.32116297425E+01  0.35987010991E+02  0.00000000000E+00 0.  1.
         21    1    1    2  502  501 -0.10725002023E+03 -0.12799250100E+03 -0.54910804806E+03  0.57393753632E+03  0.00000000000E+00 0.  1.
         21    1    1    2  503  502  0.35564710774E+01 -0.12468533253E+03  0.47830700703E+03  0.49430423184E+03  0.00000000000E+00 0.  1.
<scales pt_clust_5="13000.00000" pt_clust_6="13000.00000" pt_clust_7="13000.00000" pt_clust_8="13000.00000" pt_clust_9="160.89334" pt_clust_10="124.73604"></scales>
<clustering>
<clus scale="   91.094">  7  8 -1 -1</clus>
<clus scale="   94.013">  5  6 -1 -1</clus>
<clus scale="  124.736">  1 10  2 -1</clus>
<clus scale="  129.080">  1  5  2 -1</clus>
<clus scale="  160.893">  2  9  1 -1</clus>
<clus scale="  124.736">  1  5  2 -1</clus>
</clustering>
</event>
<event>
10    2  0.1133532E-006  0.9550037E+02  0.7546771E-02  0.1291770E+00
          3   -1    0    0  502    0  0.00000000000E+00  0.00000000000E+00  0.78548368473E+02  0.78548368473E+02  0.00000000000E+00 0. -1.
         -3   -1    0    0    0  501 -0.00000000000E+00 -0.00000000000E+00 -0.22707424647E+03  0.22707424647E+03  0.00000000000E+00 0.  1.
         23    2    1    2    0    0 -0.39587674692E+00  0.27599032511E+02 -0.12660471753E+03  0.15752986692E+03  0.89582594050E+02 0.  0.
         23    2    1    2    0    0  0.92283029338E+01 -0.49810392316E+02 -0.38745607313E+01  0.10019402558E+03  0.86357360905E+02 0.  0.
        -11    1    4    4    0    0  0.66492817324E+01 -0.69866612340E+02  0.15845617623E+02  0.71948871189E+02  0.00000000000E+00 0. -1.
         11    1    4    4    0    0  0.25790212014E+01  0.20056220025E+02 -0.19720178354E+02  0.28245154387E+02  0.00000000000E+00 0.  1.
        -11    1    3    3    0    0 -0.26735330941E+02 -0.23835718361E+02 -0.44395890112E+02  0.57043092914E+02  0.00000000000E+00 0. -1.
         11    1    3    3    0    0  0.26339454195E+02  0.51434750872E+02 -0.82208827416E+02  0.10048677400E+03  0.00000000000E+00 0.  1.
         21    1    1    2  502  503  0.13886983356E+02  0.15178658868E+02 -0.77877456757E+01  0.21997476548E+02  0.00000000000E+00 0.  1.
         21    1    1    2  503  501 -0.22719409543E+02  0.70327009362E+01 -0.10258854058E+02  0.25901245897E+02  0.00000000000E+00 0.  1.
<scales pt_clust_5="13000.00000" pt_clust_6="13000.00000" pt_clust_7="13000.00000" pt_clust_8="13000.00000" pt_clust_9="20.57280" pt_clust_10="22.91279"></scales>
<clustering>
<clus scale="   20.573">  1  9  2 -1</clus>
<clus scale="   22.913">  1 10  2 -1</clus>
<clus scale="   86.357">  5  6 -1 -1</clus>
<clus scale="   89.583">  7  8 -1 -1</clus>
<clus scale="   92.482">  1  5  2 -1</clus>
<clus scale="   20.573">  1  5  2 -1</clus>
</clustering>
</event>
<event>
10    2  0.1133532E-006  0.1195497E+03  0.7546771E-02  0.1244929E+00
          1   -1    0    0  503    0  0.00000000000E+00  0.00000000000E+00  0.11616203667E+04  0.11616203667E+04  0.00000000000E+00 0. -1.
         -1   -1    0    0    0  501 -0.00000000000E+00 -0.00000000000E+00 -0.21902732729E+02  0.21902732729E+02  0.00000000000E+00 0.  1.
         23    2    1    2    0    0  0.59138682518E+02 -0.60363913163E+02  0.45085617510E+03  0.46814570666E+03  0.93530349385E+02 0.  0.
         23    2    1    2    0    0 -0.76713898343E+02  0.42733820208E+01  0.45690182506E+03  0.47201405048E+03  0.90192583507E+02 0.  0.
        -11    1    3    3    0    0  0.37656030791E+02 -0.84715404096E+02  0.35654186604E+03  0.36839758222E+03  0.00000000000E+00 0. -1.
         11    1    3    3    0    0  0.21482651727E+02  0.24351490933E+02  0.94314309061E+02  0.99748124441E+02  0.00000000000E+00 0.  1.
        -11    1    4    4    0    0 -0.72049496901E+02 -0.33008000046E+02  0.34453254760E+03  0.35352982113E+03  0.00000000000E+00 0. -1.
         11    1    4    4    0    0 -0.46644014418E+01  0.37281382067E+02  0.11236927746E+03  0.11848422936E+03  0.00000000000E+00 0.  1.
         21    1    1    2  502  501 -0.87574077454E+01  0.22159056635E+02  0.39172850701E+02  0.45850062306E+02  0.00000000000E+00 0.  1.
         21    1    1    2  503  502  0.26332623570E+02  0.33931474508E+02  0.19278678315E+03  0.19751328002E+03  0.00000000000E+00 0.  1.
<scales pt_clust_5="13000.00000" pt_clust_6="13000.00000" pt_clust_7="13000.00000" pt_clust_8="13000.00000" pt_clust_9="23.82679" pt_clust_10="44.57211"></scales>
<clustering>
<clus scale="   23.827">  2  9  1 -1</clus>
<clus scale="   44.572">  1 10  2 -1</clus>
<clus scale="   90.193">  7  8 -1 -1</clus>
<clus scale="   93.530">  5  6 -1 -1</clus>
<clus scale="  116.957">  1  7  2 -1</clus>
<clus scale="   44.572">  1  5  2 -1</clus>
</clustering>
</event>
<event>
10    2  0.1133532E-006  0.1863037E+03  0.7546771E-02  0.1175505E+00
         -2   -1    0    0    0  501 -0.00000000000E+00  0.00000000000E+00  0.50319379489E+03  0.50319379489E+03  0.00000000000E+00 0.  1.
          2   -1    0    0  503    0  0.00000000000E+00 -0.00000000000E+00 -0.27437726926E+03  0.27437726926E+03  0.00000000000E+00 0. -1.
         23    2    1    2    0    0 -0.13819874022E+03 -0.57493666240E+02  0.94621792522E+02  0.19956158739E+03  0.92017009757E+02 0.  0.
         23    2    1    2    0    0  0.10925876963E+03  0.17285530611E+02 -0.63686153054E+02  0.15673931817E+03  0.90967133958E+02 0.  0.
        -13    1    4    4    0    0  0.63633851946E+02  0.43643321108E+02 -0.42056017004E+01  0.77276734380E+02  0.00000000000E+00 0.  1.
         13    1    4    4    0    0  0.45624917688E+02 -0.26357790497E+02 -0.59480551354E+02  0.79462583794E+02  0.00000000000E+00 0. -1.
        -13    1    3    3    0    0 -0.14750636786E+03 -0.37271657998E+02  0.90182476498E+02  0.17686204826E+03  0.00000000000E+00 0. -1.
         13    1    3    3    0    0  0.93076276406E+01 -0.20222008241E+02  0.44393160239E+01  0.22699539122E+02  0.00000000000E+00 0.  1.
         21    1    1    2  502  501  0.16510643297E+03  0.37884633507E+02  0.22577327369E+03  0.28225688792E+03  0.00000000000E+00 0.  1.
         21    1    1    2  503  502 -0.13616646239E+03  0.23235021226E+01 -0.27892387528E+02  0.13901327068E+03  0.00000000000E+00 0. -1.
<scales pt_clust_5="13000.00000" pt_clust_6="13000.00000" pt_clust_7="13000.00000" pt_clust_8="13000.00000" pt_clust_9="161.99366" pt_clust_10="136.18628"></scales>
<clustering>
<clus scale="   90.967">  5  6 -1 -1</clus>
<clus scale="   92.017">  7  8 -1 -1</clus>
<clus scale="  136.186">  2 10  1 -1</clus>
<clus scale="  136.186">  2  5  1 -1</clus>
<clus scale="  161.994">  1  9  2 -1</clus>
<clus scale="  136.186">  2  5  1 -1</clus>
</clustering>
</event>
<event>
10    2  0.1133532E-006  0.4356918E+03  0.7546771E-02  0.1032174E+00
          4   -1    0    0  503    0  0.00000000000E+00  0.00000000000E+00  0.12719807789E+03  0.12719807789E+03  0.00000000000E+00 0. -1.
         -4   -1    0    0    0  501 -0.00000000000E+00 -0.00000000000E+00 -0.21254025627E+04  0.21254025627E+04  0.00000000000E+00 0.  1.
         23    2    1    2    0    0  0.30513261250E+03 -0.28864669232E+03 -0.10689695267E+04  0.11516624041E+04  0.84897702445E+02 0.  0.
         23    2    1    2    0    0 -0.26589768824E+03  0.32355856912E+03 -0.53866834951E+03  0.68836823087E+03  0.91079647812E+02 0.  0.
        -11    1    4    4    0    0 -0.23204869365E+03  0.22147439403E+03 -0.41367503697E+03  0.52347353290E+03  0.00000000000E+00 0.  1.
         11    1    4    4    0    0 -0.33848994584E+02  0.10208417509E+03 -0.12499331254E+03  0.16489469797E+03  0.00000000000E+00 0. -1.
        -13    1    3    3    0    0  0.25653659823E+03 -0.21494464663E+03 -0.76219899768E+03  0.83244191354E+03  0.00000000000E+00 0.  1.
         13    1    3    3    0    0  0.48596014272E+02 -0.73702045695E+02 -0.30677052903E+03  0.31922049061E+03  0.00000000000E+00 0. -1.
         21    1    1    2  502  501 -0.20195381602E+02 -0.58952360825E+02 -0.37099047236E+03  0.37618767240E+03  0.00000000000E+00 0. -1.
         21    1    1    2  503  502 -0.19039542659E+02  0.24040484027E+02 -0.19576136199E+02  0.36382333149E+02  0.00000000000E+00 0. -1.
<scales pt_clust_5="13000.00000" pt_clust_6="13000.00000" pt_clust_7="13000.00000" pt_clust_8="13000.00000" pt_clust_9="61.95565" pt_clust_10="30.66674"></scales>
<clustering>
<clus scale="   30.667">  1 10  2 -1</clus>
<clus scale="   61.956">  2  9  1 -1</clus>
<clus scale="   84.898">  7  8 -1 -1</clus>
<clus scale="   91.080">  5  6 -1 -1</clus>
<clus scale="  434.442">  2  7  1 -1</clus>
<clus scale="   30.667">  1  5  2 -1</clus>
</clustering>
</event>
<event>
10    2  0.1133532E-006  0.1724797E+03  0.7546771E-02  0.1175383E+00
         -2   -1    0    0    0  501 -0.00000000000E+00  0.00000000000E+00  0.34664886402E+03  0.34664886402E+03  0.00000000000E+00 0.  1.
          2   -1    0    0  503    0  0.00000000000E+00 -0.00000000000E+00 -0.38053867108E+03  0.38053867108E+03  0.00000000000E+00 0. -1.
         23    2    1    2    0    0  0.25497741176E+02  0.14916390425E+03  0.79181336619E+01  0.17773446777E+03  0.92880778725E+02 0.  0.
         23    2    1    2    0    0 -0.70987150176E+02 -0.10133903429E+03 -0.22387224633E+03  0.27189105764E+03  0.92180199543E+02 0.  0.
        -13    1    4    4    0    0 -0.69625033920E+02 -0.24698755063E+02 -0.80133635401E+02  0.10899116190E+03  0.00000000000E+00 0.  1.
         13    1    4    4    0    0 -0.13621162560E+01 -0.76640279223E+02 -0.14373861093E+03  0.16289989574E+03  0.00000000000E+00 0. -1.
        -13    1    3    3    0    0  0.38347150501E+02  0.40282802973E+02 -0.28127115937E+02  0.62324496130E+02  0.00000000000E+00 0. -1.
         13    1    3    3    0    0 -0.12849409325E+02  0.10888110128E+03  0.36045249599E+02  0.11540997164E+03  0.00000000000E+00 0.  1.
         21    1    1    2  502  501  0.31483705769E+02 -0.14215528445E+01  0.21606728371E+03  0.21835364809E+03  0.00000000000E+00 0.  1.
         21    1    1    2  503  502  0.14005703231E+02 -0.46403317122E+02 -0.34002978117E+02  0.59208361603E+02  0.00000000000E+00 0.  1.
<scales pt_clust_5="13000.00000" pt_clust_6="13000.00000" pt_clust_7="13000.00000" pt_clust_8="13000.00000" pt_clust_9="31.51578" pt_clust_10="49.57373"></scales>
<clustering>
<clus scale="   31.516">  1  9  2 -1</clus>
<clus scale="   49.574">  2 10  1 -1</clus>
<clus scale="   92.180">  5  6 -1 -1</clus>
<clus scale="   92.881">  7  8 -1 -1</clus>
<clus scale="  172.103">  2  5  1 -1</clus>
<clus scale="   49.574">  2  5  1 -1</clus>
</clustering>
</event>
<event>
10    2  0.1133532E-006  0.9318262E+02  0.7546771E-02  0.1295683E+00
         -1   -1    0    0    0  501 -0.00000000000E+00  0.00000000000E+00  0.10578138280E+03  0.10578138280E+03  0.00000000000E+00 0.  1.
          1   -1    0    0  503    0  0.00000000000E+00 -0.00000000000E+00 -0.86441908014E+03  0.86441908014E+03  0.00000000000E+00 0. -1.
         23    2    1    2    0    0 -0.47376563942E+02  0.39626247044E+02 -0.86920218369E+02  0.14007375309E+03  0.90833659381E+02 0.  0.
         23    2    1    2    0    0  0.27826228137E+02 -0.84228262366E+01 -0.32382896659E+03  0.33775241023E+03  0.91467196498E+02 0.  0.
        -11    1    3    3    0    0  0.31367552519E+01 -0.26186441673E+02 -0.26930039045E+02  0.37693447229E+02  0.00000000000E+00 0.  1.
         11    1    3    3    0    0 -0.50513319194E+02  0.65812688718E+02 -0.59990179324E+02  0.10238030586E+03  0.00000000000E+00 0. -1.
        -13    1    4    4    0    0 -0.28596045189E+02 -0.13010151476E+02 -0.18788016160E+03  0.19048872136E+03  0.00000000000E+00 0. -1.
         13    1    4    4    0    0  0.56422273326E+02  0.45873252394E+01 -0.13594880499E+03  0.14726368887E+03  0.00000000000E+00 0.  1.
         21    1    1    2  502  501  0.74921845455E+02 -0.28368645240E+02  0.47487571112E+02  0.93129653544E+02  0.00000000000E+00 0. -1.
         21    1    1    2  503  502 -0.55371509649E+02 -0.28347755673E+01 -0.39537608349E+03  0.39924464608E+03  0.00000000000E+00 0. -1.
<scales pt_clust_5="13000.00000" pt_clust_6="13000.00000" pt_clust_7="13000.00000" pt_clust_8="13000.00000" pt_clust_9="77.63953" pt_clust_10="55.44403"></scales>
<clustering>
<clus scale="   55.444">  2 10  1 -1</clus>
<clus scale="   77.640">  1  9  2 -1</clus>
<clus scale="   90.834">  5  6 -1 -1</clus>
<clus scale="   91.467">  7  8 -1 -1</clus>
<clus scale="   92.561">  1  5  2 -1</clus>
<clus scale="   55.444">  2  5  1 -1</clus>
</clustering>
</event>
<event>
10    2  0.1133532E-006  0.1107661E+03  0.7546771E-02  0.1271385E+00
          1   -1    0    0  503    0  0.00000000000E+00  0.00000000000E+00  0.60800075985E+03  0.60800075985E+03  0.00000000000E+00 0. -1.
         -1   -1    0    0    0  501 -0.00000000000E+00 -0.00000000000E+00 -0.70078502156E+02  0.70078502156E+02  0.00000000000E+00 0.  1.
         23    2    1    2    0    0  0.81356450815E+01 -0.14931694501E+02  0.21348472219E+03  0.23934220155E+03  0.10686355137E+03 0.  0.
         23    2    1    2    0    0 -0.24815514800E+01  0.43776584316E+02  0.23469419680E+03  0.25253261972E+03  0.82272781532E+02 0.  0.
        -11    1    3    3    0    0 -0.24500316065E+02  0.27031570241E+02  0.26887207315E+02  0.45319898435E+02  0.00000000000E+00 0.  1.
         11    1    3    3    0    0  0.32635961147E+02 -0.41963264741E+02  0.18659751487E+03  0.19402230311E+03  0.00000000000E+00 0. -1.
        -11    1    4    4    0    0  0.12919499398E+02  0.64251501201E+02  0.14256791246E+03  0.15691009698E+03  0.00000000000E+00 0.  1.
         11    1    4    4    0    0 -0.15401050878E+02 -0.20474916884E+02  0.92126284339E+02  0.95622522743E+02  0.00000000000E+00 0. -1.
         21    1    1    2  502  501 -0.29265989388E+02 -0.17948558859E+01 -0.41120797848E+02  0.50503857855E+02  0.00000000000E+00 0.  1.
         21    1    1    2  503  502  0.23611895787E+02 -0.27050033930E+02  0.13086413655E+03  0.13570058288E+03  0.00000000000E+00 0. -1.
<scales pt_clust_5="13000.00000" pt_clust_6="13000.00000" pt_clust_7="13000.00000" pt_clust_8="13000.00000" pt_clust_9="29.32098" pt_clust_10="34.20107"></scales>
<clustering>
<clus scale="   29.321">  2  9  1 -1</clus>
<clus scale="   34.201">  1 10  2 -1</clus>
<clus scale="   82.273">  7  8 -1 -1</clus>
<clus scale="   87.282">  1  7  2 -1</clus>
<clus scale="  106.864">  5  6 -1 -1</clus>
<clus scale="   34.201">  1  5  2 -1</clus>
</clustering>
</event>
<event>
10    2  0.1133532E-006  0.9390456E+02  0.7546771E-02  0.1295349E+00
         -2   -1    0    0    0  501 -0.00000000000E+00  0.00000000000E+00  0.29072214684E+03  0.29072214684E+03  0.00000000000E+00 0.  1.
          2   -1    0    0  503    0  0.00000000000E+00 -0.00000000000E+00 -0.41282003933E+03  0.41282003933E+03  0.00000000000E+00 0. -1.
         23    2    1    2    0    0 -0.57836449473E+02  0.18394740677E+02  0.11197852966E+03  0.15555191857E+03  0.89296063158E+02 0.  0.
         23    2    1    2    0    0 -0.38400671496E+01 -0.17489620745E+02 -0.33073305776E+03  0.34382373751E+03  0.92248436472E+02 0.  0.
        -11    1    3    3    0    0 -0.55737579054E+02  0.47041801732E+02  0.53676345379E+02  0.90558041510E+02  0.00000000000E+00 0. -1.
         11    1    3    3    0    0 -0.20988704192E+01 -0.28647061055E+02  0.58302184277E+02  0.64993877062E+02  0.00000000000E+00 0.  1.
        -13    1    4    4    0    0 -0.35116602634E+02  0.17784321388E+02 -0.21967711474E+03  0.22317592300E+03  0.00000000000E+00 0. -1.
         13    1    4    4    0    0  0.31276535485E+02 -0.35273942133E+02 -0.11105594302E+03  0.12064781451E+03  0.00000000000E+00 0.  1.
         21    1    1    2  502  501  0.13571920991E+02 -0.55831986095E+02  0.11528827955E+03  0.12881302385E+03  0.00000000000E+00 0. -1.
         21    1    1    2  503  502  0.48104595631E+02  0.54926866162E+02 -0.18631643939E+02  0.75353506243E+02  0.00000000000E+00 0. -1.
<scales pt_clust_5="13000.00000" pt_clust_6="13000.00000" pt_clust_7="13000.00000" pt_clust_8="13000.00000" pt_clust_9="57.45788" pt_clust_10="67.91629"></scales>
<clustering>
<clus scale="   57.458">  1  9  2 -1</clus>
<clus scale="   67.916">  1 10  2 -1</clus>
<clus scale="   89.296">  5  6 -1 -1</clus>
<clus scale="   91.006">  1  5  2 -1</clus>
<clus scale="   92.248">  7  8 -1 -1</clus>
<clus scale="   93.905">  2  5  1 -1</clus>
</clustering>
</event>
<event>
10    2  0.1133532E-006  0.1034800E+03  0.7546771E-02  0.1275378E+00
         -1   -1    0    0    0  501 -0.00000000000E+00  0.00000000000E+00  0.36984444849E+02  0.36984444849E+02  0.00000000000E+00 0.  1.
          1   -1    0    0  503    0  0.00000000000E+00 -0.00000000000E+00 -0.61588537633E+03  0.61588537633E+03  0.00000000000E+00 0. -1.
         23    2    1    2    0    0  0.18037625778E+02  0.28506419620E+02 -0.93624963815E+02  0.13212473853E+03  0.86909957888E+02 0.  0.
         23    2    1    2    0    0 -0.72653845041E+02  0.19207066088E+01 -0.33122802304E+03  0.35132344282E+03  0.91836201535E+02 0.  0.
        -13    1    3    3    0    0  0.11481718509E+02  0.52542405356E+02 -0.92726090478E+02  0.10719450581E+03  0.00000000000E+00 0. -1.
         13    1    3    3    0    0  0.65559072695E+01 -0.24035985736E+02 -0.89887333723E+00  0.24930232724E+02  0.00000000000E+00 0.  1.
        -13    1    4    4    0    0 -0.43070482092E+02 -0.30858184459E+02 -0.27381922870E+03  0.27889830402E+03  0.00000000000E+00 0.  1.
         13    1    4    4    0    0 -0.29583362949E+02  0.32778891068E+02 -0.57408794337E+02  0.72425138801E+02  0.00000000000E+00 0. -1.
         21    1    1    2  502  501  0.32721261962E+02 -0.28067963419E+02 -0.67311476340E+02  0.79933262175E+02  0.00000000000E+00 0.  1.
         21    1    1    2  503  502  0.21894957300E+02 -0.23591628100E+01 -0.86736468289E+02  0.89488377657E+02  0.00000000000E+00 0. -1.
<scales pt_clust_5="13000.00000" pt_clust_6="13000.00000" pt_clust_7="13000.00000" pt_clust_8="13000.00000" pt_clust_9="45.67583" pt_clust_10="22.02169"></scales>
<clustering>
<clus scale="   22.022">  2 10  1 -1</clus>
<clus scale="   45.676">  1  9  2 -1</clus>
<clus scale="   86.910">  5  6 -1 -1</clus>
<clus scale="   91.836">  7  8 -1 -1</clus>
<clus scale="   99.134">  1  5  2 -1</clus>
<clus scale="   22.022">  2  5  1 -1</clus>
</clustering>
</event>
<event>
10    2  0.1133532E-006  0.1150970E+03  0.7546771E-02  0.1255133E+00
         -2   -1    0    0    0  501 -0.00000000000E+00  0.00000000000E+00  0.78672868276E+02  0.78672868276E+02  0.00000000000E+00 0.  1.
          2   -1    0    0  503    0  0.00000000000E+00 -0.00000000000E+00 -0.67969462890E+03  0.67969462890E+03  0.00000000000E+00 0. -1.
         23    2    1    2    0    0 -0.16888527215E+02 -0.51188734162E+02 -0.22799983421E+03  0.25517064477E+03  0.10110699627E+03 0.  0.
         23    2    1    2    0    0  0.53598388281E+02  0.23922791690E+02 -0.37122987488E+03  0.38685662406E+03  0.91658826051E+02 0.  0.
        -11    1    3    3    0    0 -0.54458399597E+02 -0.30969375955E+02 -0.82785831063E+02  0.10381865612E+03  0.00000000000E+00 0.  1.
         11    1    3    3    0    0  0.37569872382E+02 -0.20219358208E+02 -0.14521400315E+03  0.15135198865E+03  0.00000000000E+00 0. -1.
        -13    1    4    4    0    0  0.56991315662E+02  0.53158214346E+02 -0.23879841714E+03  0.25119412780E+03  0.00000000000E+00 0. -1.
         13    1    4    4    0    0 -0.33929273809E+01 -0.29235422656E+02 -0.13243145774E+03  0.13566249626E+03  0.00000000000E+00 0.  1.
         21    1    1    2  502  501 -0.34775483851E+02  0.38519322678E+01  0.49097818466E+02  0.60289032480E+02  0.00000000000E+00 0.  1.
         21    1    1    2  503  502 -0.19343772144E+01  0.23414010205E+02 -0.50889869998E+02  0.56051195861E+02  0.00000000000E+00 0.  1.
<scales pt_clust_5="13000.00000" pt_clust_6="13000.00000" pt_clust_7="13000.00000" pt_clust_8="13000.00000" pt_clust_9="35.02898" pt_clust_10="23.49378"></scales>
<clustering>
<clus scale="   23.494">  2 10  1 -1</clus>
<clus scale="   35.029">  1  9  2 -1</clus>
<clus scale="   91.659">  7  8 -1 -1</clus>
<clus scale="  101.107">  5  6 -1 -1</clus>
<clus scale="  106.893">  2  7  1 -1</clus>
<clus scale="   23.494">  2  5  1 -1</clus>
</clustering>
</event>
<event>
10    2  0.1133532E-006  0.1134600E+03  0.7546771E-02  0.1259992E+00
         -1   -1    0    0    0  501 -0.00000000000E+00  0.00000000000E+00  0.34060626165E+03  0.34060626165E+03  0.00000000000E+00 0.  1.
          1   -1    0    0  503    0  0.00000000000E+00 -0.00000000000E+00 -0.59904315236E+02  0.59904315236E+02  0.00000000000E+00 0. -1.
         23    2    1    2    0    0 -0.62368489076E+02 -0.50042155942E+01  0.21209354458E+03  0.23873740710E+03  0.89983372308E+02 0.  0.
         23    2    1    2    0    0  0.57449627531E+02  0.22065598697E+02  0.33009669842E+02  0.10188066699E+03  0.74180062379E+02 0.  0.
        -11    1    4    4    0    0  0.72139916278E+02  0.53801330054E+01  0.33326058563E+02  0.79647595890E+02  0.00000000000E+00 0. -1.
         11    1    4    4    0    0 -0.14690288747E+02  0.16685465692E+02 -0.31638872125E+00  0.22233071103E+02  0.00000000000E+00 0.  1.
        -11    1    3    3    0    0 -0.53873932960E+00 -0.38233860312E+02  0.92078211244E+02  0.99702132877E+02  0.00000000000E+00 0. -1.
         11    1    3    3    0    0 -0.61829749747E+02  0.33229644718E+02  0.12001533333E+03  0.13903527422E+03  0.00000000000E+00 0.  1.
         21    1    1    2  502  501 -0.15122293246E+02 -0.17812563840E+02  0.31830879977E+02  0.39486404035E+02  0.00000000000E+00 0.  1.
         21    1    1    2  503  502  0.20041154791E+02  0.75118073620E+00  0.37678520167E+01  0.20406098762E+02  0.00000000000E+00 0. -1.
<scales pt_clust_5="13000.00000" pt_clust_6="13000.00000" pt_clust_7="13000.00000" pt_clust_8="13000.00000" pt_clust_9="22.38801" pt_clust_10="20.05523"></scales>
<clustering>
<clus scale="   20.055">  2 10  1 -1</clus>
<clus scale="   22.388">  1  9  2 -1</clus>
<clus scale="   74.180">  5  6 -1 -1</clus>
<clus scale="   89.983">  7  8 -1 -1</clus>
<clus scale="  101.385">  2  5  1 -1</clus>
<clus scale="   20.055">  2  5  1 -1</clus>
</clustering>
</event>
<event>
10    2  0.1133532E-006  0.1552713E+03  0.7546771E-02  0.1216755E+00
          1   -1    0    0  503    0  0.00000000000E+00  0.00000000000E+00  0.10969054150E+04  0.10969054150E+04  0.00000000000E+00 0. -1.
         -1   -1    0    0    0  501 -0.00000000000E+00 -0.00000000000E+00 -0.65479745808E+02  0.65479745808E+02  0.00000000000E+00 0.  1.
         23    2    1    2    0    0  0.22302565395E+01  0.27914116872E+02  0.13162334760E+03  0.16171928018E+03  0.89689731768E+02 0.  0.
         23    2    1    2    0    0  0.11090930113E+03  0.30508528053E+02  0.86475847825E+02  0.17042670028E+03  0.91299203443E+02 0.  0.
        -13    1    4    4    0    0  0.77488008563E+02  0.34950387434E+02  0.84453337290E+01  0.85423911843E+02  0.00000000000E+00 0.  1.
         13    1    4    4    0    0  0.33421292568E+02 -0.44418593801E+01  0.78030514096E+02  0.85002788435E+02  0.00000000000E+00 0. -1.
        -13    1    3    3    0    0  0.12649800837E+02  0.58671294372E+02  0.98407038042E+02  0.11526614152E+03  0.00000000000E+00 0.  1.
         13    1    3    3    0    0 -0.10419544298E+02 -0.30757177500E+02  0.33216309559E+02  0.46453138665E+02  0.00000000000E+00 0. -1.
         21    1    1    2  502  501 -0.11754535489E+02  0.19489901751E+02  0.36901259433E+02  0.43355833778E+02  0.00000000000E+00 0.  1.
         21    1    1    2  503  502 -0.10138502218E+03 -0.77912546677E+02  0.77642521435E+03  0.78688334658E+03  0.00000000000E+00 0. -1.
<scales pt_clust_5="13000.00000" pt_clust_6="13000.00000" pt_clust_7="13000.00000" pt_clust_8="13000.00000" pt_clust_9="22.76017" pt_clust_10="125.59317"></scales>
<clustering>
<clus scale="   22.760">  2  9  1 -1</clus>
<clus scale="   89.690">  7  8 -1 -1</clus>
<clus scale="   91.299">  5  6 -1 -1</clus>
<clus scale="   95.441">  2  7  1 -1</clus>
<clus scale="  125.593">  1 10  2 -1</clus>
<clus scale="  125.593">  1  5  2 -1</clus>
</clustering>
</event>
<event>
10    2  0.1133532E-006  0.1085554E+03  0.7546771E-02  0.1263383E+00
         -1   -1    0    0    0  501 -0.00000000000E+00  0.00000000000E+00  0.21063872978E+03  0.21063872978E+03  0.00000000000E+00 0.  1.
          1   -1    0    0  503    0  0.00000000000E+00 -0.00000000000E+00 -0.15474255319E+03  0.15474255319E+03  0.00000000000E+00 0. -1.
         23    2    1    2    0    0 -0.14816877116E+02 -0.31434653467E+02  0.45495785915E+02  0.10914950921E+03  0.92930466146E+02 0.  0.
         23    2    1    2    0    0 -0.31752248138E+02  0.84250374219E+02  0.57119478264E+02  0.14125365731E+03  0.92647882265E+02 0.  0.
        -11    1    3    3    0    0  0.13362398599E+02  0.25715207740E+02  0.33526822185E+02  0.44315611371E+02  0.00000000000E+00 0.  1.
         11    1    3    3    0    0 -0.28179275715E+02 -0.57149861207E+02  0.11968963730E+02  0.64833897835E+02  0.00000000000E+00 0. -1.
        -13    1    4    4    0    0 -0.10874395373E+02  0.92806362805E+02  0.68617912789E+02  0.11592968303E+03  0.00000000000E+00 0.  1.
         13    1    4    4    0    0 -0.20877852765E+02 -0.85559885863E+01 -0.11498434525E+02  0.25323974279E+02  0.00000000000E+00 0. -1.
         21    1    1    2  502  501  0.18484018375E+02 -0.13415325329E+02  0.21483403942E+02  0.31355486504E+02  0.00000000000E+00 0.  1.
         21    1    1    2  503  502  0.28085106879E+02 -0.39400395423E+02 -0.68202491531E+02  0.83622629945E+02  0.00000000000E+00 0. -1.
<scales pt_clust_5="13000.00000" pt_clust_6="13000.00000" pt_clust_7="13000.00000" pt_clust_8="13000.00000" pt_clust_9="22.83922" pt_clust_10="49.29276"></scales>
<clustering>
<clus scale="   22.839">  1  9  2 -1</clus>
<clus scale="   49.293">  2 10  1 -1</clus>
<clus scale="   92.648">  7  8 -1 -1</clus>
<clus scale="   92.930">  5  6 -1 -1</clus>
<clus scale="  108.314">  2  7  1 -1</clus>
<clus scale="   49.293">  2  5  1 -1</clus>
</clustering>
</event>
<event>
10    2  0.1133532E-006  0.2388406E+03  0.7546771E-02  0.1121177E+00
          1   -1    0    0  503    0  0.00000000000E+00  0.00000000000E+00  0.19318911740E+03  0.19318911740E+03  0.00000000000E+00 0. -1.
         -1   -1    0    0    0  501 -0.00000000000E+00 -0.00000000000E+00 -0.68149220138E+03  0.68149220138E+03  0.00000000000E+00 0.  1.
         23    2    1    2    0    0  0.17125689355E+03 -0.86676740026E+02 -0.46313058930E+03  0.50890891012E+03  0.87501743992E+02 0.  0.
         23    2    1    2    0    0 -0.21442236023E+03  0.12172456018E+03  0.23151295928E+02  0.25937629888E+03  0.77112027620E+02 0.  0.
        -11    1    3    3    0    0  0.13375017743E+03 -0.21105193410E+02 -0.29786274784E+03  0.32719528680E+03  0.00000000000E+00 0.  1.
         11    1    3    3    0    0  0.37506716126E+02 -0.65571546615E+02 -0.16526784146E+03  0.18171362333E+03  0.00000000000E+00 0. -1.
        -13    1    4    4    0    0 -0.72505730485E+02  0.51868580677E+01 -0.79606124963E+01  0.73125616586E+02  0.00000000000E+00 0.  1.
         13    1    4    4    0    0 -0.14191662974E+03  0.11653770211E+03  0.31111908424E+02  0.18625068230E+03  0.00000000000E+00 0. -1.
         21    1    1    2  502  501  0.33539410859E+02 -0.65074615473E+01 -0.63920100177E+02  0.72477709285E+02  0.00000000000E+00 0.  1.
         21    1    1    2  503  502  0.96260558111E+01 -0.28540358606E+02  0.15596309565E+02  0.33918400491E+02  0.00000000000E+00 0.  1.
<scales pt_clust_5="13000.00000" pt_clust_6="13000.00000" pt_clust_7="13000.00000" pt_clust_8="13000.00000" pt_clust_9="34.54945" pt_clust_10="30.11998"></scales>
<clustering>
<clus scale="   30.120">  1 10  2 -1</clus>
<clus scale="   34.549">  2  9  1 -1</clus>
<clus scale="   77.112">  7  8 -1 -1</clus>
<clus scale="   87.502">  5  6 -1 -1</clus>
<clus scale="  235.233">  1  7  2 -1</clus>
<clus scale="   30.120">  1  5  2 -1</clus>
</clustering>
</event>
<event>
10    2  0.1133532E-006  0.9711281E+02  0.7546771E-02  0.1289596E+00
          2   -1    0    0  502    0  0.00000000000E+00  0.00000000000E+00  0.34435407170E+03  0.34435407170E+03  0.00000000000E+00 0. -1.
         -2   -1    0    0    0  501 -0.00000000000E+00 -0.00000000000E+00 -0.96226691111E+02  0.96226691111E+02  0.00000000000E+00 0.  1.
         23    2    1    2    0    0  0.37833795334E+02 -0.19716565069E+01 -0.28540119701E+02  0.99287845445E+02  0.87225307806E+02 0.  0.
         23    2    1    2    0    0  0.74821416947E+01 -0.32356761191E+02  0.24823865337E+03  0.26715808374E+03  0.92995001153E+02 0.  0.
        -11    1    3    3    0    0  0.49028909226E+02  0.16111497559E+02  0.12467691325E+02  0.53092914974E+02  0.00000000000E+00 0. -1.
         11    1    3    3    0    0 -0.11195113892E+02 -0.18083154066E+02 -0.41007811026E+02  0.46194930471E+02  0.00000000000E+00 0.  1.
        -13    1    4    4    0    0 -0.19956738705E+02  0.26664259069E+02  0.95018859903E+02  0.10068683066E+03  0.00000000000E+00 0.  1.
         13    1    4    4    0    0  0.27438880400E+02 -0.59021020260E+02  0.15321979347E+03  0.16647125307E+03  0.00000000000E+00 0. -1.
         21    1    1    2  502  503 -0.13861343112E+02  0.33542372827E+02  0.20515020173E+02  0.41690450471E+02  0.00000000000E+00 0. -1.
         21    1    1    2  503  501 -0.31454593917E+02  0.78604487138E+00  0.79138267511E+01  0.32444383163E+02  0.00000000000E+00 0. -1.
<scales pt_clust_5="13000.00000" pt_clust_6="13000.00000" pt_clust_7="13000.00000" pt_clust_8="13000.00000" pt_clust_9="38.07337" pt_clust_10="31.46441"></scales>
<clustering>
<clus scale="   31.464">  2 10  1 -1</clus>
<clus scale="   38.073">  2  9  1 -1</clus>
<clus scale="   87.225">  5  6 -1 -1</clus>
<clus scale="   91.603">  2  5  1 -1</clus>
<clus scale="   92.995">  7  8 -1 -1</clus>
<clus scale="   97.113">  1  5  2 -1</clus>
</clustering>
</event>
<event>
10    2  0.1133532E-006  0.9364162E+02  0.7546771E-02  0.1295272E+00
         -1   -1    0    0    0  501 -0.00000000000E+00  0.00000000000E+00  0.12102944407E+03  0.12102944407E+03  0.00000000000E+00 0.  1.
          1   -1    0    0  503    0  0.00000000000E+00 -0.00000000000E+00 -0.37925938927E+03  0.37925938927E+03  0.00000000000E+00 0. -1.
         23    2    1    2    0    0  0.10482248913E+02  0.22413319823E+01  0.32020263509E+02  0.97021887441E+02  0.90956298606E+02 0.  0.
         23    2    1    2    0    0 -0.21687181366E+02 -0.33570098186E+00 -0.88807898410E+02  0.13020202408E+03  0.92710720657E+02 0.  0.
        -13    1    3    3    0    0  0.39198014919E+02 -0.32614218024E+01  0.49292935350E+02  0.63062783963E+02  0.00000000000E+00 0.  1.
         13    1    3    3    0    0 -0.28715766005E+02  0.55027537847E+01 -0.17272671841E+02  0.33959103478E+02  0.00000000000E+00 0. -1.
        -13    1    4    4    0    0 -0.35147588437E+01  0.41649242869E+02 -0.17136038756E+02  0.45173629316E+02  0.00000000000E+00 0. -1.
         13    1    4    4    0    0 -0.18172422522E+02 -0.41984943851E+02 -0.71671859654E+02  0.85028394768E+02  0.00000000000E+00 0.  1.
         21    1    1    2  502  501  0.67640607926E+02 -0.80353487321E+01 -0.46794247686E+01  0.68276758022E+02  0.00000000000E+00 0.  1.
         21    1    1    2  503  502 -0.56435675473E+02  0.61297177317E+01 -0.19676288554E+03  0.20478816379E+03  0.00000000000E+00 0. -1.
<scales pt_clust_5="13000.00000" pt_clust_6="13000.00000" pt_clust_7="13000.00000" pt_clust_8="13000.00000" pt_clust_9="56.51490" pt_clust_10="56.76759"></scales>
<clustering>
<clus scale="   56.768">  2 10  1 -1</clus>
<clus scale="   56.515">  2  9  1 -1</clus>
<clus scale="   90.956">  5  6 -1 -1</clus>
<clus scale="   91.905">  1  5  2 -1</clus>
<clus scale="   92.711">  7  8 -1 -1</clus>
<clus scale="   56.768">  2  5  1 -1</clus>
</clustering>
</event>
<event>
10    2  0.1133532E-006  0.9973410E+02  0.7546771E-02  0.1282414E+00
         -1   -1    0    0    0  501 -0.00000000000E+00  0.00000000000E+00  0.58853206175E+03  0.58853206175E+03  0.00000000000E+00 0.  1.
          1   -1    0    0  503    0  0.00000000000E+00 -0.00000000000E+00 -0.81806207223E+02  0.81806207223E+02  0.00000000000E+00 0. -1.
         23    2    1    2    0    0  0.61086596268E+02 -0.83105233153E+01  0.29519319883E+03  0.31431198354E+03  0.88613550443E+02 0.  0.
         23    2    1    2    0    0 -0.64216454553E+01  0.35101640015E+02  0.19778992676E+03  0.22094724311E+03  0.91779444589E+02 0.  0.
        -13    1    3    3    0    0  0.26789104726E+02 -0.42977785922E+02  0.21121295923E+03  0.21719958646E+03  0.00000000000E+00 0. -1.
         13    1    3    3    0    0  0.34297491542E+02  0.34667262606E+02  0.83980239603E+02  0.97112397079E+02  0.00000000000E+00 0.  1.
        -13    1    4    4    0    0  0.21444978957E+02  0.43560548447E+02  0.18085509395E+03  0.18725910796E+03  0.00000000000E+00 0.  1.
         13    1    4    4    0    0 -0.27866624413E+02 -0.84589084319E+01  0.16934832803E+02  0.33688135153E+02  0.00000000000E+00 0. -1.
         21    1    1    2  502  501 -0.29324112076E+02 -0.88397886330E+01  0.66864840439E+02  0.73545579738E+02  0.00000000000E+00 0. -1.
         21    1    1    2  503  502 -0.25340838736E+02 -0.17951328067E+02 -0.53122111499E+02  0.61533462582E+02  0.00000000000E+00 0. -1.
<scales pt_clust_5="13000.00000" pt_clust_6="13000.00000" pt_clust_7="13000.00000" pt_clust_8="13000.00000" pt_clust_9="30.62753" pt_clust_10="31.29064"></scales>
<clustering>
<clus scale="   30.628">  1  9  2 -1</clus>
<clus scale="   31.291">  2 10  1 -1</clus>
<clus scale="   88.614">  5  6 -1 -1</clus>
<clus scale="   91.779">  7  8 -1 -1</clus>
<clus scale="   96.829">  1  5  2 -1</clus>
<clus scale="   31.291">  2  5  1 -1</clus>
</clustering>
</event>
<event>
10    2  0.1133532E-006  0.1389432E+03  0.7546771E-02  0.1214920E+00
          2   -1    0    0  503    0  0.00000000000E+00  0.00000000000E+00  0.77036853017E+03  0.77036853017E+03  0.00000000000E+00 0. -1.
         -2   -1    0    0    0  501 -0.00000000000E+00 -0.00000000000E+00 -0.24324983040E+03  0.24324983040E+03  0.00000000000E+00 0.  1.
         23    2    1    2    0    0  0.62056241664E+02 -0.40560416412E+02 -0.70203318901E+02  0.13701205359E+03  0.91365597115E+02 0.  0.
         23    2    1    2    0    0 -0.77379929590E+02  0.11479535418E+03  0.56119341624E+03  0.58508072298E+03  0.90640913060E+02 0.  0.
        -11    1    4    4    0    0 -0.67137510463E+02  0.19907882820E+02  0.24029273290E+03  0.25028856665E+03  0.00000000000E+00 0. -1.
         11    1    4    4    0    0 -0.10242419127E+02  0.94887471355E+02  0.32090068334E+03  0.33479215633E+03  0.00000000000E+00 0.  1.
        -13    1    3    3    0    0  0.63540205813E+01 -0.40972234420E+02 -0.69941717496E+02  0.81307695929E+02  0.00000000000E+00 0.  1.
         13    1    3    3    0    0  0.55702221082E+02  0.41181800788E+00 -0.26160140547E+00  0.55704357665E+02  0.00000000000E+00 0. -1.
         21    1    1    2  502  501  0.19195432430E+02 -0.28472806756E+02 -0.12206360055E+03  0.12680176627E+03  0.00000000000E+00 0.  1.
         21    1    1    2  503  502 -0.38717445036E+01 -0.45762131007E+02  0.15819220298E+03  0.16472381772E+03  0.00000000000E+00 0.  1.
<scales pt_clust_5="13000.00000" pt_clust_6="13000.00000" pt_clust_7="13000.00000" pt_clust_8="13000.00000" pt_clust_9="34.33898" pt_clust_10="46.66471"></scales>
<clustering>
<clus scale="   34.339">  2  9  1 -1</clus>
<clus scale="   46.665">  1 10  2 -1</clus>
<clus scale="   90.641">  5  6 -1 -1</clus>
<clus scale="   91.366">  7  8 -1 -1</clus>
<clus scale="  138.468">  1  5  2 -1</clus>
<clus scale="   46.665">  1  5  2 -1</clus>
</clustering>
</event>
<event>
10    2  0.1349775E-006  0.2932798E+03  0.7546771E-02  0.1088685E+00
          1   -1    0    0  503    0  0.00000000000E+00  0.00000000000E+00  0.82324665287E+03  0.82324665287E+03  0.00000000000E+00 0. -1.
         -1   -1    0    0    0  501 -0.00000000000E+00 -0.00000000000E+00 -0.15274180217E+03  0.15274180217E+03  0.00000000000E+00 0.  1.
         23    2    1    2    0    0 -0.12924881904E+03 -0.25617143608E+03  0.12202566850E+03  0.32488825844E+03  0.91285567366E+02 0.  0.
         23    2    1    2    0    0  0.13012514095E+03  0.24140902331E+03  0.50669720551E+03  0.58320152205E+03  0.90394072863E+02 0.  0.
        -11    1    3    3    0    0 -0.11686690335E+03 -0.20242187466E+03  0.58866473830E+02  0.24103474891E+03  0.00000000000E+00 0.  1.
         11    1    3    3    0    0 -0.12381915689E+02 -0.53749561425E+02  0.63159194667E+02  0.83853509531E+02  0.00000000000E+00 0. -1.
        -13    1    4    4    0    0  0.23527573930E+02  0.18498240428E+02  0.16315006203E+02  0.34086816533E+02  0.00000000000E+00 0.  1.
         13    1    4    4    0    0  0.10659756702E+03  0.22291078288E+03  0.49038219930E+03  0.54911470552E+03  0.00000000000E+00 0. -1.
         21    1    1    2  502  501  0.20487817321E+02  0.17234893773E+01  0.16821861600E+01  0.20628883259E+02  0.00000000000E+00 0. -1.
         21    1    1    2  503  502 -0.21364139231E+02  0.13038923392E+02  0.40099790530E+02  0.47269791293E+02  0.00000000000E+00 0.  1.
<scales pt_clust_5="13000.00000" pt_clust_6="13000.00000" pt_clust_7="13000.00000" pt_clust_8="13000.00000" pt_clust_9="20.56018" pt_clust_10="24.61552"></scales>
<clustering>
<clus scale="   20.560">  2  9  1 -1</clus>
<clus scale="   24.616">  1 10  2 -1</clus>
<clus scale="   90.394">  7  8 -1 -1</clus>
<clus scale="   91.286">  5  6 -1 -1</clus>
<clus scale="  293.004">  1  7  2 -1</clus>
<clus scale="   24.616">  1  5  2 -1</clus>
</clustering>
</event>
<event>
10    2  0.1133532E-006  0.1524283E+03  0.7546771E-02  0.1198872E+00
         -1   -1    0    0    0  501 -0.00000000000E+00  0.00000000000E+00  0.37827090399E+03  0.37827090399E+03  0.00000000000E+00 0.  1.
          1   -1    0    0  503    0  0.00000000000E+00 -0.00000000000E+00 -0.14153448609E+03  0.14153448609E+03  0.00000000000E+00 0. -1.
         23    2    1    2    0    0  0.46144567035E+02 -0.12076156967E+03  0.18802773645E+03  0.24553329011E+03  0.90661398085E+02 0.  0.
         23    2    1    2    0    0 -0.41201164870E+02  0.85922633350E+02  0.23341828203E+02  0.12851334062E+03  0.83009655256E+02 0.  0.
        -11    1    4    4    0    0 -0.20186238127E+02 -0.13095108819E+02 -0.20653755611E+01  0.24150193807E+02  0.00000000000E+00 0.  1.
         11    1    4    4    0    0 -0.21014926743E+02  0.99017742169E+02  0.25407203764E+02  0.10436314682E+03  0.00000000000E+00 0. -1.
        -13    1    3    3    0    0 -0.76207526497E+01 -0.26946442984E+02  0.10647949076E+03  0.11010026618E+03  0.00000000000E+00 0. -1.
         13    1    3    3    0    0  0.53765319685E+02 -0.93815126690E+02  0.81548245686E+02  0.13543302393E+03  0.00000000000E+00 0.  1.
         21    1    1    2  502  501  0.30263457867E+02 -0.15164786245E+02  0.64718876287E+02  0.73036843933E+02  0.00000000000E+00 0.  1.
         21    1    1    2  503  502 -0.35206860032E+02  0.50003722569E+02 -0.39352023031E+02  0.72721915409E+02  0.00000000000E+00 0. -1.
<scales pt_clust_5="13000.00000" pt_clust_6="13000.00000" pt_clust_7="13000.00000" pt_clust_8="13000.00000" pt_clust_9="33.85037" pt_clust_10="59.55269"></scales>
<clustering>
<clus scale="   33.850">  1  9  2 -1</clus>
<clus scale="   59.553">  2 10  1 -1</clus>
<clus scale="   83.010">  5  6 -1 -1</clus>
<clus scale="   90.661">  7  8 -1 -1</clus>
<clus scale="  148.005">  2  5  1 -1</clus>
<clus scale="   59.553">  2  5  1 -1</clus>
</clustering>
</event>
<event>
10    2  0.1273439E-006  0.9892497E+02  0.7546771E-02  0.1283011E+00
         -3   -1    0    0    0  501 -0.00000000000E+00  0.00000000000E+00  0.21277929485E+03  0.21277929485E+03  0.00000000000E+00 0.  1.
          3   -1    0    0  503    0  0.00000000000E+00 -0.00000000000E+00 -0.16604068460E+03  0.16604068460E+03  0.00000000000E+00 0. -1.
         23    2    1    2    0    0  0.27700768674E+00 -0.15274873829E+02  0.12075804856E+03  0.15255736396E+03  0.91966540130E+02 0.  0.
         23    2    1    2    0    0  0.22803018441E+01  0.26320749527E+02 -0.83317493964E+02  0.12624040799E+03  0.91087069207E+02 0.  0.
        -11    1    4    4    0    0  0.10977500100E+02 -0.29883054841E+02 -0.98350427644E+01  0.33320122168E+02  0.00000000000E+00 0.  1.
         11    1    4    4    0    0 -0.86971982557E+01  0.56203804368E+02 -0.73482451199E+02  0.92920285822E+02  0.00000000000E+00 0. -1.
        -11    1    3    3    0    0 -0.29604283133E+02  0.24706083121E+02  0.77268933627E+02  0.86355614912E+02  0.00000000000E+00 0. -1.
         11    1    3    3    0    0  0.29881290820E+02 -0.39980956950E+02  0.43489114928E+02  0.66201749047E+02  0.00000000000E+00 0.  1.
         21    1    1    2  502  501 -0.18048977706E+02 -0.25478959649E+02  0.47208237554E+02  0.56600005954E+02  0.00000000000E+00 0. -1.
         21    1    1    2  503  502  0.15491668175E+02  0.14433083951E+02 -0.37910181897E+02  0.43422201541E+02  0.00000000000E+00 0.  1.
<scales pt_clust_5="13000.00000" pt_clust_6="13000.00000" pt_clust_7="13000.00000" pt_clust_8="13000.00000" pt_clust_9="30.44797" pt_clust_10="21.17323"></scales>
<clustering>
<clus scale="   21.173">  2 10  1 -1</clus>
<clus scale="   30.448">  1  9  2 -1</clus>
<clus scale="   91.087">  5  6 -1 -1</clus>
<clus scale="   91.967">  7  8 -1 -1</clus>
<clus scale="   98.108">  2  5  1 -1</clus>
<clus scale="   21.173">  2  5  1 -1</clus>
</clustering>
</event>
<event>
10    2  0.1133532E-006  0.1500227E+03  0.7546771E-02  0.1200558E+00
         -2   -1    0    0    0  501 -0.00000000000E+00  0.00000000000E+00  0.90358804546E+02  0.90358804546E+02  0.00000000000E+00 0.  1.
          2   -1    0    0  503    0  0.00000000000E+00 -0.00000000000E+00 -0.46612016320E+03  0.46612016320E+03  0.00000000000E+00 0. -1.
         23    2    1    2    0    0  0.54254122006E+02 -0.95545618853E+02 -0.50068374821E+02  0.15112449166E+03  0.90880662326E+02 0.  0.
         23    2    1    2    0    0 -0.69175243413E+02  0.10894363343E+03 -0.21175740811E+03  0.26431810402E+03  0.91481859737E+02 0.  0.
        -11    1    3    3    0    0  0.92533251025E+01 -0.25861930465E+02  0.26550982990E+02  0.38202332004E+02  0.00000000000E+00 0.  1.
         11    1    3    3    0    0  0.45000796904E+02 -0.69683688387E+02 -0.76619357811E+02  0.11292215965E+03  0.00000000000E+00 0. -1.
        -13    1    4    4    0    0 -0.58664749060E+02  0.11009480806E+02 -0.79511007930E+02  0.99422139546E+02  0.00000000000E+00 0.  1.
         13    1    4    4    0    0 -0.10510494353E+02  0.97934152622E+02 -0.13224640018E+03  0.16489596448E+03  0.00000000000E+00 0. -1.
         21    1    1    2  502  501 -0.11846621841E+02 -0.16482499093E+02  0.34576555889E+01  0.20590546558E+02  0.00000000000E+00 0. -1.
         21    1    1    2  503  502  0.26767743248E+02  0.30844845174E+01 -0.11739323131E+03  0.12044582550E+03  0.00000000000E+00 0. -1.
<scales pt_clust_5="13000.00000" pt_clust_6="13000.00000" pt_clust_7="13000.00000" pt_clust_8="13000.00000" pt_clust_9="20.29816" pt_clust_10="26.68041"></scales>
<clustering>
<clus scale="   20.298">  1  9  2 -1</clus>
<clus scale="   26.680">  2 10  1 -1</clus>
<clus scale="   90.881">  5  6 -1 -1</clus>
<clus scale="   91.482">  7  8 -1 -1</clus>
<clus scale="  149.657">  1  5  2 -1</clus>
<clus scale="   26.680">  2  5  1 -1</clus>
</clustering>
</event>
<event>
10    2  0.1133532E-006  0.9389645E+02  0.7546771E-02  0.1302202E+00
         -1   -1    0    0    0  501 -0.00000000000E+00  0.00000000000E+00  0.89088343605E+02  0.89088343605E+02  0.00000000000E+00 0.  1.
          1   -1    0    0  503    0  0.00000000000E+00 -0.00000000000E+00 -0.27996263457E+03  0.27996263457E+03  0.00000000000E+00 0. -1.
         23    2    1    2    0    0 -0.59893119682E+00  0.30808800820E+01 -0.57459928791E+02  0.10830957149E+03  0.91757666268E+02 0.  0.
         23    2    1    2    0    0 -0.46741777691E+02 -0.78128355348E+01 -0.11230372214E+03  0.14454660814E+03  0.77690165002E+02 0.  0.
        -13    1    4    4    0    0 -0.45401492674E+02  0.28085209331E+02 -0.80349098502E+02  0.96467881443E+02  0.00000000000E+00 0. -1.
         13    1    4    4    0    0 -0.13402850170E+01 -0.35898044866E+02 -0.31954623641E+02  0.48078726701E+02  0.00000000000E+00 0.  1.
        -13    1    3    3    0    0 -0.93382752225E+01  0.45748659094E+02 -0.39648180782E+02  0.61254562543E+02  0.00000000000E+00 0. -1.
         13    1    3    3    0    0  0.87393440257E+01 -0.42667779012E+02 -0.17811748009E+02  0.47055008946E+02  0.00000000000E+00 0.  1.
         21    1    1    2  502  501  0.80979825603E+01 -0.27642059439E+02  0.31723891232E+02  0.42849341261E+02  0.00000000000E+00 0.  1.
         21    1    1    2  503  502  0.39242726327E+02  0.32374014892E+02 -0.52834531263E+02  0.73345457280E+02  0.00000000000E+00 0. -1.
<scales pt_clust_5="13000.00000" pt_clust_6="13000.00000" pt_clust_7="13000.00000" pt_clust_8="13000.00000" pt_clust_9="28.80383" pt_clust_10="48.90894"></scales>
<clustering>
<clus scale="   28.804">  1  9  2 -1</clus>
<clus scale="   48.909">  2 10  1 -1</clus>
<clus scale="   77.690">  5  6 -1 -1</clus>
<clus scale="   80.205">  2  5  1 -1</clus>
<clus scale="   91.758">  7  8 -1 -1</clus>
<clus scale="   48.909">  2  5  1 -1</clus>
</clustering>
</event>
<event>
10    2  0.1133532E-006  0.9633317E+02  0.7546771E-02  0.1289349E+00
         -3   -1    0    0    0  501 -0.00000000000E+00  0.00000000000E+00  0.85942402428E+02  0.85942402428E+02  0.00000000000E+00 0.  1.
          3   -1    0    0  503    0  0.00000000000E+00 -0.00000000000E+00 -0.44789451116E+03  0.44789451116E+03  0.00000000000E+00 0. -1.
         23    2    1    2    0    0  0.19084612941E+02  0.45921804107E+02 -0.63721980707E+02  0.12178982388E+03  0.91100141778E+02 0.  0.
         23    2    1    2    0    0 -0.36790623974E+02 -0.16126132249E+02 -0.18123936541E+03  0.20583811183E+03  0.88927040641E+02 0.  0.
        -11    1    3    3    0    0  0.39687153662E+02  0.23523199587E+02 -0.76054264545E+02  0.88953146319E+02  0.00000000000E+00 0. -1.
         11    1    3    3    0    0 -0.20602540721E+02  0.22398604520E+02  0.12332283838E+02  0.32836677561E+02  0.00000000000E+00 0.  1.
        -11    1    4    4    0    0  0.13517408020E+02  0.22841773143E+02 -0.95153574518E+02  0.98785979083E+02  0.00000000000E+00 0. -1.
         11    1    4    4    0    0 -0.50308031994E+02 -0.38967905392E+02 -0.86085790887E+02  0.10705213275E+03  0.00000000000E+00 0.  1.
         21    1    1    2  502  501 -0.14435121237E+02 -0.30407402709E+02  0.36346377104E+02  0.49538288154E+02  0.00000000000E+00 0.  1.
         21    1    1    2  503  502  0.32141132270E+02  0.61173085119E+00 -0.15333713972E+03  0.15667068972E+03  0.00000000000E+00 0. -1.
<scales pt_clust_5="13000.00000" pt_clust_6="13000.00000" pt_clust_7="13000.00000" pt_clust_8="13000.00000" pt_clust_9="33.34325" pt_clust_10="32.14695"></scales>
<clustering>
<clus scale="   32.147">  2 10  1 -1</clus>
<clus scale="   33.343">  1  9  2 -1</clus>
<clus scale="   88.927">  7  8 -1 -1</clus>
<clus scale="   91.100">  5  6 -1 -1</clus>
<clus scale="   94.281">  2  7  1 -1</clus>
<clus scale="   32.147">  2  5  1 -1</clus>
</clustering>
</event>
<event>
10    2  0.1479192E-006  0.9785201E+02  0.7546771E-02  0.1285084E+00
         -2   -1    0    0    0  501 -0.00000000000E+00  0.00000000000E+00  0.83493892374E+02  0.83493892374E+02  0.00000000000E+00 0.  1.
          2   -1    0    0  502    0  0.00000000000E+00 -0.00000000000E+00 -0.64574695785E+03  0.64574695785E+03  0.00000000000E+00 0. -1.
         23    2    1    2    0    0 -0.36032041411E+02  0.31473942116E+01  0.31480483667E+02  0.10358988289E+03  0.91823901499E+02 0.  0.
         23    2    1    2    0    0  0.17774536569E+02  0.77400087378E+01 -0.24589015924E+03  0.26305028103E+03  0.91420118428E+02 0.  0.
        -13    1    3    3    0    0 -0.43388100239E+02  0.39785208265E+02  0.78807510860E+01  0.59392729157E+02  0.00000000000E+00 0.  1.
         13    1    3    3    0    0  0.73560588284E+01 -0.36637814053E+02  0.23599732581E+02  0.44197153732E+02  0.00000000000E+00 0. -1.
        -13    1    4    4    0    0  0.15540148245E+02  0.49160026057E+02 -0.12383377739E+03  0.13413802143E+03  0.00000000000E+00 0.  1.
         13    1    4    4    0    0  0.22343883244E+01 -0.41420017319E+02 -0.12205638185E+03  0.12891225960E+03  0.00000000000E+00 0. -1.
         21    1    1    2  502  503  0.21074430974E+02  0.28113064666E+02 -0.44264493871E+02  0.56513905045E+02  0.00000000000E+00 0.  1.
         21    1    1    2  503  501 -0.28169261325E+01 -0.39000467615E+02 -0.30357889602E+03  0.30608678125E+03  0.00000000000E+00 0. -1.
<scales pt_clust_5="13000.00000" pt_clust_6="13000.00000" pt_clust_7="13000.00000" pt_clust_8="13000.00000" pt_clust_9="35.13511" pt_clust_10="25.86578"></scales>
<clustering>
<clus scale="   35.135">  2  9  1 -1</clus>
<clus scale="   25.866">  2 10  1 -1</clus>
<clus scale="   91.420">  7  8 -1 -1</clus>
<clus scale="   91.824">  5  6 -1 -1</clus>
<clus scale="   97.473">  2  7  1 -1</clus>
<clus scale="   35.135">  2  5  1 -1</clus>
</clustering>
</event>
<event>
10    2  0.1133532E-006  0.1595589E+03  0.7546771E-02  0.1189244E+00
          2   -1    0    0  503    0  0.00000000000E+00  0.00000000000E+00  0.35763822469E+03  0.35763822469E+03  0.00000000000E+00 0. -1.
         -2   -1    0    0    0  501 -0.00000000000E+00 -0.00000000000E+00 -0.18473621864E+03  0.18473621864E+03  0.00000000000E+00 0.  1.
         23    2    1    2    0    0  0.13490944504E+03  0.56675850789E+02 -0.80165817017E+02  0.19027090996E+03  0.91453543041E+02 0.  0.
         23    2    1    2    0    0 -0.12993574760E+03  0.61097485501E+01  0.23204171943E+03  0.28120063960E+03  0.91158173668E+02 0.  0.
        -11    1    4    4    0    0 -0.14317499116E+02 -0.28906485206E+02  0.22499290557E+02  0.39329298792E+02  0.00000000000E+00 0.  1.
         11    1    4    4    0    0 -0.11561824849E+03  0.35016233756E+02  0.20954242887E+03  0.24187134081E+03  0.00000000000E+00 0. -1.
        -13    1    3    3    0    0  0.36426914907E+02  0.23925381732E+02 -0.74524698512E+02  0.86332350304E+02  0.00000000000E+00 0.  1.
         13    1    3    3    0    0  0.98482530137E+02  0.32750469057E+02 -0.56411185047E+01  0.10393855966E+03  0.00000000000E+00 0. -1.
         21    1    1    2  502  501  0.13246070675E+01 -0.38128878375E+02  0.41398934023E+00  0.38154126084E+02  0.00000000000E+00 0. -1.
         21    1    1    2  503  502 -0.62983045090E+01 -0.24656720964E+02  0.20612114301E+02  0.32748767677E+02  0.00000000000E+00 0. -1.
<scales pt_clust_5="13000.00000" pt_clust_6="13000.00000" pt_clust_7="13000.00000" pt_clust_8="13000.00000" pt_clust_9="67.71354" pt_clust_10="20.30912"></scales>
<clustering>
<clus scale="   20.309">  9 10 -1 -1</clus>
<clus scale="   67.714">  2  9  1 -1</clus>
<clus scale="   91.158">  5  6 -1 -1</clus>
<clus scale="   91.454">  7  8 -1 -1</clus>
<clus scale="  159.390">  1  5  2 -1</clus>
<clus scale="  159.390">  1  5  2 -1</clus>
</clustering>
</event>
<event>
10    2  0.1133532E-006  0.1002771E+03  0.7546771E-02  0.1281213E+00
          1   -1    0    0  503    0  0.00000000000E+00  0.00000000000E+00  0.13391200543E+03  0.13391200543E+03  0.00000000000E+00 0. -1.
         -1   -1    0    0    0  501 -0.00000000000E+00 -0.00000000000E+00 -0.21552622533E+03  0.21552622533E+03  0.00000000000E+00 0.  1.
         23    2    1    2    0    0  0.25652079178E+02 -0.32748052777E+02 -0.50130922412E+02  0.11029945277E+03  0.89007841078E+02 0.  0.
         23    2    1    2    0    0 -0.28069955830E+02  0.36334632268E+02  0.47276418099E+02  0.11323706245E+03  0.92083900236E+02 0.  0.
        -13    1    4    4    0    0 -0.54209606064E+02  0.31231854204E+02  0.57244212628E+02  0.84799823031E+02  0.00000000000E+00 0. -1.
         13    1    4    4    0    0  0.26139650233E+02  0.51027780633E+01 -0.99677945289E+01  0.28437239424E+02  0.00000000000E+00 0.  1.
        -13    1    3    3    0    0  0.25600752807E+02  0.26980740181E+02 -0.28185310880E+02  0.46666590130E+02  0.00000000000E+00 0.  1.
         13    1    3    3    0    0  0.51326371139E-01 -0.59728792958E+02 -0.21945611532E+02  0.63632862643E+02  0.00000000000E+00 0. -1.
         21    1    1    2  502  501  0.12191630285E+02  0.22850762284E+02 -0.91408970540E+02  0.95007331723E+02  0.00000000000E+00 0.  1.
         21    1    1    2  503  502 -0.97737536325E+01 -0.26437341775E+02  0.12649254955E+02  0.30894383812E+02  0.00000000000E+00 0.  1.
<scales pt_clust_5="13000.00000" pt_clust_6="13000.00000" pt_clust_7="13000.00000" pt_clust_8="13000.00000" pt_clust_9="25.89968" pt_clust_10="26.27368"></scales>
<clustering>
<clus scale="   25.900">  2  9  1 -1</clus>
<clus scale="   26.274">  1 10  2 -1</clus>
<clus scale="   89.008">  7  8 -1 -1</clus>
<clus scale="   92.084">  5  6 -1 -1</clus>
<clus scale="   97.460">  2  7  1 -1</clus>
<clus scale="   26.274">  1  5  2 -1</clus>
</clustering>
</event>
<event>
10    2  0.1133532E-006  0.1510564E+03  0.7546771E-02  0.1199504E+00
          2   -1    0    0  503    0  0.00000000000E+00  0.00000000000E+00  0.18479128887E+03  0.18479128887E+03  0.00000000000E+00 0. -1.
         -2   -1    0    0    0  501 -0.00000000000E+00 -0.00000000000E+00 -0.50137972313E+03  0.50137972313E+03  0.00000000000E+00 0.  1.
         23    2    1    2    0    0  0.10266002987E+03  0.59081649549E+02 -0.38771037498E+03  0.41548204089E+03  0.90973998417E+02 0.  0.
         23    2    1    2    0    0 -0.10876390888E+03 -0.59117947896E+02 -0.14433910271E+01  0.15466442253E+03  0.92706421468E+02 0.  0.
        -13    1    4    4    0    0 -0.38444093944E+02 -0.72523268746E+02 -0.94809353008E+01  0.82628451535E+02  0.00000000000E+00 0. -1.
         13    1    4    4    0    0 -0.70319814934E+02  0.13405320851E+02  0.80375442737E+01  0.72035970997E+02  0.00000000000E+00 0.  1.
        -13    1    3    3    0    0  0.84964158603E+02  0.20434456026E+02 -0.34231403638E+03  0.35329219457E+03  0.00000000000E+00 0.  1.
         13    1    3    3    0    0  0.17695871263E+02  0.38647193522E+02 -0.45396338597E+02  0.62189846317E+02  0.00000000000E+00 0. -1.
         21    1    1    2  502  501  0.13900275454E+02  0.19312664732E+02 -0.13585402606E+02  0.27399997093E+02  0.00000000000E+00 0.  1.
         21    1    1    2  503  502 -0.77963964419E+01 -0.19276366385E+02  0.86150734351E+02  0.88624551495E+02  0.00000000000E+00 0. -1.
<scales pt_clust_5="13000.00000" pt_clust_6="13000.00000" pt_clust_7="13000.00000" pt_clust_8="13000.00000" pt_clust_9="22.36518" pt_clust_10="20.79332"></scales>
<clustering>
<clus scale="   20.793">  1 10  2 -1</clus>
<clus scale="   22.365">  1  9  2 -1</clus>
<clus scale="   90.974">  7  8 -1 -1</clus>
<clus scale="   92.706">  5  6 -1 -1</clus>
<clus scale="  149.999">  2  7  1 -1</clus>
<clus scale="   20.793">  1  5  2 -1</clus>
</clustering>
</event>
<event>
10    2  0.1147125E-006  0.5877941E+03  0.7546771E-02  0.9931811E-01
         -2   -1    0    0    0  501 -0.00000000000E+00  0.00000000000E+00  0.31998596659E+03  0.31998596659E+03  0.00000000000E+00 0.  1.
          2   -1    0    0  503    0  0.00000000000E+00 -0.00000000000E+00 -0.13433720881E+04  0.13433720881E+04  0.00000000000E+00 0. -1.
         23    2    1    2    0    0  0.47737386722E+03 -0.36850165017E+03 -0.39303944255E+03  0.72492731820E+03  0.85792412205E+02 0.  0.
         23    2    1    2    0    0 -0.39022845620E+03  0.40605886515E+03 -0.59499043429E+03  0.82473910423E+03  0.94968011219E+02 0.  0.
        -11    1    4    4    0    0 -0.58487515086E+02  0.10829260441E+03 -0.99776222717E+02  0.15844043742E+03  0.00000000000E+00 0. -1.
         11    1    4    4    0    0 -0.33174094111E+03  0.29776626074E+03 -0.49521421158E+03  0.66629866681E+03  0.00000000000E+00 0.  1.
        -13    1    3    3    0    0  0.40921439941E+03 -0.32599505389E+03 -0.37178338873E+03  0.64183493826E+03  0.00000000000E+00 0. -1.
         13    1    3    3    0    0  0.68159467806E+02 -0.42506596275E+02 -0.21256053825E+02  0.83092379932E+02  0.00000000000E+00 0.  1.
         21    1    1    2  502  501 -0.59574879468E+02 -0.25330854809E+02  0.31103356744E+01  0.64811207804E+02  0.00000000000E+00 0.  1.
         21    1    1    2  503  502 -0.27570531551E+02 -0.12226360173E+02 -0.38466580347E+02  0.48880424473E+02  0.00000000000E+00 0. -1.
<scales pt_clust_5="13000.00000" pt_clust_6="13000.00000" pt_clust_7="13000.00000" pt_clust_8="13000.00000" pt_clust_9="65.45234" pt_clust_10="30.15988"></scales>
<clustering>
<clus scale="   30.160">  2 10  1 -1</clus>
<clus scale="   65.452">  1  9  2 -1</clus>
<clus scale="   85.792">  7  8 -1 -1</clus>
<clus scale="   94.968">  5  6 -1 -1</clus>
<clus scale="  586.382">  1  7  2 -1</clus>
<clus scale="   30.160">  2  5  1 -1</clus>
</clustering>
</event>
<event>
10    2  0.1133532E-006  0.1731826E+03  0.7546771E-02  0.1174698E+00
          2   -1    0    0  502    0  0.00000000000E+00  0.00000000000E+00  0.63575162331E+03  0.63575162331E+03  0.00000000000E+00 0. -1.
         -2   -1    0    0    0  501 -0.00000000000E+00 -0.00000000000E+00 -0.10353855737E+03  0.10353855737E+03  0.00000000000E+00 0.  1.
         23    2    1    2    0    0 -0.36526626168E+02  0.13357597845E+03  0.10178496868E+03  0.19359285154E+03  0.89113836641E+02 0.  0.
         23    2    1    2    0    0  0.78853115560E+02 -0.14019531749E+03  0.11425309244E+03  0.21689249898E+03  0.90089100911E+02 0.  0.
        -11    1    3    3    0    0 -0.59260523152E+02  0.11338194672E+03  0.58451769687E+02  0.14065519836E+03  0.00000000000E+00 0.  1.
         11    1    3    3    0    0  0.22733896984E+02  0.20194031733E+02  0.43333198990E+02  0.52937653182E+02  0.00000000000E+00 0. -1.
        -13    1    4    4    0    0 -0.19504978870E+02 -0.15788300826E+02  0.95227021181E+01  0.26840203042E+02  0.00000000000E+00 0.  1.
         13    1    4    4    0    0  0.98358094430E+02 -0.12440701667E+03  0.10473039032E+03  0.19005229594E+03  0.00000000000E+00 0. -1.
         21    1    1    2  502  503  0.48228938008E+01  0.21767982199E+02  0.25207664471E+02  0.33653108352E+02  0.00000000000E+00 0.  1.
         21    1    1    2  503  501 -0.47149383193E+02 -0.15148643158E+02  0.29096734036E+03  0.29515172180E+03  0.00000000000E+00 0. -1.
<scales pt_clust_5="13000.00000" pt_clust_6="13000.00000" pt_clust_7="13000.00000" pt_clust_8="13000.00000" pt_clust_9="22.29586" pt_clust_10="45.05653"></scales>
<clustering>
<clus scale="   22.296">  1  9  2 -1</clus>
<clus scale="   45.057">  1 10  2 -1</clus>
<clus scale="   89.114">  5  6 -1 -1</clus>
<clus scale="   90.089">  7  8 -1 -1</clus>
<clus scale="  172.677">  2  5  1 -1</clus>
<clus scale="   22.296">  1  5  2 -1</clus>
</clustering>
</event>
<event>
10    2  0.1133532E-006  0.1469827E+03  0.7546771E-02  0.1206243E+00
         -2   -1    0    0    0  501 -0.00000000000E+00  0.00000000000E+00  0.20627026342E+03  0.20627026342E+03  0.00000000000E+00 0. -1.
          2   -1    0    0  503    0  0.00000000000E+00 -0.00000000000E+00 -0.46349299336E+03  0.46349299336E+03  0.00000000000E+00 0.  1.
         23    2    1    2    0    0 -0.47700099582E+02 -0.68045961971E+02  0.12334736314E+03  0.16968627112E+03  0.81690306476E+02 0.  0.
         23    2    1    2    0    0 -0.30596612236E+02  0.13366676070E+03 -0.22497147793E+03  0.27907227379E+03  0.92012023754E+02 0.  0.
        -13    1    3    3    0    0  0.21719699985E+02 -0.40229786791E+01  0.23921817879E+02  0.32560452938E+02  0.00000000000E+00 0.  1.
         13    1    3    3    0    0 -0.69419799567E+02 -0.64022983292E+02  0.99425545263E+02  0.13712581818E+03  0.00000000000E+00 0. -1.
        -13    1    4    4    0    0 -0.26696109491E+02  0.95654333659E+01 -0.86460058702E+01  0.29646807500E+02  0.00000000000E+00 0.  1.
         13    1    4    4    0    0 -0.39005027453E+01  0.12410132734E+03 -0.21632547206E+03  0.24942546629E+03  0.00000000000E+00 0. -1.
         21    1    1    2  502  501  0.27224349918E+02 -0.51575125760E+02 -0.18074731616E+01  0.58347457398E+02  0.00000000000E+00 0. -1.
         21    1    1    2  503  502  0.51072361901E+02 -0.14045672972E+02 -0.15379114199E+03  0.16265725447E+03  0.00000000000E+00 0.  1.
<scales pt_clust_5="13000.00000" pt_clust_6="13000.00000" pt_clust_7="13000.00000" pt_clust_8="13000.00000" pt_clust_9="62.00913" pt_clust_10="52.96855"></scales>
<clustering>
<clus scale="   52.969">  2 10  1 -1</clus>
<clus scale="   62.009">  1  9  2 -1</clus>
<clus scale="   81.690">  5  6 -1 -1</clus>
<clus scale="   92.012">  7  8 -1 -1</clus>
<clus scale="  140.752">  1  5  2 -1</clus>
<clus scale="   52.969">  2  5  1 -1</clus>
</clustering>
</event>
<event>
10    2  0.1133532E-006  0.1409069E+03  0.7546771E-02  0.1212892E+00
          2   -1    0    0  503    0  0.00000000000E+00  0.00000000000E+00  0.10076508248E+04  0.10076508248E+04  0.00000000000E+00 0. -1.
         -2   -1    0    0    0  501 -0.00000000000E+00 -0.00000000000E+00 -0.20503919744E+03  0.20503919744E+03  0.00000000000E+00 0.  1.
         23    2    1    2    0    0 -0.18198771260E+02  0.83300323405E+02 -0.14289064518E+02  0.12886533982E+03  0.95561285510E+02 0.  0.
         23    2    1    2    0    0  0.69562032330E+01 -0.12358305883E+03  0.81584898358E+03  0.83031087629E+03  0.92116372551E+02 0.  0.
        -13    1    4    4    0    0 -0.11675213608E+02 -0.13265256949E+03  0.72505217713E+03  0.73717954012E+03  0.00000000000E+00 0. -1.
         13    1    4    4    0    0  0.18631416841E+02  0.90695106557E+01  0.90796806446E+02  0.93131336175E+02  0.00000000000E+00 0.  1.
        -13    1    3    3    0    0  0.20730449518E+02 -0.34048871030E+00 -0.28787424777E+02  0.35476517516E+02  0.00000000000E+00 0. -1.
         13    1    3    3    0    0 -0.38929220778E+02  0.83640812115E+02  0.14498360259E+02  0.93388822307E+02  0.00000000000E+00 0.  1.
         21    1    1    2  502  501  0.41834276153E+01  0.19667535130E+02 -0.12448575733E+03  0.12609923387E+03  0.00000000000E+00 0. -1.
         21    1    1    2  503  502  0.70591404117E+01  0.20615200295E+02  0.12553746562E+03  0.12741457225E+03  0.00000000000E+00 0. -1.
<scales pt_clust_5="13000.00000" pt_clust_6="13000.00000" pt_clust_7="13000.00000" pt_clust_8="13000.00000" pt_clust_9="20.10754" pt_clust_10="22.02527"></scales>
<clustering>
<clus scale="   20.108">  2  9  1 -1</clus>
<clus scale="   22.025">  1 10  2 -1</clus>
<clus scale="   92.116">  5  6 -1 -1</clus>
<clus scale="   95.561">  7  8 -1 -1</clus>
<clus scale="  138.594">  1  5  2 -1</clus>
<clus scale="   22.025">  1  5  2 -1</clus>
</clustering>
</event>
<event>
10    2  0.1133532E-006  0.1006957E+03  0.7546771E-02  0.1280147E+00
         -2   -1    0    0    0  501 -0.00000000000E+00  0.00000000000E+00  0.26299780428E+03  0.26299780428E+03  0.00000000000E+00 0.  1.
          2   -1    0    0  503    0  0.00000000000E+00 -0.00000000000E+00 -0.36982578807E+03  0.36982578807E+03  0.00000000000E+00 0. -1.
         23    2    1    2    0    0  0.77700391802E+02  0.88353454166E+01  0.11799032681E+03  0.16807811427E+03  0.90626271353E+02 0.  0.
         23    2    1    2    0    0 -0.41097427157E+02  0.26463378744E+02 -0.20542380171E+03  0.23085471496E+03  0.93304084472E+02 0.  0.
        -13    1    4    4    0    0 -0.69747827241E+02  0.25811320203E+02 -0.16794447443E+03  0.18367452231E+03  0.00000000000E+00 0. -1.
         13    1    4    4    0    0  0.28650400084E+02  0.65205854148E+00 -0.37479327279E+02  0.47180192651E+02  0.00000000000E+00 0.  1.
        -13    1    3    3    0    0  0.27839732542E+02  0.39383132893E+02  0.92440225670E+02  0.10426541702E+03  0.00000000000E+00 0.  1.
         13    1    3    3    0    0  0.49860659260E+02 -0.30547787477E+02  0.25550101144E+02  0.63812697248E+02  0.00000000000E+00 0. -1.
         21    1    1    2  502  501 -0.44844161650E+02 -0.11806309363E+02  0.10090059106E+03  0.11104646348E+03  0.00000000000E+00 0. -1.
         21    1    1    2  503  502  0.82411970048E+01 -0.23492414798E+02 -0.12029509995E+03  0.12284429964E+03  0.00000000000E+00 0. -1.
<scales pt_clust_5="13000.00000" pt_clust_6="13000.00000" pt_clust_7="13000.00000" pt_clust_8="13000.00000" pt_clust_9="46.33442" pt_clust_10="24.89600"></scales>
<clustering>
<clus scale="   24.896">  2 10  1 -1</clus>
<clus scale="   46.334">  1  9  2 -1</clus>
<clus scale="   90.626">  7  8 -1 -1</clus>
<clus scale="   93.304">  5  6 -1 -1</clus>
<clus scale="   98.220">  1  7  2 -1</clus>
<clus scale="   24.896">  2  5  1 -1</clus>
</clustering>
</event>
<event>
10    2  0.1133532E-006  0.1614716E+03  0.7546771E-02  0.1188637E+00
         -3   -1    0    0    0  501 -0.00000000000E+00  0.00000000000E+00  0.12670776397E+03  0.12670776397E+03  0.00000000000E+00 0.  1.
          3   -1    0    0  503    0  0.00000000000E+00 -0.00000000000E+00 -0.41825397527E+03  0.41825397527E+03  0.00000000000E+00 0. -1.
         23    2    1    2    0    0 -0.94555352638E+02  0.19230167794E+02 -0.97110390854E+01  0.13297812905E+03  0.90985517860E+02 0.  0.
         23    2    1    2    0    0  0.13016810009E+03 -0.84771720234E+02 -0.26075201880E+03  0.31965172134E+03  0.10027775835E+03 0.  0.
        -11    1    3    3    0    0 -0.84054413875E+02 -0.23743506626E+02  0.14432774777E+01  0.87355490089E+02  0.00000000000E+00 0.  1.
         11    1    3    3    0    0 -0.10500938763E+02  0.42973674420E+02 -0.11154316563E+02  0.45622638964E+02  0.00000000000E+00 0. -1.
        -11    1    4    4    0    0  0.56881735619E+02 -0.14984534830E+02 -0.18244817481E+03  0.19169612573E+03  0.00000000000E+00 0. -1.
         11    1    4    4    0    0  0.73286364473E+02 -0.69787185405E+02 -0.78303843988E+02  0.12795559561E+03  0.00000000000E+00 0.  1.
         21    1    1    2  502  501 -0.24947174772E+02  0.43683588326E+02  0.11567803701E+02  0.51618131510E+02  0.00000000000E+00 0. -1.
         21    1    1    2  503  502 -0.10665572682E+02  0.21857964114E+02 -0.32650957112E+02  0.40713757333E+02  0.00000000000E+00 0. -1.
<scales pt_clust_5="13000.00000" pt_clust_6="13000.00000" pt_clust_7="13000.00000" pt_clust_8="13000.00000" pt_clust_9="51.57902" pt_clust_10="24.32129"></scales>
<clustering>
<clus scale="   24.321">  2 10  1 -1</clus>
<clus scale="   51.579">  1  9  2 -1</clus>
<clus scale="   90.986">  5  6 -1 -1</clus>
<clus scale="  100.278">  7  8 -1 -1</clus>
<clus scale="  155.871">  1  5  2 -1</clus>
<clus scale="   24.321">  2  5  1 -1</clus>
</clustering>
</event>
<event>
10    2  0.1133532E-006  0.1771066E+03  0.7546771E-02  0.1170881E+00
         -2   -1    0    0    0  501 -0.00000000000E+00  0.00000000000E+00  0.66532258337E+02  0.66532258337E+02  0.00000000000E+00 0.  1.
          2   -1    0    0  503    0  0.00000000000E+00 -0.00000000000E+00 -0.73873069340E+03  0.73873069340E+03  0.00000000000E+00 0. -1.
         23    2    1    2    0    0  0.12949107249E+03  0.57466778002E+02 -0.23658777217E+03  0.28979106190E+03  0.89077029519E+02 0.  0.
         23    2    1    2    0    0 -0.14523183304E+03 -0.63917433682E+02 -0.36150071816E+03  0.40515217439E+03  0.91037308444E+02 0.  0.
        -11    1    3    3    0    0  0.40549490644E+02 -0.12767179378E+02 -0.11951661071E+03  0.12685220651E+03  0.00000000000E+00 0. -1.
         11    1    3    3    0    0  0.88941581845E+02  0.70233957379E+02 -0.11707116146E+03  0.16293885539E+03  0.00000000000E+00 0.  1.
        -13    1    4    4    0    0 -0.29515232106E+02 -0.30777364884E+02 -0.29091783339E+02  0.51620993533E+02  0.00000000000E+00 0.  1.
         13    1    4    4    0    0 -0.11571660094E+03 -0.33140068798E+02 -0.33240893482E+03  0.35353118086E+03  0.00000000000E+00 0. -1.
         21    1    1    2  502  501  0.41163288217E+02 -0.11265636086E+02 -0.18197205974E+02  0.46394710458E+02  0.00000000000E+00 0.  1.
         21    1    1    2  503  502 -0.25422527664E+02  0.17716291767E+02 -0.55912738757E+02  0.63925004983E+02  0.00000000000E+00 0.  1.
<scales pt_clust_5="13000.00000" pt_clust_6="13000.00000" pt_clust_7="13000.00000" pt_clust_8="13000.00000" pt_clust_9="41.29087" pt_clust_10="30.98664"></scales>
<clustering>
<clus scale="   30.987">  2 10  1 -1</clus>
<clus scale="   41.291">  1  9  2 -1</clus>
<clus scale="   89.077">  5  6 -1 -1</clus>
<clus scale="   91.037">  7  8 -1 -1</clus>
<clus scale="  176.107">  1  5  2 -1</clus>
<clus scale="   30.987">  2  5  1 -1</clus>
</clustering>
</event>
<event>
10    2  0.1133532E-006  0.3560405E+03  0.7546771E-02  0.1060173E+00
         -1   -1    0    0    0  501 -0.00000000000E+00  0.00000000000E+00  0.22459410600E+03  0.22459410600E+03  0.00000000000E+00 0.  1.
          1   -1    0    0  503    0  0.00000000000E+00 -0.00000000000E+00 -0.13885118477E+04  0.13885118477E+04  0.00000000000E+00 0. -1.
         23    2    1    2    0    0 -0.29640170720E+03 -0.19012482068E+03 -0.30935682069E+03  0.47766686987E+03  0.91992263769E+02 0.  0.
         23    2    1    2    0    0  0.36751737277E+03  0.79381899604E+02 -0.59400917591E+03  0.70894578707E+03  0.91579051464E+02 0.  0.
        -11    1    3    3    0    0 -0.43505155287E+02  0.20436979311E+01 -0.58469458545E+02  0.72907837852E+02  0.00000000000E+00 0. -1.
         11    1    3    3    0    0 -0.25289655191E+03 -0.19216851861E+03 -0.25088736214E+03  0.40475903202E+03  0.00000000000E+00 0.  1.
        -11    1    4    4    0    0  0.43230832948E+02  0.32986096201E+02 -0.49742525325E+02  0.73697396736E+02  0.00000000000E+00 0.  1.
         11    1    4    4    0    0  0.32428653982E+03  0.46395803403E+02 -0.54426665059E+03  0.63524839033E+03  0.00000000000E+00 0. -1.
         21    1    1    2  502  501  0.21672289769E+02  0.59113925379E+02  0.61120152390E+02  0.87748603099E+02  0.00000000000E+00 0. -1.
         21    1    1    2  503  502 -0.92787955336E+02  0.51628995700E+02 -0.32167189752E+03  0.33874469369E+03  0.00000000000E+00 0.  1.
<scales pt_clust_5="13000.00000" pt_clust_6="13000.00000" pt_clust_7="13000.00000" pt_clust_8="13000.00000" pt_clust_9="62.96145" pt_clust_10="106.80045"></scales>
<clustering>
<clus scale="   62.961">  1  9  2 -1</clus>
<clus scale="   91.579">  7  8 -1 -1</clus>
<clus scale="   91.992">  5  6 -1 -1</clus>
<clus scale="  106.800">  2 10  1 -1</clus>
<clus scale="  355.934">  2  7  1 -1</clus>
<clus scale="  106.800">  2  5  1 -1</clus>
</clustering>
</event>
<event>
10    2  0.1133532E-006  0.1021045E+03  0.7546771E-02  0.1278530E+00
         -1   -1    0    0    0  501 -0.00000000000E+00  0.00000000000E+00  0.88257245949E+02  0.88257245949E+02  0.00000000000E+00 0.  1.
          1   -1    0    0  503    0  0.00000000000E+00 -0.00000000000E+00 -0.57818638188E+03  0.57818638188E+03  0.00000000000E+00 0. -1.
         23    2    1    2    0    0 -0.12397614234E+02 -0.40867680604E+02 -0.56101583868E+02  0.12194964846E+03  0.99501059740E+02 0.  0.
         23    2    1    2    0    0  0.25053122531E+02 -0.16604136533E+02 -0.27775099909E+03  0.29489603296E+03  0.94417670291E+02 0.  0.
        -11    1    3    3    0    0 -0.52976746761E+02 -0.34846451099E+02 -0.17886234092E+02  0.65884203127E+02  0.00000000000E+00 0.  1.
         11    1    3    3    0    0  0.40579132527E+02 -0.60212295046E+01 -0.38215349776E+02  0.56065445329E+02  0.00000000000E+00 0. -1.
        -11    1    4    4    0    0  0.50493531686E+02 -0.39579678979E+02 -0.16440874153E+03  0.17648337605E+03  0.00000000000E+00 0. -1.
         11    1    4    4    0    0 -0.25440409155E+02  0.22975542445E+02 -0.11334225756E+03  0.11841265691E+03  0.00000000000E+00 0.  1.
         21    1    1    2  502  501 -0.81562407788E+01  0.28975236868E+02  0.40753460598E+02  0.50664910598E+02  0.00000000000E+00 0.  1.
         21    1    1    2  503  502 -0.44992675184E+01  0.28496580270E+02 -0.19683001357E+03  0.19893303582E+03  0.00000000000E+00 0.  1.
<scales pt_clust_5="13000.00000" pt_clust_6="13000.00000" pt_clust_7="13000.00000" pt_clust_8="13000.00000" pt_clust_9="30.47467" pt_clust_10="28.84958"></scales>
<clustering>
<clus scale="   28.850">  2 10  1 -1</clus>
<clus scale="   30.475">  1  9  2 -1</clus>
<clus scale="   94.418">  7  8 -1 -1</clus>
<clus scale="   97.157">  2  7  1 -1</clus>
<clus scale="   99.501">  5  6 -1 -1</clus>
<clus scale="   28.850">  2  5  1 -1</clus>
</clustering>
</event>
<event>
10    2  0.1133532E-006  0.4128941E+03  0.7546771E-02  0.1039418E+00
         -1   -1    0    0    0  501 -0.00000000000E+00  0.00000000000E+00  0.36837089059E+03  0.36837089059E+03  0.00000000000E+00 0.  1.
          1   -1    0    0  503    0  0.00000000000E+00 -0.00000000000E+00 -0.67974927145E+03  0.67974927145E+03  0.00000000000E+00 0. -1.
         23    2    1    2    0    0  0.39365434769E+03 -0.10552568490E+03 -0.45529169033E+02  0.41965283412E+03  0.89085241893E+02 0.  0.
         23    2    1    2    0    0 -0.40895279680E+03  0.51714203846E+01 -0.16443965655E+03  0.44986875824E+03  0.89846343285E+02 0.  0.
        -11    1    4    4    0    0 -0.28102170143E+03 -0.15925269656E+02 -0.15126213357E+03  0.31954192829E+03  0.00000000000E+00 0.  1.
         11    1    4    4    0    0 -0.12793109537E+03  0.21096690040E+02 -0.13177522984E+02  0.13032682995E+03  0.00000000000E+00 0. -1.
        -13    1    3    3    0    0  0.20051551949E+03 -0.80699022079E+02 -0.60202654529E+02  0.22437282663E+03  0.00000000000E+00 0.  1.
         13    1    3    3    0    0  0.19313882821E+03 -0.24826662816E+02  0.14673485496E+02  0.19528000749E+03  0.00000000000E+00 0. -1.
         21    1    1    2  502  501 -0.26537490910E+01  0.90507839050E+02 -0.17494040416E+02  0.92221216452E+02  0.00000000000E+00 0. -1.
         21    1    1    2  503  502  0.17952198192E+02  0.98464254610E+01 -0.83915514866E+02  0.86377353221E+02  0.00000000000E+00 0. -1.
<scales pt_clust_5="13000.00000" pt_clust_6="13000.00000" pt_clust_7="13000.00000" pt_clust_8="13000.00000" pt_clust_9="91.42171" pt_clust_10="20.47519"></scales>
<clustering>
<clus scale="   20.475">  2 10  1 -1</clus>
<clus scale="   89.085">  7  8 -1 -1</clus>
<clus scale="   89.846">  5  6 -1 -1</clus>
<clus scale="   91.422">  1  9  2 -1</clus>
<clus scale="  412.729">  1  7  2 -1</clus>
<clus scale="   20.475">  2  5  1 -1</clus>
</clustering>
</event>
<event>
10    2  0.1133532E-006  0.1066117E+03  0.7546771E-02  0.1268959E+00
         -1   -1    0    0    0  501 -0.00000000000E+00  0.00000000000E+00  0.12427942339E+03  0.12427942339E+03  0.00000000000E+00 0.  1.
          1   -1    0    0  503    0  0.00000000000E+00 -0.00000000000E+00 -0.27809486270E+03  0.27809486270E+03  0.00000000000E+00 0. -1.
         23    2    1    2    0    0  0.54485268473E+02 -0.28584994562E+02  0.58179754251E+02  0.12228933857E+03  0.88227275420E+02 0.  0.
         23    2    1    2    0    0 -0.19296926833E+02  0.10124480116E+02 -0.87971819662E+02  0.12976773441E+03  0.92874901644E+02 0.  0.
        -11    1    4    4    0    0  0.37587927291E+02  0.78170035750E+01 -0.37940461490E+02  0.53976258123E+02  0.00000000000E+00 0. -1.
         11    1    4    4    0    0 -0.56884854123E+02  0.23074765413E+01 -0.50031358172E+02  0.75791476283E+02  0.00000000000E+00 0.  1.
        -11    1    3    3    0    0  0.53029331227E+02 -0.55894284132E+02  0.29071945834E+02  0.82349614471E+02  0.00000000000E+00 0.  1.
         11    1    3    3    0    0  0.14559372458E+01  0.27309289570E+02  0.29107808418E+02  0.39939724097E+02  0.00000000000E+00 0. -1.
         21    1    1    2  502  501  0.11770822375E+02  0.19012393493E+02 -0.57902006173E+01  0.23098696693E+02  0.00000000000E+00 0.  1.
         21    1    1    2  503  502 -0.46959164015E+02 -0.55187904798E+00 -0.11823317329E+03  0.12721851642E+03  0.00000000000E+00 0.  1.
<scales pt_clust_5="13000.00000" pt_clust_6="13000.00000" pt_clust_7="13000.00000" pt_clust_8="13000.00000" pt_clust_9="22.36120" pt_clust_10="46.50218"></scales>
<clustering>
<clus scale="   22.361">  1  9  2 -1</clus>
<clus scale="   46.502">  2 10  1 -1</clus>
<clus scale="   88.227">  7  8 -1 -1</clus>
<clus scale="   92.875">  5  6 -1 -1</clus>
<clus scale="  102.588">  1  7  2 -1</clus>
<clus scale="   46.502">  2  5  1 -1</clus>
</clustering>
</event>
<event>
10    2  0.1133532E-006  0.2096831E+03  0.7546771E-02  0.1141998E+00
         -2   -1    0    0    0  501 -0.00000000000E+00  0.00000000000E+00  0.61994237202E+02  0.61994237202E+02  0.00000000000E+00 0.  1.
          2   -1    0    0  502    0  0.00000000000E+00 -0.00000000000E+00 -0.15233409119E+04  0.15233409119E+04  0.00000000000E+00 0. -1.
         23    2    1    2    0    0  0.60339908453E+02 -0.19115275997E+03 -0.29156924731E+03  0.36542201317E+03  0.91325459418E+02 0.  0.
         23    2    1    2    0    0  0.60664731307E+01  0.17284614910E+03 -0.53573528774E+03  0.57065425092E+03  0.93388340853E+02 0.  0.
        -11    1    3    3    0    0  0.58167117319E+02 -0.13531887361E+03 -0.26581744475E+03  0.30389722774E+03  0.00000000000E+00 0. -1.
         11    1    3    3    0    0  0.21727911343E+01 -0.55833886365E+02 -0.25751802555E+02  0.61524785435E+02  0.00000000000E+00 0.  1.
        -13    1    4    4    0    0  0.14837986782E+02  0.89446604289E+02 -0.40726991235E+03  0.41724050903E+03  0.00000000000E+00 0. -1.
         13    1    4    4    0    0 -0.87715136510E+01  0.83399544807E+02 -0.12846537539E+03  0.15341374189E+03  0.00000000000E+00 0.  1.
         21    1    1    2  502  503  0.20455835349E+02  0.44494417586E+02 -0.21437855057E+03  0.21990078976E+03  0.00000000000E+00 0.  1.
         21    1    1    2  503  501 -0.86862216933E+02 -0.26187806710E+02 -0.41966358906E+03  0.42935809522E+03  0.00000000000E+00 0.  1.
<scales pt_clust_5="13000.00000" pt_clust_6="13000.00000" pt_clust_7="13000.00000" pt_clust_8="13000.00000" pt_clust_9="48.97136" pt_clust_10="81.06687"></scales>
<clustering>
<clus scale="   48.971">  2  9  1 -1</clus>
<clus scale="   81.067">  2 10  1 -1</clus>
<clus scale="   91.325">  5  6 -1 -1</clus>
<clus scale="   93.388">  7  8 -1 -1</clus>
<clus scale="  208.772">  1  5  2 -1</clus>
<clus scale="   48.971">  2  5  1 -1</clus>
</clustering>
</event>
<event>
10    2  0.1735703E-006  0.1527376E+03  0.7546771E-02  0.1198378E+00
         -2   -1    0    0    0  501 -0.00000000000E+00  0.00000000000E+00  0.55118050627E+03  0.55118050627E+03  0.00000000000E+00 0.  1.
          2   -1    0    0  503    0  0.00000000000E+00 -0.00000000000E+00 -0.34053564309E+03  0.34053564309E+03  0.00000000000E+00 0. -1.
         23    2    1    2    0    0 -0.58479905581E+02  0.80416197998E+02  0.48068329367E+03  0.49935155112E+03  0.91699937512E+02 0.  0.
         23    2    1    2    0    0  0.56690038972E+02 -0.11612491087E+03 -0.20011696638E+03  0.25285825275E+03  0.84804129070E+02 0.  0.
        -11    1    3    3    0    0 -0.33379645313E+02  0.98467527175E+02  0.38537410634E+03  0.39915317419E+03  0.00000000000E+00 0.  1.
         11    1    3    3    0    0 -0.25100260268E+02 -0.18051329178E+02  0.95309187326E+02  0.10019837693E+03  0.00000000000E+00 0. -1.
        -13    1    4    4    0    0  0.37204646280E+02 -0.52890820555E+02 -0.31920968582E+02  0.72114997323E+02  0.00000000000E+00 0.  1.
         13    1    4    4    0    0  0.19485392692E+02 -0.63234090310E+02 -0.16819599780E+03  0.18074325543E+03  0.00000000000E+00 0. -1.
         21    1    1    2  502  501 -0.22172451362E+02  0.12921501070E+02  0.26909582341E+02  0.37184787361E+02  0.00000000000E+00 0.  1.
         21    1    1    2  503  502  0.23962317970E+02  0.22787211797E+02 -0.96831046438E+02  0.10232155813E+03  0.00000000000E+00 0.  1.
<scales pt_clust_5="13000.00000" pt_clust_6="13000.00000" pt_clust_7="13000.00000" pt_clust_8="13000.00000" pt_clust_9="25.66287" pt_clust_10="33.02973"></scales>
<clustering>
<clus scale="   25.663">  1  9  2 -1</clus>
<clus scale="   33.030">  2 10  1 -1</clus>
<clus scale="   84.804">  7  8 -1 -1</clus>
<clus scale="   91.700">  5  6 -1 -1</clus>
<clus scale="  148.700">  2  7  1 -1</clus>
<clus scale="   33.030">  2  5  1 -1</clus>
</clustering>
</event>
<event>
10    2  0.1133532E-006  0.9799148E+02  0.7546771E-02  0.1285205E+00
         -2   -1    0    0    0  501 -0.00000000000E+00  0.00000000000E+00  0.76055778095E+03  0.76055778095E+03  0.00000000000E+00 0.  1.
          2   -1    0    0  503    0  0.00000000000E+00 -0.00000000000E+00 -0.11919427786E+03  0.11919427786E+03  0.00000000000E+00 0. -1.
         23    2    1    2    0    0 -0.30533368368E+02 -0.33452237017E+02  0.41019430778E+03  0.42277884884E+03  0.91821817377E+02 0.  0.
         23    2    1    2    0    0 -0.24910699681E+02 -0.72312379416E+00  0.13175510071E+03  0.16182347604E+03  0.90588989218E+02 0.  0.
        -13    1    4    4    0    0  0.34008368561E+01  0.40197669799E+02  0.82362696364E+02  0.91711679196E+02  0.00000000000E+00 0. -1.
         13    1    4    4    0    0 -0.28311536537E+02 -0.40920793593E+02  0.49392404343E+02  0.70111796840E+02  0.00000000000E+00 0.  1.
        -13    1    3    3    0    0 -0.60726454504E+02 -0.58217502882E+01  0.26459559298E+03  0.27153714825E+03  0.00000000000E+00 0. -1.
         13    1    3    3    0    0  0.30193086136E+02 -0.27630486729E+02  0.14559871480E+03  0.15124170060E+03  0.00000000000E+00 0.  1.
         21    1    1    2  502  501 -0.15142749959E+02 -0.19299495695E+02  0.17622460975E+03  0.17792382216E+03  0.00000000000E+00 0.  1.
         21    1    1    2  503  502  0.70586818008E+02  0.53474856506E+02 -0.76810515141E+02  0.11722591177E+03  0.00000000000E+00 0. -1.
<scales pt_clust_5="13000.00000" pt_clust_6="13000.00000" pt_clust_7="13000.00000" pt_clust_8="13000.00000" pt_clust_9="24.53107" pt_clust_10="87.73403"></scales>
<clustering>
<clus scale="   24.531">  1  9  2 -1</clus>
<clus scale="   87.734">  2 10  1 -1</clus>
<clus scale="   90.589">  5  6 -1 -1</clus>
<clus scale="   91.822">  7  8 -1 -1</clus>
<clus scale="   96.837">  2  5  1 -1</clus>
<clus scale="   87.734">  2  5  1 -1</clus>
</clustering>
</event>
<event>
10    2  0.1133532E-006  0.1273101E+03  0.7546771E-02  0.1231909E+00
         -2   -1    0    0    0  501 -0.00000000000E+00  0.00000000000E+00  0.34268953953E+03  0.34268953953E+03  0.00000000000E+00 0.  1.
          2   -1    0    0  503    0  0.00000000000E+00 -0.00000000000E+00 -0.20036520308E+03  0.20036520308E+03  0.00000000000E+00 0. -1.
         23    2    1    2    0    0 -0.12115259269E+03  0.33273576577E+02  0.24880464133E+03  0.29346319799E+03  0.91824928073E+02 0.  0.
         23    2    1    2    0    0  0.39547865564E+02 -0.14620690816E+02 -0.60973336672E+02  0.11914969564E+03  0.93279707948E+02 0.  0.
        -11    1    3    3    0    0 -0.11857831332E+03  0.84766335229E+01  0.14911637897E+03  0.19070491389E+03  0.00000000000E+00 0.  1.
         11    1    3    3    0    0 -0.25742793724E+01  0.24796943054E+02  0.99688262362E+02  0.10275828410E+03  0.00000000000E+00 0. -1.
        -11    1    4    4    0    0  0.51323018257E+02  0.14385792426E+02 -0.31478222826E+01  0.53393932351E+02  0.00000000000E+00 0. -1.
         11    1    4    4    0    0 -0.11775152693E+02 -0.29006483242E+02 -0.57825514389E+02  0.65755763287E+02  0.00000000000E+00 0.  1.
         21    1    1    2  502  501  0.29822746711E+02 -0.14128983118E+02  0.26018686216E+02  0.42023760158E+02  0.00000000000E+00 0. -1.
         21    1    1    2  503  502  0.51781980417E+02 -0.45239026424E+01 -0.71525654418E+02  0.88418088822E+02  0.00000000000E+00 0. -1.
<scales pt_clust_5="13000.00000" pt_clust_6="13000.00000" pt_clust_7="13000.00000" pt_clust_8="13000.00000" pt_clust_9="33.00037" pt_clust_10="52.82676"></scales>
<clustering>
<clus scale="   33.000">  1  9  2 -1</clus>
<clus scale="   52.827">  2 10  1 -1</clus>
<clus scale="   91.825">  5  6 -1 -1</clus>
<clus scale="   93.280">  7  8 -1 -1</clus>
<clus scale="  126.248">  1  5  2 -1</clus>
<clus scale="   52.827">  2  5  1 -1</clus>
</clustering>
</event>
<event>
10    2  0.1133532E-006  0.9468409E+02  0.7546771E-02  0.1294001E+00
         -3   -1    0    0    0  501 -0.00000000000E+00  0.00000000000E+00  0.36833503614E+03  0.36833503614E+03  0.00000000000E+00 0.  1.
          3   -1    0    0  503    0  0.00000000000E+00 -0.00000000000E+00 -0.13878784233E+03  0.13878784233E+03  0.00000000000E+00 0. -1.
         23    2    1    2    0    0  0.40620439033E+02  0.14053865590E+01  0.26486873695E+03  0.28310754871E+03  0.91336964824E+02 0.  0.
         23    2    1    2    0    0 -0.39750823978E+02 -0.13167074995E+02 -0.25102336346E+01  0.97073715773E+02  0.87541448184E+02 0.  0.
        -11    1    3    3    0    0  0.60676180960E+02  0.26586950378E+02  0.20008068328E+03  0.21076229427E+03  0.00000000000E+00 0.  1.
         11    1    3    3    0    0 -0.20055741927E+02 -0.25181563819E+02  0.64788053673E+02  0.72345254435E+02  0.00000000000E+00 0. -1.
        -13    1    4    4    0    0  0.19430370501E+02 -0.29754298577E+02 -0.23085007625E+01  0.35611609868E+02  0.00000000000E+00 0. -1.
         13    1    4    4    0    0 -0.59181194479E+02  0.16587223582E+02 -0.20173287216E+00  0.61462105905E+02  0.00000000000E+00 0.  1.
         21    1    1    2  502  501 -0.25200087658E+02  0.63420751374E+01  0.41275243625E+02  0.48774092215E+02  0.00000000000E+00 0.  1.
         21    1    1    2  503  502  0.24330472604E+02  0.54196132984E+01 -0.74086553135E+02  0.78167521778E+02  0.00000000000E+00 0. -1.
<scales pt_clust_5="13000.00000" pt_clust_6="13000.00000" pt_clust_7="13000.00000" pt_clust_8="13000.00000" pt_clust_9="24.66230" pt_clust_10="24.92677"></scales>
<clustering>
<clus scale="   24.927">  2 10  1 -1</clus>
<clus scale="   24.662">  1  9  2 -1</clus>
<clus scale="   87.541">  7  8 -1 -1</clus>
<clus scale="   91.028">  2  7  1 -1</clus>
<clus scale="   91.337">  5  6 -1 -1</clus>
<clus scale="   24.927">  2  5  1 -1</clus>
</clustering>
</event>
<event>
10    2  0.1133532E-006  0.1096501E+03  0.7546771E-02  0.1261495E+00
          1   -1    0    0  503    0  0.00000000000E+00  0.00000000000E+00  0.10289405014E+03  0.10289405014E+03  0.00000000000E+00 0. -1.
         -1   -1    0    0    0  501 -0.00000000000E+00 -0.00000000000E+00 -0.30004680670E+03  0.30004680670E+03  0.00000000000E+00 0.  1.
         23    2    1    2    0    0 -0.58141023255E+02 -0.50840953402E+01 -0.13239577997E+03  0.17190258154E+03  0.92820409260E+02 0.  0.
         23    2    1    2    0    0  0.51454337974E+02  0.60065025623E+02  0.15374465399E+02  0.12238500828E+03  0.92121440866E+02 0.  0.
        -11    1    3    3    0    0 -0.12630205340E+02  0.26263758327E+02 -0.10733932827E+03  0.11122517019E+03  0.00000000000E+00 0.  1.
         11    1    3    3    0    0 -0.45510817915E+02 -0.31347853667E+02 -0.25056451692E+02  0.60677411351E+02  0.00000000000E+00 0. -1.
        -11    1    4    4    0    0  0.75595430991E+02  0.31898923103E+02 -0.45853525432E+00  0.82051329889E+02  0.00000000000E+00 0. -1.
         11    1    4    4    0    0 -0.24141093018E+02  0.28166102520E+02  0.15833000653E+02  0.40333678396E+02  0.00000000000E+00 0.  1.
         21    1    1    2  502  501  0.21664083128E+02 -0.35123349950E+02 -0.71068463185E+02  0.82180950767E+02  0.00000000000E+00 0. -1.
         21    1    1    2  503  502 -0.14977397847E+02 -0.19857580333E+02 -0.90629788127E+01  0.26472316255E+02  0.00000000000E+00 0. -1.
<scales pt_clust_5="13000.00000" pt_clust_6="13000.00000" pt_clust_7="13000.00000" pt_clust_8="13000.00000" pt_clust_9="41.82273" pt_clust_10="24.87259"></scales>
<clustering>
<clus scale="   24.873">  1 10  2 -1</clus>
<clus scale="   41.823">  2  9  1 -1</clus>
<clus scale="   92.121">  7  8 -1 -1</clus>
<clus scale="   92.820">  5  6 -1 -1</clus>
<clus scale="  109.059">  1  7  2 -1</clus>
<clus scale="   24.873">  1  5  2 -1</clus>
</clustering>
</event>
<event>
10    2  0.1133532E-006  0.1618919E+03  0.7546771E-02  0.1208872E+00
          1   -1    0    0  503    0  0.00000000000E+00  0.00000000000E+00  0.14233005505E+04  0.14233005505E+04  0.00000000000E+00 0. -1.
         -1   -1    0    0    0  501 -0.00000000000E+00 -0.00000000000E+00 -0.61074241701E+02  0.61074241701E+02  0.00000000000E+00 0.  1.
         23    2    1    2    0    0 -0.25081067198E+02 -0.44577281962E+02  0.10425656596E+03  0.14756604978E+03  0.91050060420E+02 0.  0.
         23    2    1    2    0    0 -0.17830858090E+02 -0.11076982321E+03  0.14931152713E+03  0.20729115583E+03  0.89932185110E+02 0.  0.
        -11    1    3    3    0    0 -0.56246555068E+01  0.22277098487E+02  0.96308608624E+00  0.22996378006E+02  0.00000000000E+00 0. -1.
         11    1    3    3    0    0 -0.19456411691E+02 -0.66854380449E+02  0.10329347987E+03  0.12456967177E+03  0.00000000000E+00 0.  1.
        -13    1    4    4    0    0  0.61692611042E+01 -0.10239698677E+03  0.70476032845E+02  0.12445912537E+03  0.00000000000E+00 0.  1.
         13    1    4    4    0    0 -0.24000119194E+02 -0.83728364375E+01  0.78835494289E+02  0.82832030466E+02  0.00000000000E+00 0. -1.
         21    1    1    2  502  501  0.25254455026E+02  0.18442666691E+02  0.34649767574E+02  0.46674680998E+02  0.00000000000E+00 0.  1.
         21    1    1    2  503  502  0.17657470262E+02  0.13690443848E+03  0.10740084481E+04  0.10828429055E+04  0.00000000000E+00 0. -1.
<scales pt_clust_5="13000.00000" pt_clust_6="13000.00000" pt_clust_7="13000.00000" pt_clust_8="13000.00000" pt_clust_9="31.27170" pt_clust_10="134.61493"></scales>
<clustering>
<clus scale="   31.272">  2  9  1 -1</clus>
<clus scale="   89.932">  7  8 -1 -1</clus>
<clus scale="   91.050">  5  6 -1 -1</clus>
<clus scale="   99.563">  2  5  1 -1</clus>
<clus scale="  134.615">  1 10  2 -1</clus>
<clus scale="  134.615">  1  5  2 -1</clus>
</clustering>
</event>
<event>
10    2  0.1133532E-006  0.9519513E+02  0.7546771E-02  0.1291038E+00
          1   -1    0    0  503    0  0.00000000000E+00  0.00000000000E+00  0.16541915909E+03  0.16541915909E+03  0.00000000000E+00 0. -1.
         -1   -1    0    0    0  501 -0.00000000000E+00 -0.00000000000E+00 -0.20550126424E+03  0.20550126424E+03  0.00000000000E+00 0.  1.
         23    2    1    2    0    0 -0.22866490512E+02  0.16593004727E+02 -0.71368326855E+02  0.11883631089E+03  0.90721698143E+02 0.  0.
         23    2    1    2    0    0  0.18419329498E+02 -0.11972863376E+02 -0.38811272161E+02  0.10159046131E+03  0.91278068704E+02 0.  0.
        -11    1    4    4    0    0  0.35492102318E+02  0.94161880700E+00 -0.61112509894E+02  0.70677541259E+02  0.00000000000E+00 0. -1.
         11    1    4    4    0    0 -0.17072772820E+02 -0.12914482183E+02  0.22301237733E+02  0.30912920053E+02  0.00000000000E+00 0.  1.
        -13    1    3    3    0    0 -0.24707213396E+02 -0.58537750495E+01  0.15060153400E+02  0.29521539536E+02  0.00000000000E+00 0. -1.
         13    1    3    3    0    0  0.18407228833E+01  0.22446779777E+02 -0.86428480256E+02  0.89314771356E+02  0.00000000000E+00 0.  1.
         21    1    1    2  502  501  0.36417013096E+01  0.29566433714E+02 -0.31464313790E+02  0.43329424567E+02  0.00000000000E+00 0.  1.
         21    1    1    2  503  502  0.80545970477E+00 -0.34186575065E+02  0.10156180765E+03  0.10716422656E+03  0.00000000000E+00 0. -1.
<scales pt_clust_5="13000.00000" pt_clust_6="13000.00000" pt_clust_7="13000.00000" pt_clust_8="13000.00000" pt_clust_9="29.78986" pt_clust_10="33.70503"></scales>
<clustering>
<clus scale="   29.790">  2  9  1 -1</clus>
<clus scale="   33.705">  1 10  2 -1</clus>
<clus scale="   90.722">  7  8 -1 -1</clus>
<clus scale="   91.278">  5  6 -1 -1</clus>
<clus scale="   94.662">  2  7  1 -1</clus>
<clus scale="   33.705">  1  5  2 -1</clus>
</clustering>
</event>
<event>
10    2  0.1133532E-006  0.9706434E+02  0.7546771E-02  0.1290038E+00
          1   -1    0    0  503    0  0.00000000000E+00  0.00000000000E+00  0.37023010061E+02  0.37023010061E+02  0.00000000000E+00 0. -1.
         -1   -1    0    0    0  501 -0.00000000000E+00 -0.00000000000E+00 -0.52153971068E+03  0.52153971068E+03  0.00000000000E+00 0.  1.
         23    2    1    2    0    0 -0.83355077212E+01 -0.26306914580E+02 -0.24322273353E+03  0.26042100902E+03  0.88883459569E+02 0.  0.
         23    2    1    2    0    0  0.15790811366E+02 -0.28303599667E+01 -0.17462518694E+03  0.19948692659E+03  0.95098461094E+02 0.  0.
        -11    1    3    3    0    0 -0.23825261078E+02  0.25817606045E+02 -0.62524872052E+02  0.71718557378E+02  0.00000000000E+00 0. -1.
         11    1    3    3    0    0  0.15489753357E+02 -0.52124520625E+02 -0.18069786148E+03  0.18870245164E+03  0.00000000000E+00 0.  1.
        -11    1    4    4    0    0 -0.12326223753E+02 -0.44030305738E+02 -0.70465502684E+02  0.83999944547E+02  0.00000000000E+00 0.  1.
         11    1    4    4    0    0  0.28117035119E+02  0.41199945771E+02 -0.10415968426E+03  0.11548698204E+03  0.00000000000E+00 0. -1.
         21    1    1    2  502  501 -0.23022983612E+02  0.73085074174E+01 -0.67642228687E+02  0.71825783371E+02  0.00000000000E+00 0.  1.
         21    1    1    2  503  502  0.15567679967E+02  0.21828767130E+02  0.97344854304E+00  0.26829001771E+02  0.00000000000E+00 0. -1.
<scales pt_clust_5="13000.00000" pt_clust_6="13000.00000" pt_clust_7="13000.00000" pt_clust_8="13000.00000" pt_clust_9="24.15517" pt_clust_10="26.60722"></scales>
<clustering>
<clus scale="   24.155">  2  9  1 -1</clus>
<clus scale="   26.607">  1 10  2 -1</clus>
<clus scale="   88.883">  5  6 -1 -1</clus>
<clus scale="   90.984">  2  5  1 -1</clus>
<clus scale="   95.098">  7  8 -1 -1</clus>
<clus scale="   26.607">  1  5  2 -1</clus>
</clustering>
</event>
<event>
10    2  0.1133532E-006  0.9611723E+02  0.7546771E-02  0.1289996E+00
          1   -1    0    0  503    0  0.00000000000E+00  0.00000000000E+00  0.44348488807E+03  0.44348488807E+03  0.00000000000E+00 0. -1.
         -1   -1    0    0    0  501 -0.00000000000E+00 -0.00000000000E+00 -0.36984859565E+03  0.36984859565E+03  0.00000000000E+00 0.  1.
         23    2    1    2    0    0 -0.29296651517E+02  0.28541599923E+02 -0.87807980019E+02  0.13420835862E+03  0.92890933102E+02 0.  0.
         23    2    1    2    0    0 -0.16907693742E+02  0.14864899824E+02  0.34992742755E+03  0.36213240652E+03  0.90464578403E+02 0.  0.
        -11    1    3    3    0    0 -0.20058291865E+02  0.62618441843E+02 -0.62954095105E+02  0.91030887186E+02  0.00000000000E+00 0.  1.
         11    1    3    3    0    0 -0.92383596524E+01 -0.34076841920E+02 -0.24853884914E+02  0.43177471436E+02  0.00000000000E+00 0. -1.
        -13    1    4    4    0    0  0.65819283629E+01 -0.34777051067E+02  0.18335882279E+03  0.18674373606E+03  0.00000000000E+00 0. -1.
         13    1    4    4    0    0 -0.23489622105E+02  0.49641950890E+02  0.16656860476E+03  0.17538867047E+03  0.00000000000E+00 0.  1.
         21    1    1    2  502  501  0.55777681066E+02 -0.15043667931E+02 -0.24570959210E+03  0.25240971712E+03  0.00000000000E+00 0.  1.
         21    1    1    2  503  502 -0.95733358064E+01 -0.28362831816E+02  0.57226436979E+02  0.64583001451E+02  0.00000000000E+00 0. -1.
<scales pt_clust_5="13000.00000" pt_clust_6="13000.00000" pt_clust_7="13000.00000" pt_clust_8="13000.00000" pt_clust_9="57.75510" pt_clust_10="29.93491"></scales>
<clustering>
<clus scale="   29.935">  1 10  2 -1</clus>
<clus scale="   57.755">  2  9  1 -1</clus>
<clus scale="   90.465">  7  8 -1 -1</clus>
<clus scale="   92.891">  5  6 -1 -1</clus>
<clus scale="   93.774">  1  7  2 -1</clus>
<clus scale="   29.935">  1  5  2 -1</clus>
</clustering>
</event>
<event>
10    2  0.1133532E-006  0.1124810E+03  0.7546771E-02  0.1265780E+00
          1   -1    0    0  503    0  0.00000000000E+00  0.00000000000E+00  0.13852131058E+03  0.13852131058E+03  0.00000000000E+00 0. -1.
         -1   -1    0    0    0  501 -0.00000000000E+00 -0.00000000000E+00 -0.23316163981E+03  0.23316163981E+03  0.00000000000E+00 0.  1.
         23    2    1    2    0    0  0.39520729648E+01  0.10992821400E+02 -0.72773593039E+02  0.13044415184E+03  0.10762536830E+03 0.  0.
         23    2    1    2    0    0  0.38270262305E+02  0.23819774841E+02  0.49241429306E+02  0.10964191132E+03  0.86974914248E+02 0.  0.
        -11    1    4    4    0    0  0.46397292210E+02 -0.49789770698E+01 -0.57695824947E+01  0.47019007000E+02  0.00000000000E+00 0.  1.
         11    1    4    4    0    0 -0.81270299047E+01  0.28798751911E+02  0.55011011801E+02  0.62622904325E+02  0.00000000000E+00 0. -1.
        -13    1    3    3    0    0  0.31724545525E+02 -0.39401155015E+02 -0.30841048123E+02  0.59245827318E+02  0.00000000000E+00 0.  1.
         13    1    3    3    0    0 -0.27772472560E+02  0.50393976414E+02 -0.41932544916E+02  0.71198324517E+02  0.00000000000E+00 0. -1.
         21    1    1    2  502  501  0.26461597603E+02  0.87067487860E+01 -0.28281833719E+02  0.39697427380E+02  0.00000000000E+00 0.  1.
         21    1    1    2  503  502 -0.68683932873E+02 -0.43519345027E+02 -0.42826331783E+02  0.91899459848E+02  0.00000000000E+00 0. -1.
<scales pt_clust_5="13000.00000" pt_clust_6="13000.00000" pt_clust_7="13000.00000" pt_clust_8="13000.00000" pt_clust_9="27.85720" pt_clust_10="72.21133"></scales>
<clustering>
<clus scale="   27.857">  2  9  1 -1</clus>
<clus scale="   72.211">  2 10  1 -1</clus>
<clus scale="   86.975">  5  6 -1 -1</clus>
<clus scale="   92.916">  1  5  2 -1</clus>
<clus scale="  107.625">  7  8 -1 -1</clus>
<clus scale="   92.916">  1  5  2 -1</clus>
</clustering>
</event>
<event>
10    2  0.1133532E-006  0.9366963E+02  0.7546771E-02  0.1295003E+00
         -1   -1    0    0    0  501 -0.00000000000E+00  0.00000000000E+00  0.17037322623E+03  0.17037322623E+03  0.00000000000E+00 0.  1.
          1   -1    0    0  503    0  0.00000000000E+00 -0.00000000000E+00 -0.24934331301E+03  0.24934331301E+03  0.00000000000E+00 0. -1.
         23    2    1    2    0    0 -0.44826228180E+02  0.49640264709E+01  0.31563004366E+02  0.10573042957E+03  0.90269973971E+02 0.  0.
         23    2    1    2    0    0 -0.19326352748E+02  0.39264579730E+02 -0.67781880871E+02  0.12213184154E+03  0.91687448501E+02 0.  0.
        -11    1    4    4    0    0  0.90356339553E+01  0.22431189252E+02 -0.82532396302E+02  0.86002310268E+02  0.00000000000E+00 0. -1.
         11    1    4    4    0    0 -0.28361986704E+02  0.16833390478E+02  0.14750515430E+02  0.36129531276E+02  0.00000000000E+00 0.  1.
        -11    1    3    3    0    0  0.25828411795E+02 -0.16061968765E+01  0.22315053857E+02  0.34170869946E+02  0.00000000000E+00 0. -1.
         11    1    3    3    0    0 -0.70654639975E+02  0.65702233474E+01  0.92479505091E+01  0.71559559623E+02  0.00000000000E+00 0.  1.
         21    1    1    2  502  501  0.25134043914E+02 -0.47677251919E+01  0.65439023730E+02  0.70261776193E+02  0.00000000000E+00 0. -1.
         21    1    1    2  503  502  0.39018537015E+02 -0.39460881009E+02 -0.10819023400E+03  0.12159249193E+03  0.00000000000E+00 0. -1.
<scales pt_clust_5="13000.00000" pt_clust_6="13000.00000" pt_clust_7="13000.00000" pt_clust_8="13000.00000" pt_clust_9="25.58225" pt_clust_10="56.87881"></scales>
<clustering>
<clus scale="   25.582">  1  9  2 -1</clus>
<clus scale="   56.879">  2 10  1 -1</clus>
<clus scale="   90.270">  7  8 -1 -1</clus>
<clus scale="   91.687">  5  6 -1 -1</clus>
<clus scale="   92.283">  1  7  2 -1</clus>
<clus scale="   56.879">  2  5  1 -1</clus>
</clustering>
</event>
<event>
10    2  0.1133532E-006  0.9283856E+02  0.7546771E-02  0.1296970E+00
         -2   -1    0    0    0  501 -0.00000000000E+00  0.00000000000E+00  0.17923717458E+03  0.17923717458E+03  0.00000000000E+00 0.  1.
          2   -1    0    0  503    0  0.00000000000E+00 -0.00000000000E+00 -0.20819040323E+03  0.20819040323E+03  0.00000000000E+00 0. -1.
         23    2    1    2    0    0  0.22519951903E+02  0.23594009103E+02  0.30283903362E+02  0.98649654492E+02  0.88038707562E+02 0.  0.
         23    2    1    2    0    0 -0.42884333349E+01 -0.25724539756E+02 -0.62441845602E+02  0.10982996722E+03  0.86507196300E+02 0.  0.
        -11    1    4    4    0    0 -0.34732710180E+02  0.45671954809E+01 -0.12281414331E+01  0.35053227560E+02  0.00000000000E+00 0.  1.
         11    1    4    4    0    0  0.30444276845E+02 -0.30291735237E+02 -0.61213704169E+02  0.74776739661E+02  0.00000000000E+00 0. -1.
        -13    1    3    3    0    0 -0.27150239290E+02  0.27803231078E+02  0.29509966640E+02  0.48795422767E+02  0.00000000000E+00 0.  1.
         13    1    3    3    0    0  0.49670191194E+02 -0.42092219743E+01  0.77393672204E+00  0.49854231725E+02  0.00000000000E+00 0. -1.
         21    1    1    2  502  501 -0.37005472373E+02  0.12518519672E+02  0.85446526272E+02  0.93953324434E+02  0.00000000000E+00 0.  1.
         21    1    1    2  503  502  0.18773953805E+02 -0.10387989020E+02 -0.82241812683E+02  0.84994631658E+02  0.00000000000E+00 0. -1.
<scales pt_clust_5="13000.00000" pt_clust_6="13000.00000" pt_clust_7="13000.00000" pt_clust_8="13000.00000" pt_clust_9="38.34491" pt_clust_10="21.45627"></scales>
<clustering>
<clus scale="   21.456">  2 10  1 -1</clus>
<clus scale="   38.345">  1  9  2 -1</clus>
<clus scale="   86.507">  5  6 -1 -1</clus>
<clus scale="   88.039">  7  8 -1 -1</clus>
<clus scale="   91.388">  2  5  1 -1</clus>
<clus scale="   21.456">  2  5  1 -1</clus>
</clustering>
</event>
<event>
10    2  0.1133532E-006  0.2528645E+03  0.7546771E-02  0.1142138E+00
         -1   -1    0    0    0  501 -0.00000000000E+00  0.00000000000E+00  0.30661646445E+03  0.30661646445E+03  0.00000000000E+00 0.  1.
          1   -1    0    0  503    0  0.00000000000E+00 -0.00000000000E+00 -0.80873635255E+03  0.80873635255E+03  0.00000000000E+00 0. -1.
         23    2    1    2    0    0 -0.21380545241E+02  0.67653354878E+02 -0.37947634671E+02  0.12207657146E+03  0.91807201134E+02 0.  0.
         23    2    1    2    0    0  0.22842667630E+03 -0.17556104197E+03 -0.48731965619E+02  0.30137838267E+03  0.73849164913E+02 0.  0.
        -11    1    4    4    0    0  0.55433930768E+02 -0.41391344135E+02 -0.44795320136E+02  0.82418352057E+02  0.00000000000E+00 0.  1.
         11    1    4    4    0    0  0.17299274554E+03 -0.13416969784E+03 -0.39366454832E+01  0.21896003061E+03  0.00000000000E+00 0. -1.
        -13    1    3    3    0    0  0.66641900289E+01  0.76480210478E+02 -0.35865533863E+01  0.76853740239E+02  0.00000000000E+00 0.  1.
         13    1    3    3    0    0 -0.28044735269E+02 -0.88268555998E+01 -0.34361081285E+02  0.45222831216E+02  0.00000000000E+00 0. -1.
         21    1    1    2  502  501  0.11821395165E+02  0.23461711901E+02  0.11178771831E+03  0.11483331953E+03  0.00000000000E+00 0. -1.
         21    1    1    2  503  502 -0.21886752623E+03  0.84445975195E+02 -0.52722800612E+03  0.57706454336E+03  0.00000000000E+00 0.  1.
<scales pt_clust_5="13000.00000" pt_clust_6="13000.00000" pt_clust_7="13000.00000" pt_clust_8="13000.00000" pt_clust_9="26.27161" pt_clust_10="241.84037"></scales>
<clustering>
<clus scale="   26.272">  1  9  2 -1</clus>
<clus scale="   73.849">  5  6 -1 -1</clus>
<clus scale="   91.807">  7  8 -1 -1</clus>
<clus scale="  118.643">  1  7  2 -1</clus>
<clus scale="  241.840">  2 10  1 -1</clus>
<clus scale="  241.840">  2  5  1 -1</clus>
</clustering>
</event>
<event>
10    2  0.1133532E-006  0.1040061E+03  0.7546771E-02  0.1273722E+00
          1   -1    0    0  503    0  0.00000000000E+00  0.00000000000E+00  0.59288295838E+02  0.59288295838E+02  0.00000000000E+00 0. -1.
         -1   -1    0    0    0  501 -0.00000000000E+00 -0.00000000000E+00 -0.54932193058E+03  0.54932193058E+03  0.00000000000E+00 0.  1.
         23    2    1    2    0    0 -0.76596060781E+00 -0.24257496351E+02 -0.33752155013E+03  0.35033810144E+03  0.90702677417E+02 0.  0.
         23    2    1    2    0    0 -0.15603311179E+02  0.47046762986E+02 -0.31061269380E+02  0.11093714855E+03  0.94262332061E+02 0.  0.
        -11    1    4    4    0    0 -0.24023935920E+02  0.22768005645E+02  0.30010937642E+02  0.44678719277E+02  0.00000000000E+00 0. -1.
         11    1    4    4    0    0  0.84206247414E+01  0.24278757341E+02 -0.61072207022E+02  0.66258429272E+02  0.00000000000E+00 0.  1.
        -13    1    3    3    0    0 -0.26420632260E+02 -0.43400407973E+02 -0.27942448950E+03  0.28400649738E+03  0.00000000000E+00 0.  1.
         13    1    3    3    0    0  0.25654671652E+02  0.19142911621E+02 -0.58097060634E+02  0.66331604061E+02  0.00000000000E+00 0. -1.
         21    1    1    2  502  501  0.38385526787E+02 -0.11320633252E+02 -0.11488663305E+03  0.12165748583E+03  0.00000000000E+00 0. -1.
         21    1    1    2  503  502 -0.22016255001E+02 -0.11468633383E+02 -0.65641821762E+01  0.25677490601E+02  0.00000000000E+00 0.  1.
<scales pt_clust_5="13000.00000" pt_clust_6="13000.00000" pt_clust_7="13000.00000" pt_clust_8="13000.00000" pt_clust_9="38.82111" pt_clust_10="24.82428"></scales>
<clustering>
<clus scale="   24.824">  1 10  2 -1</clus>
<clus scale="   38.821">  2  9  1 -1</clus>
<clus scale="   90.703">  7  8 -1 -1</clus>
<clus scale="   94.262">  5  6 -1 -1</clus>
<clus scale="  100.791">  2  7  1 -1</clus>
<clus scale="   24.824">  1  5  2 -1</clus>
</clustering>
</event>
<event>
10    2  0.1133532E-006  0.1431371E+03  0.7546771E-02  0.1227604E+00
          1   -1    0    0  503    0  0.00000000000E+00  0.00000000000E+00  0.70650163367E+03  0.70650163367E+03  0.00000000000E+00 0. -1.
         -1   -1    0    0    0  501 -0.00000000000E+00 -0.00000000000E+00 -0.65640670400E+02  0.65640670400E+02  0.00000000000E+00 0.  1.
         23    2    1    2    0    0 -0.24769343569E+01  0.33345241510E+02  0.10217370281E+03  0.14237555968E+03  0.93345027262E+02 0.  0.
         23    2    1    2    0    0  0.98496844453E+02 -0.36080313970E+02  0.16064859948E+03  0.21406617738E+03  0.94936496465E+02 0.  0.
        -13    1    4    4    0    0 -0.53892449849E+01  0.20902755215E+02  0.14891971321E+02  0.26224796413E+02  0.00000000000E+00 0. -1.
         13    1    4    4    0    0  0.10388608944E+03 -0.56983069185E+02  0.14575662816E+03  0.18784138097E+03  0.00000000000E+00 0.  1.
        -13    1    3    3    0    0  0.13858796768E+02  0.61248819533E+02  0.47046409497E+02  0.78465589838E+02  0.00000000000E+00 0.  1.
         13    1    3    3    0    0 -0.16335731125E+02 -0.27903578023E+02  0.55127293310E+02  0.63909969845E+02  0.00000000000E+00 0. -1.
         21    1    1    2  502  501  0.10008271874E+02 -0.18014548510E+02 -0.19038150308E+01  0.20695747766E+02  0.00000000000E+00 0.  1.
         21    1    1    2  503  502 -0.10602818197E+03  0.20749620970E+02  0.37994247602E+03  0.39500481924E+03  0.00000000000E+00 0. -1.
<scales pt_clust_5="13000.00000" pt_clust_6="13000.00000" pt_clust_7="13000.00000" pt_clust_8="13000.00000" pt_clust_9="20.60800" pt_clust_10="107.12280"></scales>
<clustering>
<clus scale="   20.608">  2  9  1 -1</clus>
<clus scale="   93.345">  7  8 -1 -1</clus>
<clus scale="   94.936">  5  6 -1 -1</clus>
<clus scale="   97.091">  2  7  1 -1</clus>
<clus scale="  107.123">  1 10  2 -1</clus>
<clus scale="  107.123">  1  5  2 -1</clus>
</clustering>
</event>
<event>
10    2  0.1133532E-006  0.1242707E+03  0.7546771E-02  0.1236929E+00
          1   -1    0    0  502    0  0.00000000000E+00  0.00000000000E+00  0.52574521987E+03  0.52574521987E+03  0.00000000000E+00 0. -1.
         -1   -1    0    0    0  501 -0.00000000000E+00 -0.00000000000E+00 -0.10340610792E+03  0.10340610792E+03  0.00000000000E+00 0.  1.
         23    2    1    2    0    0  0.77429819516E+02  0.36966671047E+02 -0.45162330219E+02  0.13510758091E+03  0.94087781517E+02 0.  0.
         23    2    1    2    0    0 -0.36886695618E+02 -0.31315681443E+02  0.32586465120E+03  0.34196033276E+03  0.91694045933E+02 0.  0.
        -13    1    3    3    0    0 -0.11953683488E+00  0.25778636844E+02  0.20454900133E+02  0.32908286890E+02  0.00000000000E+00 0. -1.
         13    1    3    3    0    0  0.77549356350E+02  0.11188034203E+02 -0.65617230352E+02  0.10219929402E+03  0.00000000000E+00 0.  1.
        -13    1    4    4    0    0 -0.50448292866E+02 -0.51108682236E+02  0.29035969113E+03  0.29910847177E+03  0.00000000000E+00 0. -1.
         13    1    4    4    0    0  0.13561597248E+02  0.19793000793E+02  0.35504960075E+02  0.42851860989E+02  0.00000000000E+00 0.  1.
         21    1    1    2  502  503 -0.18558000651E+02 -0.91692546461E+01  0.21288867915E+02  0.29693273919E+02  0.00000000000E+00 0. -1.
         21    1    1    2  503  501 -0.21985123247E+02  0.35182650417E+01  0.12034792305E+03  0.12239014019E+03  0.00000000000E+00 0.  1.
<scales pt_clust_5="13000.00000" pt_clust_6="13000.00000" pt_clust_7="13000.00000" pt_clust_8="13000.00000" pt_clust_9="20.69963" pt_clust_10="26.51914"></scales>
<clustering>
<clus scale="   20.700">  1  9  2 -1</clus>
<clus scale="   26.519">  1 10  2 -1</clus>
<clus scale="   91.694">  7  8 -1 -1</clus>
<clus scale="   94.088">  5  6 -1 -1</clus>
<clus scale="  122.468">  1  7  2 -1</clus>
<clus scale="   20.700">  1  5  2 -1</clus>
</clustering>
</event>
<event>
10    2  0.1133532E-006  0.9625279E+02  0.7546771E-02  0.1293107E+00
         -2   -1    0    0    0  501 -0.00000000000E+00  0.00000000000E+00  0.86044538219E+02  0.86044538219E+02  0.00000000000E+00 0.  1.
          2   -1    0    0  503    0  0.00000000000E+00 -0.00000000000E+00 -0.36451141993E+03  0.36451141993E+03  0.00000000000E+00 0. -1.
         23    2    1    2    0    0  0.38318953443E+02 -0.11929671758E+02 -0.29268591846E+02  0.98297122498E+02  0.84823431677E+02 0.  0.
         23    2    1    2    0    0  0.55106886201E+01 -0.45017502295E+02 -0.22537310710E+03  0.24808656032E+03  0.93257497302E+02 0.  0.
        -13    1    3    3    0    0 -0.28700375686E+01 -0.35756113469E+02 -0.35306345017E+02  0.50331647743E+02  0.00000000000E+00 0. -1.
         13    1    3    3    0    0  0.41188991011E+02  0.23826441711E+02  0.60377531705E+01  0.47965474755E+02  0.00000000000E+00 0.  1.
        -13    1    4    4    0    0  0.36162480941E+02 -0.53071635372E+02 -0.19016113095E+03  0.20071267831E+03  0.00000000000E+00 0. -1.
         13    1    4    4    0    0 -0.30651792321E+02  0.80541330773E+01 -0.35211976149E+02  0.47373882007E+02  0.00000000000E+00 0.  1.
         21    1    1    2  502  501 -0.14856433773E+02  0.17878277883E+02  0.25770939429E+02  0.34705730990E+02  0.00000000000E+00 0.  1.
         21    1    1    2  503  502 -0.28973208290E+02  0.39068896170E+02 -0.49596122196E+02  0.69466544347E+02  0.00000000000E+00 0.  1.
<scales pt_clust_5="13000.00000" pt_clust_6="13000.00000" pt_clust_7="13000.00000" pt_clust_8="13000.00000" pt_clust_9="23.24535" pt_clust_10="52.77232"></scales>
<clustering>
<clus scale="   23.245">  1  9  2 -1</clus>
<clus scale="   52.772">  2 10  1 -1</clus>
<clus scale="   84.823">  5  6 -1 -1</clus>
<clus scale="   88.106">  1  5  2 -1</clus>
<clus scale="   93.257">  7  8 -1 -1</clus>
<clus scale="   52.772">  2  5  1 -1</clus>
</clustering>
</event>
<event>
10    2  0.1133532E-006  0.1736888E+03  0.7546771E-02  0.1174256E+00
          2   -1    0    0  503    0  0.00000000000E+00  0.00000000000E+00  0.46521748611E+03  0.46521748611E+03  0.00000000000E+00 0. -1.
         -2   -1    0    0    0  501 -0.00000000000E+00 -0.00000000000E+00 -0.22421283392E+03  0.22421283392E+03  0.00000000000E+00 0.  1.
         23    2    1    2    0    0  0.14657443864E+03 -0.54297980123E+02 -0.55555069997E+02  0.18972061103E+03  0.92060891482E+02 0.  0.
         23    2    1    2    0    0 -0.84260876744E+02  0.12253224426E+03  0.16822458831E+02  0.17648627280E+03  0.93543375681E+02 0.  0.
        -11    1    4    4    0    0 -0.38910904048E+02 -0.33643620001E+01 -0.92926126915E+01  0.40146357695E+02  0.00000000000E+00 0.  1.
         11    1    4    4    0    0 -0.45349972695E+02  0.12589660626E+03  0.26115071523E+02  0.13633991511E+03  0.00000000000E+00 0. -1.
        -13    1    3    3    0    0  0.82445577425E+02  0.36031350454E+00 -0.64922657989E+02  0.10493976645E+03  0.00000000000E+00 0.  1.
         13    1    3    3    0    0  0.64128861211E+02 -0.54658293627E+02  0.93675879922E+01  0.84780844577E+02  0.00000000000E+00 0. -1.
         21    1    1    2  502  501 -0.96052844837E+02 -0.19289687181E+02  0.13542877597E+03  0.16715021506E+03  0.00000000000E+00 0. -1.
         21    1    1    2  503  502  0.33739282944E+02 -0.48944576954E+02  0.14430848738E+03  0.15607322114E+03  0.00000000000E+00 0.  1.
<scales pt_clust_5="13000.00000" pt_clust_6="13000.00000" pt_clust_7="13000.00000" pt_clust_8="13000.00000" pt_clust_9="90.59469" pt_clust_10="59.44671"></scales>
<clustering>
<clus scale="   59.447">  1 10  2 -1</clus>
<clus scale="   90.595">  1  9  2 -1</clus>
<clus scale="   92.061">  7  8 -1 -1</clus>
<clus scale="   93.543">  5  6 -1 -1</clus>
<clus scale="  172.895">  2  7  1 -1</clus>
<clus scale="   59.447">  1  5  2 -1</clus>
</clustering>
</event>
<event>
10    2  0.1133532E-006  0.9856643E+02  0.7546771E-02  0.1284469E+00
         -1   -1    0    0    0  501 -0.00000000000E+00  0.00000000000E+00  0.23875224111E+03  0.23875224111E+03  0.00000000000E+00 0.  1.
          1   -1    0    0  503    0  0.00000000000E+00 -0.00000000000E+00 -0.17033686678E+03  0.17033686678E+03  0.00000000000E+00 0. -1.
         23    2    1    2    0    0 -0.22345780981E+02 -0.12374565924E+02  0.52064248328E+02  0.10912850655E+03  0.92443935321E+02 0.  0.
         23    2    1    2    0    0  0.45621775296E+02 -0.32738306740E+02  0.31518988702E+02  0.11084354179E+03  0.90220291496E+02 0.  0.
        -11    1    4    4    0    0  0.49909569415E+02 -0.42484919273E+01  0.54476441233E+02  0.74004712365E+02  0.00000000000E+00 0.  1.
         11    1    4    4    0    0 -0.42877941193E+01 -0.28489814812E+02 -0.22957452530E+02  0.36838829421E+02  0.00000000000E+00 0. -1.
        -13    1    3    3    0    0 -0.43360192242E+02 -0.38391488688E+02  0.48416815021E+02  0.75486426937E+02  0.00000000000E+00 0. -1.
         13    1    3    3    0    0  0.21014411261E+02  0.26016922764E+02  0.36474333066E+01  0.33642079610E+02  0.00000000000E+00 0.  1.
         21    1    1    2  502  501 -0.32581063609E+01  0.23522000632E+02  0.83155662887E+02  0.86479847600E+02  0.00000000000E+00 0.  1.
         21    1    1    2  503  502 -0.20017887954E+02  0.21590872031E+02 -0.98323525589E+02  0.10263721195E+03  0.00000000000E+00 0. -1.
<scales pt_clust_5="13000.00000" pt_clust_6="13000.00000" pt_clust_7="13000.00000" pt_clust_8="13000.00000" pt_clust_9="23.74657" pt_clust_10="29.71619"></scales>
<clustering>
<clus scale="   23.747">  1  9  2 -1</clus>
<clus scale="   29.716">  2 10  1 -1</clus>
<clus scale="   90.220">  5  6 -1 -1</clus>
<clus scale="   92.444">  7  8 -1 -1</clus>
<clus scale="   96.484">  2  5  1 -1</clus>
<clus scale="   29.716">  2  5  1 -1</clus>
</clustering>
</event>
<event>
10    2  0.1133532E-006  0.1106839E+03  0.7546771E-02  0.1260101E+00
         -1   -1    0    0    0  501 -0.00000000000E+00  0.00000000000E+00  0.51711469243E+03  0.51711469243E+03  0.00000000000E+00 0.  1.
          1   -1    0    0  503    0  0.00000000000E+00 -0.00000000000E+00 -0.67943086480E+02  0.67943086480E+02  0.00000000000E+00 0. -1.
         23    2    1    2    0    0 -0.53165909602E+02  0.50801368840E+02  0.17429215625E+03  0.21003633753E+03  0.91269460037E+02 0.  0.
         23    2    1    2    0    0  0.43817694646E+01 -0.41150333349E+02  0.36834177942E+02  0.10851298406E+03  0.93304668727E+02 0.  0.
        -11    1    3    3    0    0 -0.31215768982E+02  0.76942267402E+02  0.12101696362E+03  0.14676389962E+03  0.00000000000E+00 0. -1.
         11    1    3    3    0    0 -0.21950140620E+02 -0.26140898562E+02  0.53275192623E+02  0.63272437916E+02  0.00000000000E+00 0.  1.
        -13    1    4    4    0    0  0.39200097496E+02 -0.32266721429E+01 -0.81237988985E+01  0.40162858032E+02  0.00000000000E+00 0. -1.
         13    1    4    4    0    0 -0.34818328031E+02 -0.37923661206E+02  0.44957976841E+02  0.68350126026E+02  0.00000000000E+00 0.  1.
         21    1    1    2  502  501  0.34270093515E+02  0.19963772472E+02  0.22886262748E+03  0.23227374750E+03  0.00000000000E+00 0.  1.
         21    1    1    2  503  502  0.14514046623E+02 -0.29614807963E+02  0.91826442754E+01  0.34234709812E+02  0.00000000000E+00 0. -1.
<scales pt_clust_5="13000.00000" pt_clust_6="13000.00000" pt_clust_7="13000.00000" pt_clust_8="13000.00000" pt_clust_9="39.60109" pt_clust_10="32.98021"></scales>
<clustering>
<clus scale="   32.980">  2 10  1 -1</clus>
<clus scale="   39.601">  1  9  2 -1</clus>
<clus scale="   91.269">  5  6 -1 -1</clus>
<clus scale="   93.305">  7  8 -1 -1</clus>
<clus scale="  108.974">  1  5  2 -1</clus>
<clus scale="   32.980">  2  5  1 -1</clus>
</clustering>
</event>
<event>
10    2  0.1133532E-006  0.2548451E+03  0.7546771E-02  0.1112259E+00
          1   -1    0    0  503    0  0.00000000000E+00  0.00000000000E+00  0.99213233272E+03  0.99213233272E+03  0.00000000000E+00 0. -1.
         -1   -1    0    0    0  501 -0.00000000000E+00 -0.00000000000E+00 -0.10443550682E+03  0.10443550682E+03  0.00000000000E+00 0.  1.
         23    2    1    2    0    0  0.16681362727E+03  0.18846501045E+03  0.26999420720E+03  0.38015392360E+03  0.90963109531E+02 0.  0.
         23    2    1    2    0    0 -0.11744765443E+03 -0.17298605506E+03  0.52038605205E+03  0.57359173003E+03  0.12036487366E+03 0.  0.
        -11    1    4    4    0    0 -0.45024083188E+02 -0.85692700865E+02  0.38494426563E+03  0.39692882824E+03  0.00000000000E+00 0. -1.
         11    1    4    4    0    0 -0.72423571243E+02 -0.87293354199E+02  0.13544178642E+03  0.17666290179E+03  0.00000000000E+00 0.  1.
        -13    1    3    3    0    0  0.11073280379E+03  0.75957146442E+02  0.94160038502E+02  0.16400413038E+03  0.00000000000E+00 0.  1.
         13    1    3    3    0    0  0.56080823484E+02  0.11250786401E+03  0.17583416870E+03  0.21614979322E+03  0.00000000000E+00 0. -1.
         21    1    1    2  502  501 -0.99315705615E+01 -0.43452875267E+02  0.14404896748E+02  0.46843244050E+02  0.00000000000E+00 0. -1.
         21    1    1    2  503  502 -0.39434402277E+02  0.27973919878E+02  0.82911669901E+02  0.95978941867E+02  0.00000000000E+00 0. -1.
<scales pt_clust_5="13000.00000" pt_clust_6="13000.00000" pt_clust_7="13000.00000" pt_clust_8="13000.00000" pt_clust_9="44.57341" pt_clust_10="47.18547"></scales>
<clustering>
<clus scale="   44.573">  2  9  1 -1</clus>
<clus scale="   47.185">  1 10  2 -1</clus>
<clus scale="   90.963">  7  8 -1 -1</clus>
<clus scale="  120.365">  5  6 -1 -1</clus>
<clus scale="  242.348">  2  7  1 -1</clus>
<clus scale="   47.185">  1  5  2 -1</clus>
</clustering>
</event>
<event>
10    2  0.1133532E-006  0.9851363E+02  0.7546771E-02  0.1283453E+00
         -2   -1    0    0    0  501 -0.00000000000E+00  0.00000000000E+00  0.98671367382E+02  0.98671367382E+02  0.00000000000E+00 0.  1.
          2   -1    0    0  503    0  0.00000000000E+00 -0.00000000000E+00 -0.91613930194E+03  0.91613930194E+03  0.00000000000E+00 0. -1.
         23    2    1    2    0    0 -0.32795090977E+02 -0.37301839649E+02 -0.31155665121E+02  0.10844620800E+03  0.91230254447E+02 0.  0.
         23    2    1    2    0    0  0.64862268645E+02  0.29243408413E+02 -0.60004000349E+03  0.61109187826E+03  0.91230406446E+02 0.  0.
        -11    1    4    4    0    0 -0.52043463253E+01 -0.25946817824E+02 -0.13076487698E+03  0.13341579976E+03  0.00000000000E+00 0.  1.
         11    1    4    4    0    0  0.70066614971E+02  0.55190226238E+02 -0.46927512651E+03  0.47767607850E+03  0.00000000000E+00 0. -1.
        -13    1    3    3    0    0 -0.88134324037E+01  0.27110220463E+02  0.76512473652E+01  0.29515796288E+02  0.00000000000E+00 0.  1.
         13    1    3    3    0    0 -0.23981658573E+02 -0.64412060113E+02 -0.38806912486E+02  0.78930411709E+02  0.00000000000E+00 0. -1.
         21    1    1    2  502  501  0.16533455354E+01  0.31550394620E+02  0.47977218594E+02  0.57445404134E+02  0.00000000000E+00 0.  1.
         21    1    1    2  503  502 -0.33720523204E+02 -0.23491963384E+02 -0.23424948454E+03  0.23782717893E+03  0.00000000000E+00 0.  1.
<scales pt_clust_5="13000.00000" pt_clust_6="13000.00000" pt_clust_7="13000.00000" pt_clust_8="13000.00000" pt_clust_9="31.59369" pt_clust_10="40.35371"></scales>
<clustering>
<clus scale="   31.594">  1  9  2 -1</clus>
<clus scale="   40.354">  2 10  1 -1</clus>
<clus scale="   91.230">  7  8 -1 -1</clus>
<clus scale="   91.230">  5  6 -1 -1</clus>
<clus scale="   98.513">  1  7  2 -1</clus>
<clus scale="   40.354">  2  5  1 -1</clus>
</clustering>
</event>
<event>
10    2  0.1133532E-006  0.1003172E+03  0.7546771E-02  0.1281894E+00
         -1   -1    0    0    0  501 -0.00000000000E+00  0.00000000000E+00  0.89645971232E+02  0.89645971232E+02  0.00000000000E+00 0.  1.
          1   -1    0    0  503    0  0.00000000000E+00 -0.00000000000E+00 -0.43666062768E+03  0.43666062768E+03  0.00000000000E+00 0. -1.
         23    2    1    2    0    0 -0.15946985575E+01  0.29977578576E+02 -0.55494280525E+02  0.11082114043E+03  0.91107144143E+02 0.  0.
         23    2    1    2    0    0  0.79603516993E+02  0.15724221544E+02 -0.17422086914E+03  0.21463245687E+03  0.95552128380E+02 0.  0.
        -11    1    3    3    0    0 -0.51611019749E+01  0.62744897541E+02 -0.37098799153E+02  0.73074482822E+02  0.00000000000E+00 0.  1.
         11    1    3    3    0    0  0.35664034175E+01 -0.32767318965E+02 -0.18395481372E+02  0.37746657606E+02  0.00000000000E+00 0. -1.
        -13    1    4    4    0    0  0.59093872578E+02  0.53564108803E+02 -0.91479459905E+02  0.12136593885E+03  0.00000000000E+00 0.  1.
         13    1    4    4    0    0  0.20509644414E+02 -0.37839887259E+02 -0.82741409240E+02  0.93266518026E+02  0.00000000000E+00 0. -1.
         21    1    1    2  502  501 -0.12689833952E+02 -0.22707131292E+02  0.29021462317E+02  0.38972951803E+02  0.00000000000E+00 0. -1.
         21    1    1    2  503  502 -0.65318984483E+02 -0.22994668828E+02 -0.14632096909E+03  0.16188004981E+03  0.00000000000E+00 0. -1.
<scales pt_clust_5="13000.00000" pt_clust_6="13000.00000" pt_clust_7="13000.00000" pt_clust_8="13000.00000" pt_clust_9="26.01241" pt_clust_10="72.01589"></scales>
<clustering>
<clus scale="   26.012">  1  9  2 -1</clus>
<clus scale="   72.016">  2 10  1 -1</clus>
<clus scale="   91.107">  5  6 -1 -1</clus>
<clus scale="   95.552">  7  8 -1 -1</clus>
<clus scale="   96.093">  1  5  2 -1</clus>
<clus scale="   72.016">  2  5  1 -1</clus>
</clustering>
</event>
<event>
10    2  0.1133532E-006  0.1353547E+03  0.7546771E-02  0.1233247E+00
         -4   -1    0    0    0  501 -0.00000000000E+00  0.00000000000E+00  0.36873928162E+03  0.36873928162E+03  0.00000000000E+00 0.  1.
          4   -1    0    0  502    0  0.00000000000E+00 -0.00000000000E+00 -0.31771935920E+03  0.31771935920E+03  0.00000000000E+00 0. -1.
         23    2    1    2    0    0 -0.12376275376E+02 -0.45839371202E+02  0.29010145984E+03  0.30766544711E+03  0.90800606824E+02 0.  0.
         23    2    1    2    0    0 -0.24123780446E+02 -0.70201520467E+02 -0.21790765318E+02  0.11780670427E+03  0.88844650147E+02 0.  0.
        -11    1    4    4    0    0  0.80580694596E+01 -0.76698991460E+02  0.21864589758E+01  0.77152111943E+02  0.00000000000E+00 0.  1.
         11    1    4    4    0    0 -0.32181849905E+02  0.64974709937E+01 -0.23977224294E+02  0.40654592330E+02  0.00000000000E+00 0. -1.
        -13    1    3    3    0    0  0.30527369074E+02 -0.45645268524E+02  0.11578534741E+03  0.12814701509E+03  0.00000000000E+00 0.  1.
         13    1    3    3    0    0 -0.42903644450E+02 -0.19410267838E+00  0.17431611243E+03  0.17951843202E+03  0.00000000000E+00 0. -1.
         21    1    1    2  502  503  0.71238367262E+01  0.19066315951E+02  0.94434770765E+00  0.20375604193E+02  0.00000000000E+00 0.  1.
         21    1    1    2  503  501  0.29376219096E+02  0.96974575718E+02 -0.21823511980E+03  0.24061088524E+03  0.00000000000E+00 0. -1.
<scales pt_clust_5="13000.00000" pt_clust_6="13000.00000" pt_clust_7="13000.00000" pt_clust_8="13000.00000" pt_clust_9="20.35371" pt_clust_10="102.11523"></scales>
<clustering>
<clus scale="   20.354">  2  9  1 -1</clus>
<clus scale="   88.845">  5  6 -1 -1</clus>
<clus scale="   90.801">  7  8 -1 -1</clus>
<clus scale="  102.199">  1  7  2 -1</clus>
<clus scale="  102.115">  2 10  1 -1</clus>
<clus scale="   20.354">  2  5  1 -1</clus>
</clustering>
</event>
<event>
10    2  0.1133532E-006  0.3158825E+03  0.7546771E-02  0.1077706E+00
          1   -1    0    0  503    0  0.00000000000E+00  0.00000000000E+00  0.20103238856E+04  0.20103238856E+04  0.00000000000E+00 0. -1.
         -1   -1    0    0    0  501 -0.00000000000E+00 -0.00000000000E+00 -0.96025249245E+02  0.96025249245E+02  0.00000000000E+00 0.  1.
         23    2    1    2    0    0  0.25273379627E+03  0.23671836128E+03  0.47455900220E+03  0.59407806496E+03  0.88388609861E+02 0.  0.
         23    2    1    2    0    0 -0.16525200430E+03 -0.17401174101E+03  0.66997370994E+03  0.71767075040E+03  0.92726603692E+02 0.  0.
        -11    1    4    4    0    0 -0.80519173044E+02 -0.13610764325E+03  0.34160249202E+03  0.37643178709E+03  0.00000000000E+00 0.  1.
         11    1    4    4    0    0 -0.84732831256E+02 -0.37904097753E+02  0.32837121792E+03  0.34123896330E+03  0.00000000000E+00 0. -1.
        -13    1    3    3    0    0  0.22021298327E+03  0.18420071169E+03  0.33328212786E+03  0.43988707294E+03  0.00000000000E+00 0.  1.
         13    1    3    3    0    0  0.32520812997E+02  0.52517649588E+02  0.14127687435E+03  0.15419099202E+03  0.00000000000E+00 0. -1.
         21    1    1    2  502  501  0.25727602014E+02  0.13107428196E+02  0.27301518034E+02  0.39737728500E+02  0.00000000000E+00 0.  1.
         21    1    1    2  503  502 -0.11320939398E+03 -0.75814048468E+02  0.74246440614E+03  0.75486259095E+03  0.00000000000E+00 0. -1.
<scales pt_clust_5="13000.00000" pt_clust_6="13000.00000" pt_clust_7="13000.00000" pt_clust_8="13000.00000" pt_clust_9="28.87411" pt_clust_10="134.27147"></scales>
<clustering>
<clus scale="   28.874">  2  9  1 -1</clus>
<clus scale="   88.389">  7  8 -1 -1</clus>
<clus scale="   92.727">  5  6 -1 -1</clus>
<clus scale="  134.271">  1 10  2 -1</clus>
<clus scale="  314.636">  2  7  1 -1</clus>
<clus scale="  134.271">  1  5  2 -1</clus>
</clustering>
</event>
<event>
10    2  0.1133532E-006  0.9734003E+02  0.7546771E-02  0.1288529E+00
          2   -1    0    0  503    0  0.00000000000E+00  0.00000000000E+00  0.40609349354E+02  0.40609349354E+02  0.00000000000E+00 0. -1.
         -2   -1    0    0    0  501 -0.00000000000E+00 -0.00000000000E+00 -0.65010030721E+03  0.65010030721E+03  0.00000000000E+00 0.  1.
         23    2    1    2    0    0  0.36512901424E+01 -0.90824019848E+01 -0.33702030850E+03  0.34890899419E+03  0.89771799249E+02 0.  0.
         23    2    1    2    0    0 -0.33481702412E+02  0.55206279530E+02 -0.69224597800E+02  0.12711000927E+03  0.84830135099E+02 0.  0.
        -13    1    4    4    0    0 -0.50503659463E+02  0.32638889790E+02 -0.92925594419E+01  0.60846268635E+02  0.00000000000E+00 0.  1.
         13    1    4    4    0    0  0.17021957051E+02  0.22567389740E+02 -0.59932038358E+02  0.66263740638E+02  0.00000000000E+00 0. -1.
        -13    1    3    3    0    0  0.29847257072E+01 -0.49569924438E+02 -0.17554762500E+03  0.18243644000E+03  0.00000000000E+00 0.  1.
         13    1    3    3    0    0  0.66656443516E+00  0.40487522453E+02 -0.16147268350E+03  0.16647255419E+03  0.00000000000E+00 0. -1.
         21    1    1    2  502  501  0.13761638756E+02 -0.27128688774E+02 -0.17239003361E+03  0.17505334085E+03  0.00000000000E+00 0. -1.
         21    1    1    2  503  502  0.16068773513E+02 -0.18995188771E+02 -0.30856017946E+02  0.39637312247E+02  0.00000000000E+00 0. -1.
<scales pt_clust_5="13000.00000" pt_clust_6="13000.00000" pt_clust_7="13000.00000" pt_clust_8="13000.00000" pt_clust_9="31.31037" pt_clust_10="24.88017"></scales>
<clustering>
<clus scale="   24.880">  1 10  2 -1</clus>
<clus scale="   31.310">  2  9  1 -1</clus>
<clus scale="   84.830">  5  6 -1 -1</clus>
<clus scale="   89.772">  7  8 -1 -1</clus>
<clus scale="   92.802">  1  5  2 -1</clus>
<clus scale="   24.880">  1  5  2 -1</clus>
</clustering>
</event>
<event>
10    2  0.1133532E-006  0.1315199E+03  0.7546771E-02  0.1225418E+00
          2   -1    0    0  503    0  0.00000000000E+00  0.00000000000E+00  0.33174090242E+03  0.33174090242E+03  0.00000000000E+00 0. -1.
         -2   -1    0    0    0  501 -0.00000000000E+00 -0.00000000000E+00 -0.20840035585E+03  0.20840035585E+03  0.00000000000E+00 0.  1.
         23    2    1    2    0    0 -0.78165805662E+02  0.65225501011E+02 -0.15103410365E+03  0.20380306907E+03  0.91433753847E+02 0.  0.
         23    2    1    2    0    0  0.41855177892E+02 -0.27370822509E+02  0.14633233855E+03  0.17925106981E+03  0.90646427848E+02 0.  0.
        -11    1    4    4    0    0 -0.11865619918E+02  0.17943065737E+02  0.79167228375E+02  0.82037775400E+02  0.00000000000E+00 0.  1.
         11    1    4    4    0    0  0.53720797810E+02 -0.45313888246E+02  0.67165110179E+02  0.97213294413E+02  0.00000000000E+00 0. -1.
        -11    1    3    3    0    0 -0.31524096105E+02  0.57681448596E+01  0.30433275011E+01  0.32191644454E+02  0.00000000000E+00 0. -1.
         11    1    3    3    0    0 -0.46641709557E+02  0.59457356152E+02 -0.15407743115E+03  0.17161142462E+03  0.00000000000E+00 0.  1.
         21    1    1    2  502  501  0.12785956578E+02 -0.30767999474E+02  0.76135372565E+01  0.34177718280E+02  0.00000000000E+00 0.  1.
         21    1    1    2  503  502  0.23524671192E+02 -0.70866790278E+01  0.12042877440E+03  0.12290940110E+03  0.00000000000E+00 0. -1.
<scales pt_clust_5="13000.00000" pt_clust_6="13000.00000" pt_clust_7="13000.00000" pt_clust_8="13000.00000" pt_clust_9="34.91901" pt_clust_10="24.56891"></scales>
<clustering>
<clus scale="   24.569">  1 10  2 -1</clus>
<clus scale="   34.919">  1  9  2 -1</clus>
<clus scale="   90.646">  5  6 -1 -1</clus>
<clus scale="   91.434">  7  8 -1 -1</clus>
<clus scale="  130.974">  1  5  2 -1</clus>
<clus scale="   24.569">  1  5  2 -1</clus>
</clustering>
</event>
<event>
10    2  0.1133532E-006  0.1086878E+03  0.7546771E-02  0.1265632E+00
         -3   -1    0    0    0  501 -0.00000000000E+00  0.00000000000E+00  0.42756315185E+03  0.42756315185E+03  0.00000000000E+00 0.  1.
          3   -1    0    0  503    0  0.00000000000E+00 -0.00000000000E+00 -0.34445671413E+03  0.34445671413E+03  0.00000000000E+00 0. -1.
         23    2    1    2    0    0 -0.11887263262E+03  0.25984203623E+02  0.26088611845E+00  0.15359505626E+03  0.93730953385E+02 0.  0.
         23    2    1    2    0    0 -0.23186360590E+02 -0.47104914958E+01  0.58833147651E+01  0.10259313845E+03  0.99654114906E+02 0.  0.
        -11    1    3    3    0    0 -0.58722688460E+02  0.20941774697E+02  0.46319457195E+02  0.77668553368E+02  0.00000000000E+00 0.  1.
         11    1    3    3    0    0 -0.60149944164E+02  0.50424289261E+01 -0.46058571077E+02  0.75926502896E+02  0.00000000000E+00 0. -1.
        -13    1    4    4    0    0 -0.56578428118E+02 -0.14917467741E+02 -0.16895897918E+02  0.60902551167E+02  0.00000000000E+00 0. -1.
         13    1    4    4    0    0  0.33392067528E+02  0.10206976245E+02  0.22779212683E+02  0.41690587287E+02  0.00000000000E+00 0.  1.
         21    1    1    2  502  501  0.87611784340E+02 -0.67747725457E+01  0.28607196065E+03  0.29926391190E+03  0.00000000000E+00 0.  1.
         21    1    1    2  503  502  0.54447208874E+02 -0.14498939582E+02 -0.20910972381E+03  0.21656775936E+03  0.00000000000E+00 0. -1.
<scales pt_clust_5="13000.00000" pt_clust_6="13000.00000" pt_clust_7="13000.00000" pt_clust_8="13000.00000" pt_clust_9="90.65128" pt_clust_10="56.34463"></scales>
<clustering>
<clus scale="   56.345">  2 10  1 -1</clus>
<clus scale="   90.651">  1  9  2 -1</clus>
<clus scale="   93.731">  5  6 -1 -1</clus>
<clus scale="   99.654">  7  8 -1 -1</clus>
<clus scale="  103.284">  1  5  2 -1</clus>
<clus scale="   56.345">  2  5  1 -1</clus>
</clustering>
</event>
<event>
10    2  0.1133532E-006  0.1277445E+03  0.7546771E-02  0.1231238E+00
          2   -1    0    0  503    0  0.00000000000E+00  0.00000000000E+00  0.53743587539E+03  0.53743587539E+03  0.00000000000E+00 0. -1.
         -2   -1    0    0    0  501 -0.00000000000E+00 -0.00000000000E+00 -0.83019166914E+02  0.83019166914E+02  0.00000000000E+00 0.  1.
         23    2    1    2    0    0  0.58263935542E+02  0.97187954375E+02  0.66353350750E+02  0.15957919961E+03  0.90678382929E+02 0.  0.
         23    2    1    2    0    0 -0.34574910260E+02 -0.53270405570E+02  0.10444132291E+03  0.15306386632E+03  0.92127068288E+02 0.  0.
        -11    1    4    4    0    0  0.24823077145E+02 -0.31103963959E+02  0.13138515036E+02  0.41907783409E+02  0.00000000000E+00 0.  1.
         11    1    4    4    0    0 -0.59397987405E+02 -0.22166441612E+02  0.91302807878E+02  0.11115608291E+03  0.00000000000E+00 0. -1.
        -13    1    3    3    0    0  0.30882552895E+02  0.40911104820E+01 -0.13457384328E+02  0.33934797056E+02  0.00000000000E+00 0.  1.
         13    1    3    3    0    0  0.27381382647E+02  0.93096843893E+02  0.79810735077E+02  0.12564440255E+03  0.00000000000E+00 0. -1.
         21    1    1    2  502  501  0.14867810837E+02 -0.24697811323E+02  0.95407361797E+01  0.30365429852E+02  0.00000000000E+00 0.  1.
         21    1    1    2  503  502 -0.38556836118E+02 -0.19219737482E+02  0.27408129863E+03  0.27744654653E+03  0.00000000000E+00 0. -1.
<scales pt_clust_5="13000.00000" pt_clust_6="13000.00000" pt_clust_7="13000.00000" pt_clust_8="13000.00000" pt_clust_9="28.82765" pt_clust_10="43.03377"></scales>
<clustering>
<clus scale="   28.828">  2  9  1 -1</clus>
<clus scale="   43.034">  1 10  2 -1</clus>
<clus scale="   90.678">  7  8 -1 -1</clus>
<clus scale="   92.127">  5  6 -1 -1</clus>
<clus scale="  126.704">  2  7  1 -1</clus>
<clus scale="   43.034">  1  5  2 -1</clus>
</clustering>
</event>
<event>
10    2  0.1133532E-006  0.2740366E+03  0.7546771E-02  0.1099042E+00
         -2   -1    0    0    0  501 -0.00000000000E+00  0.00000000000E+00  0.13344955159E+03  0.13344955159E+03  0.00000000000E+00 0.  1.
          2   -1    0    0  503    0  0.00000000000E+00 -0.00000000000E+00 -0.14745844605E+04  0.14745844605E+04  0.00000000000E+00 0. -1.
         23    2    1    2    0    0 -0.17571383535E+03  0.29803510611E+02 -0.85779998548E+02  0.21757828704E+03  0.90655952164E+02 0.  0.
         23    2    1    2    0    0  0.31003799489E+03  0.12539918141E+02 -0.93982124243E+03  0.99396257911E+03  0.91743300187E+02 0.  0.
        -11    1    4    4    0    0  0.25672768246E+03 -0.15245365639E+02 -0.67330620110E+03  0.72075152761E+03  0.00000000000E+00 0. -1.
         11    1    4    4    0    0  0.53310312423E+02  0.27785283781E+02 -0.26651504133E+03  0.27321105150E+03  0.00000000000E+00 0.  1.
        -13    1    3    3    0    0 -0.14034259708E+03 -0.16386788079E+02 -0.67536828264E+02  0.15660713442E+03  0.00000000000E+00 0.  1.
         13    1    3    3    0    0 -0.35371238261E+02  0.46190298690E+02 -0.18243170284E+02  0.60971152615E+02  0.00000000000E+00 0. -1.
         21    1    1    2  502  501 -0.10488533179E+03 -0.99134603658E+01 -0.32732751072E+02  0.11032063503E+03  0.00000000000E+00 0.  1.
         21    1    1    2  503  502 -0.29438827753E+02 -0.32429968387E+02 -0.28280091690E+03  0.28617251096E+03  0.00000000000E+00 0.  1.
<scales pt_clust_5="13000.00000" pt_clust_6="13000.00000" pt_clust_7="13000.00000" pt_clust_8="13000.00000" pt_clust_9="107.31232" pt_clust_10="43.79894"></scales>
<clustering>
<clus scale="   43.799">  2 10  1 -1</clus>
<clus scale="   90.656">  7  8 -1 -1</clus>
<clus scale="   91.743">  5  6 -1 -1</clus>
<clus scale="  107.312">  1  9  2 -1</clus>
<clus scale="  273.674">  1  7  2 -1</clus>
<clus scale="   43.799">  2  5  1 -1</clus>
</clustering>
</event>
<event>
10    2  0.1133532E-006  0.1081663E+03  0.7546771E-02  0.1264380E+00
         -1   -1    0    0    0  501 -0.00000000000E+00  0.00000000000E+00  0.32688733997E+03  0.32688733997E+03  0.00000000000E+00 0.  1.
          1   -1    0    0  503    0  0.00000000000E+00 -0.00000000000E+00 -0.85485692835E+02  0.85485692835E+02  0.00000000000E+00 0. -1.
         23    2    1    2    0    0 -0.18607912285E+02  0.25216397846E+02  0.19338714602E+03  0.21623838836E+03  0.91533224762E+02 0.  0.
         23    2    1    2    0    0  0.31421341554E+02 -0.72884753716E+02  0.13934182326E+02  0.12264723600E+03  0.92459153319E+02 0.  0.
        -13    1    3    3    0    0  0.14835117337E+02 -0.15845120202E+02  0.75161959413E+01  0.22970453675E+02  0.00000000000E+00 0. -1.
         13    1    3    3    0    0 -0.33443029622E+02  0.41061518048E+02  0.18587095008E+03  0.19326793468E+03  0.00000000000E+00 0.  1.
        -13    1    4    4    0    0  0.50906355974E+02 -0.66766959510E+01  0.15444411918E+02  0.53614971854E+02  0.00000000000E+00 0.  1.
         13    1    4    4    0    0 -0.19485014420E+02 -0.66208057765E+02 -0.15102295925E+01  0.69032264148E+02  0.00000000000E+00 0. -1.
         21    1    1    2  502  501 -0.13216690464E+02  0.23707638640E+02  0.40430147990E+02  0.48696302767E+02  0.00000000000E+00 0.  1.
         21    1    1    2  503  502  0.40326119502E+00  0.23960717229E+02 -0.63498292002E+01  0.24791105675E+02  0.00000000000E+00 0. -1.
<scales pt_clust_5="13000.00000" pt_clust_6="13000.00000" pt_clust_7="13000.00000" pt_clust_8="13000.00000" pt_clust_9="28.37730" pt_clust_10="23.96411"></scales>
<clustering>
<clus scale="   23.964">  2 10  1 -1</clus>
<clus scale="   28.377">  1  9  2 -1</clus>
<clus scale="   91.533">  5  6 -1 -1</clus>
<clus scale="   92.459">  7  8 -1 -1</clus>
<clus scale="  107.376">  1  5  2 -1</clus>
<clus scale="   23.964">  2  5  1 -1</clus>
</clustering>
</event>
<event>
10    2  0.1133532E-006  0.1321367E+03  0.7546771E-02  0.1226334E+00
          1   -1    0    0  503    0  0.00000000000E+00  0.00000000000E+00  0.27013266266E+03  0.27013266266E+03  0.00000000000E+00 0. -1.
         -1   -1    0    0    0  501 -0.00000000000E+00 -0.00000000000E+00 -0.24616176595E+03  0.24616176595E+03  0.00000000000E+00 0.  1.
         23    2    1    2    0    0  0.69592565791E+02 -0.37446756861E+02 -0.14925544799E+03  0.19313595981E+03  0.93695919886E+02 0.  0.
         23    2    1    2    0    0 -0.72985912799E+02  0.42151018575E+02  0.31147858690E+02  0.12429106659E+03  0.85874491552E+02 0.  0.
        -11    1    4    4    0    0 -0.13718363137E+02 -0.26338936008E+02  0.60883371578E+01  0.30315027405E+02  0.00000000000E+00 0.  1.
         11    1    4    4    0    0 -0.59267549662E+02  0.68489954583E+02  0.25059521533E+02  0.93976039186E+02  0.00000000000E+00 0. -1.
        -11    1    3    3    0    0  0.36694089092E+02  0.17436501368E+02 -0.13086715738E+02  0.42681962034E+02  0.00000000000E+00 0. -1.
         11    1    3    3    0    0  0.32898476698E+02 -0.54883258229E+02 -0.13616873225E+03  0.15045399777E+03  0.00000000000E+00 0.  1.
         21    1    1    2  502  501  0.26775772458E+02 -0.53733034010E+01 -0.20793188469E+02  0.34324496600E+02  0.00000000000E+00 0. -1.
         21    1    1    2  503  502 -0.23382425450E+02  0.66904168692E+00  0.16287167449E+03  0.16454290561E+03  0.00000000000E+00 0.  1.
<scales pt_clust_5="13000.00000" pt_clust_6="13000.00000" pt_clust_7="13000.00000" pt_clust_8="13000.00000" pt_clust_9="25.84504" pt_clust_10="23.39200"></scales>
<clustering>
<clus scale="   23.392">  1 10  2 -1</clus>
<clus scale="   25.845">  2  9  1 -1</clus>
<clus scale="   85.874">  5  6 -1 -1</clus>
<clus scale="   93.696">  7  8 -1 -1</clus>
<clus scale="  126.711">  1  5  2 -1</clus>
<clus scale="   23.392">  1  5  2 -1</clus>
</clustering>
</event>
<event>
10    2  0.1133532E-006  0.1032975E+03  0.7546771E-02  0.1275625E+00
         -1   -1    0    0    0  501 -0.00000000000E+00  0.00000000000E+00  0.83180929498E+02  0.83180929498E+02  0.00000000000E+00 0.  1.
          1   -1    0    0  503    0  0.00000000000E+00 -0.00000000000E+00 -0.26085142326E+03  0.26085142326E+03  0.00000000000E+00 0. -1.
         23    2    1    2    0    0  0.30465043631E+02  0.30959487271E+02 -0.85985262010E+01  0.10336310929E+03  0.93399084432E+02 0.  0.
         23    2    1    2    0    0  0.95979688907E+01 -0.56257266191E+02 -0.13077226021E+03  0.16807661095E+03  0.88833338917E+02 0.  0.
        -13    1    3    3    0    0  0.43801246178E+02 -0.12199901432E+02 -0.28860075554E+02  0.53854347296E+02  0.00000000000E+00 0. -1.
         13    1    3    3    0    0 -0.13336202547E+02  0.43159388703E+02  0.20261549353E+02  0.49508761989E+02  0.00000000000E+00 0.  1.
        -13    1    4    4    0    0 -0.38272707197E+02 -0.11340358580E+02 -0.51209604120E+02  0.64929403223E+02  0.00000000000E+00 0.  1.
         13    1    4    4    0    0  0.47870676087E+02 -0.44916907611E+02 -0.79562656092E+02  0.10314720773E+03  0.00000000000E+00 0. -1.
         21    1    1    2  502  501 -0.23678933370E+02  0.11430249557E+02  0.25805034332E+01  0.26419717797E+02  0.00000000000E+00 0.  1.
         21    1    1    2  503  502 -0.16384079152E+02  0.13867529363E+02 -0.40880210785E+02  0.46172914724E+02  0.00000000000E+00 0. -1.
<scales pt_clust_5="13000.00000" pt_clust_6="13000.00000" pt_clust_7="13000.00000" pt_clust_8="13000.00000" pt_clust_9="27.43488" pt_clust_10="21.46500"></scales>
<clustering>
<clus scale="   21.465">  2 10  1 -1</clus>
<clus scale="   27.435">  1  9  2 -1</clus>
<clus scale="   88.833">  7  8 -1 -1</clus>
<clus scale="   93.399">  5  6 -1 -1</clus>
<clus scale="   99.188">  2  7  1 -1</clus>
<clus scale="   21.465">  2  5  1 -1</clus>
</clustering>
</event>
<event>
10    2  0.1133532E-006  0.3441012E+03  0.7546771E-02  0.1065266E+00
          1   -1    0    0  503    0  0.00000000000E+00  0.00000000000E+00  0.11423929127E+04  0.11423929127E+04  0.00000000000E+00 0. -1.
         -1   -1    0    0    0  501 -0.00000000000E+00 -0.00000000000E+00 -0.15692706765E+03  0.15692706765E+03  0.00000000000E+00 0.  1.
         23    2    1    2    0    0 -0.29813891261E+03  0.16207409291E+03  0.23119594407E+03  0.42073497751E+03  0.91714415135E+02 0.  0.
         23    2    1    2    0    0  0.30048245392E+03 -0.86075091442E+02  0.61411431931E+03  0.69420316802E+03  0.84160648905E+02 0.  0.
        -11    1    4    4    0    0  0.42729724398E+02  0.22145895868E+01  0.39340065716E+02  0.58123786222E+02  0.00000000000E+00 0.  1.
         11    1    4    4    0    0  0.25775272952E+03 -0.88289681029E+02  0.57477425360E+03  0.63607938180E+03  0.00000000000E+00 0. -1.
        -11    1    3    3    0    0 -0.16956170062E+03  0.49301401522E+02  0.14869361867E+03  0.23084971462E+03  0.00000000000E+00 0.  1.
         11    1    3    3    0    0 -0.12857721199E+03  0.11277269139E+03  0.82502325403E+02  0.18988526289E+03  0.00000000000E+00 0. -1.
         21    1    1    2  502  501 -0.25315045331E+02 -0.32699228759E+02  0.62953784729E+01  0.41829688878E+02  0.00000000000E+00 0.  1.
         21    1    1    2  503  502  0.22971504015E+02 -0.43299772710E+02  0.13386020323E+03  0.14255214597E+03  0.00000000000E+00 0. -1.
<scales pt_clust_5="13000.00000" pt_clust_6="13000.00000" pt_clust_7="13000.00000" pt_clust_8="13000.00000" pt_clust_9="41.35325" pt_clust_10="49.56149"></scales>
<clustering>
<clus scale="   41.353">  2  9  1 -1</clus>
<clus scale="   49.561">  1 10  2 -1</clus>
<clus scale="   84.161">  5  6 -1 -1</clus>
<clus scale="   91.714">  7  8 -1 -1</clus>
<clus scale="  342.165">  1  5  2 -1</clus>
<clus scale="   49.561">  1  5  2 -1</clus>
</clustering>
</event>
<event>
10    2  0.1233794E-006  0.1026031E+03  0.7546771E-02  0.1275653E+00
         -3   -1    0    0    0  501 -0.00000000000E+00  0.00000000000E+00  0.52337358001E+03  0.52337358001E+03  0.00000000000E+00 0.  1.
          3   -1    0    0  503    0  0.00000000000E+00 -0.00000000000E+00 -0.58045790152E+02  0.58045790152E+02  0.00000000000E+00 0. -1.
         23    2    1    2    0    0 -0.98429878319E+00  0.30774547697E+02  0.31833000301E+03  0.33226235526E+03  0.90090178567E+02 0.  0.
         23    2    1    2    0    0  0.49463802327E+01 -0.53906773674E+02  0.30264430975E+02  0.11070811433E+03  0.91705746121E+02 0.  0.
        -11    1    3    3    0    0  0.30853782520E+02 -0.18483234776E+02  0.10356129739E+03  0.10962904807E+03  0.00000000000E+00 0.  1.
         11    1    3    3    0    0 -0.31838081304E+02  0.49257782472E+02  0.21476870562E+03  0.22263330719E+03  0.00000000000E+00 0. -1.
        -13    1    4    4    0    0 -0.38308181573E+02 -0.84068752693E+01  0.27439496884E+02  0.47865627714E+02  0.00000000000E+00 0.  1.
         13    1    4    4    0    0  0.43254561806E+02 -0.45499898405E+02  0.28249340917E+01  0.62842486619E+02  0.00000000000E+00 0. -1.
         21    1    1    2  502  501  0.15741978932E+02  0.16549830284E+02  0.11539235200E+03  0.11763121050E+03  0.00000000000E+00 0.  1.
         21    1    1    2  503  502 -0.19704060381E+02  0.65823956928E+01  0.13410038695E+01  0.20817690072E+02  0.00000000000E+00 0.  1.
<scales pt_clust_5="13000.00000" pt_clust_6="13000.00000" pt_clust_7="13000.00000" pt_clust_8="13000.00000" pt_clust_9="22.64093" pt_clust_10="20.77445"></scales>
<clustering>
<clus scale="   20.774">  2 10  1 -1</clus>
<clus scale="   22.641">  1  9  2 -1</clus>
<clus scale="   90.090">  5  6 -1 -1</clus>
<clus scale="   91.706">  7  8 -1 -1</clus>
<clus scale="  101.162">  1  5  2 -1</clus>
<clus scale="   20.774">  2  5  1 -1</clus>
</clustering>
</event>
<event>
10    2  0.1133532E-006  0.1115813E+03  0.7546771E-02  0.1259657E+00
         -1   -1    0    0    0  501 -0.00000000000E+00  0.00000000000E+00  0.19396132128E+03  0.19396132128E+03  0.00000000000E+00 0.  1.
          1   -1    0    0  502    0  0.00000000000E+00 -0.00000000000E+00 -0.12833276682E+03  0.12833276682E+03  0.00000000000E+00 0. -1.
         23    2    1    2    0    0  0.10929549671E+02 -0.55148297141E+02  0.65278959482E+02  0.12943905152E+03  0.96604015306E+02 0.  0.
         23    2    1    2    0    0  0.28382715668E+02  0.55633118424E+02  0.44649097252E+02  0.11953483714E+03  0.91621029190E+02 0.  0.
        -11    1    4    4    0    0  0.61476081350E+02  0.38145759214E+02  0.37270371972E+02  0.81384815237E+02  0.00000000000E+00 0. -1.
         11    1    4    4    0    0 -0.33093365682E+02  0.17487359210E+02  0.73787252802E+01  0.38150021901E+02  0.00000000000E+00 0.  1.
        -13    1    3    3    0    0  0.14796070936E+02 -0.82219028300E+02  0.41883079598E+02  0.93450974774E+02  0.00000000000E+00 0. -1.
         13    1    3    3    0    0 -0.38665212641E+01  0.27070731159E+02  0.23395879884E+02  0.35988076744E+02  0.00000000000E+00 0.  1.
         21    1    1    2  502  503 -0.81717426419E+01  0.19679795918E+02 -0.16998523036E+02  0.27258421279E+02  0.00000000000E+00 0. -1.
         21    1    1    2  503  501 -0.31140522698E+02 -0.20164617201E+02 -0.27300979240E+02  0.46061778171E+02  0.00000000000E+00 0.  1.
<scales pt_clust_5="13000.00000" pt_clust_6="13000.00000" pt_clust_7="13000.00000" pt_clust_8="13000.00000" pt_clust_9="21.30896" pt_clust_10="36.49891"></scales>
<clustering>
<clus scale="   21.309">  2  9  1 -1</clus>
<clus scale="   36.499">  2 10  1 -1</clus>
<clus scale="   91.621">  5  6 -1 -1</clus>
<clus scale="   96.604">  7  8 -1 -1</clus>
<clus scale="  107.296">  2  5  1 -1</clus>
<clus scale="   21.309">  2  5  1 -1</clus>
</clustering>
</event>
<event>
10    2  0.1133532E-006  0.9151788E+02  0.7546771E-02  0.1299314E+00
         -2   -1    0    0    0  501 -0.00000000000E+00  0.00000000000E+00  0.58897038285E+02  0.58897038285E+02  0.00000000000E+00 0.  1.
          2   -1    0    0  503    0  0.00000000000E+00 -0.00000000000E+00 -0.38845635025E+03  0.38845635025E+03  0.00000000000E+00 0. -1.
         23    2    1    2    0    0 -0.55350519678E+01 -0.45850795779E+02 -0.10774653773E+03  0.14742286112E+03  0.89393799078E+02 0.  0.
         23    2    1    2    0    0  0.26540052313E+02 -0.33046122958E+02 -0.15462207506E+03  0.18364552646E+03  0.89561558008E+02 0.  0.
        -13    1    3    3    0    0 -0.42935224924E+02 -0.64954734125E+01 -0.30745809861E+02  0.53206480227E+02  0.00000000000E+00 0.  1.
         13    1    3    3    0    0  0.37400172957E+02 -0.39355322367E+02 -0.77000727870E+02  0.94216380891E+02  0.00000000000E+00 0. -1.
        -13    1    4    4    0    0 -0.58970080793E+01 -0.54945293918E+02 -0.11682870964E+03  0.12923895474E+03  0.00000000000E+00 0. -1.
         13    1    4    4    0    0  0.32437060392E+02  0.21899170959E+02 -0.37793365420E+02  0.54406571711E+02  0.00000000000E+00 0.  1.
         21    1    1    2  502  501 -0.16767223978E+02  0.21913024230E+02  0.63283664129E+00  0.27599291894E+02  0.00000000000E+00 0.  1.
         21    1    1    2  503  502 -0.42377763667E+01  0.56983894508E+02 -0.67823535817E+02  0.88685709066E+02  0.00000000000E+00 0.  1.
<scales pt_clust_5="13000.00000" pt_clust_6="13000.00000" pt_clust_7="13000.00000" pt_clust_8="13000.00000" pt_clust_9="27.59204" pt_clust_10="62.61999"></scales>
<clustering>
<clus scale="   27.592">  1  9  2 -1</clus>
<clus scale="   62.620">  2 10  1 -1</clus>
<clus scale="   89.394">  5  6 -1 -1</clus>
<clus scale="   89.562">  7  8 -1 -1</clus>
<clus scale="   91.354">  1  5  2 -1</clus>
<clus scale="   62.620">  2  5  1 -1</clus>
</clustering>
</event>
<event>
10    2  0.1133532E-006  0.1101476E+03  0.7546771E-02  0.1263959E+00
         -1   -1    0    0    0  501 -0.00000000000E+00  0.00000000000E+00  0.49452343342E+03  0.49452343342E+03  0.00000000000E+00 0.  1.
          1   -1    0    0  503    0  0.00000000000E+00 -0.00000000000E+00 -0.91622985310E+02  0.91622985310E+02  0.00000000000E+00 0. -1.
         23    2    1    2    0    0  0.45941336119E+00  0.35703749705E+02  0.21453009998E+03  0.23898080001E+03  0.99064071038E+02 0.  0.
         23    2    1    2    0    0 -0.22754039692E+02 -0.38732974017E+02 -0.11323700045E+01  0.10105088765E+03  0.90509723428E+02 0.  0.
        -11    1    4    4    0    0  0.10305924586E+02 -0.23180148262E+02  0.39161048705E+02  0.46659608771E+02  0.00000000000E+00 0.  1.
         11    1    4    4    0    0 -0.33059964278E+02 -0.15552825755E+02 -0.40293418709E+02  0.54391278881E+02  0.00000000000E+00 0. -1.
        -13    1    3    3    0    0 -0.30106559346E+02 -0.70006407438E+01  0.18466895025E+02  0.36006111958E+02  0.00000000000E+00 0.  1.
         13    1    3    3    0    0  0.30565972707E+02  0.42704390449E+02  0.19606320496E+03  0.20297468805E+03  0.00000000000E+00 0. -1.
         21    1    1    2  502  501  0.45155833950E+02  0.35233838636E+00  0.21029982532E+03  0.21509344484E+03  0.00000000000E+00 0. -1.
         21    1    1    2  503  502 -0.22861207619E+02  0.26768859261E+01 -0.20797107189E+02  0.31021286232E+02  0.00000000000E+00 0.  1.
<scales pt_clust_5="13000.00000" pt_clust_6="13000.00000" pt_clust_7="13000.00000" pt_clust_8="13000.00000" pt_clust_9="44.32429" pt_clust_10="23.01740"></scales>
<clustering>
<clus scale="   23.017">  2 10  1 -1</clus>
<clus scale="   44.324">  1  9  2 -1</clus>
<clus scale="   90.510">  5  6 -1 -1</clus>
<clus scale="   99.064">  7  8 -1 -1</clus>
<clus scale="  102.522">  2  5  1 -1</clus>
<clus scale="   23.017">  2  5  1 -1</clus>
</clustering>
</event>
<event>
10    2  0.1133532E-006  0.1189886E+03  0.7546771E-02  0.1245299E+00
          1   -1    0    0  503    0  0.00000000000E+00  0.00000000000E+00  0.92747899430E+02  0.92747899430E+02  0.00000000000E+00 0. -1.
         -1   -1    0    0    0  501 -0.00000000000E+00 -0.00000000000E+00 -0.42185774146E+03  0.42185774146E+03  0.00000000000E+00 0.  1.
         23    2    1    2    0    0 -0.11753057716E+02  0.78679715521E+02 -0.19336558516E+03  0.22823470810E+03  0.91499729286E+02 0.  0.
         23    2    1    2    0    0  0.23705465555E+02 -0.67601593562E+02  0.76896235248E+00  0.11747433624E+03  0.93100503879E+02 0.  0.
        -11    1    4    4    0    0 -0.47639532930E+01  0.20265350760E+02 -0.12316002971E+02  0.24188088424E+02  0.00000000000E+00 0.  1.
         11    1    4    4    0    0  0.28469418848E+02 -0.87866944322E+02  0.13084965324E+02  0.93286247816E+02  0.00000000000E+00 0. -1.
        -11    1    3    3    0    0  0.23046057336E+02  0.53468459438E+02 -0.16919223047E+03  0.17893017567E+03  0.00000000000E+00 0.  1.
         11    1    3    3    0    0 -0.34799115052E+02  0.25211256083E+02 -0.24173354687E+02  0.49304532434E+02  0.00000000000E+00 0. -1.
         21    1    1    2  502  501 -0.36392427145E+02 -0.19083277040E+02 -0.13714734706E+03  0.14317113892E+03  0.00000000000E+00 0. -1.
         21    1    1    2  503  502  0.24440019306E+02  0.80051550816E+01  0.63412783633E+00  0.25725457618E+02  0.00000000000E+00 0. -1.
<scales pt_clust_5="13000.00000" pt_clust_6="13000.00000" pt_clust_7="13000.00000" pt_clust_8="13000.00000" pt_clust_9="40.13262" pt_clust_10="25.71764"></scales>
<clustering>
<clus scale="   25.718">  1 10  2 -1</clus>
<clus scale="   40.133">  2  9  1 -1</clus>
<clus scale="   91.500">  7  8 -1 -1</clus>
<clus scale="   93.101">  5  6 -1 -1</clus>
<clus scale="  117.740">  2  7  1 -1</clus>
<clus scale="   25.718">  1  5  2 -1</clus>
</clustering>
</event>
<event>
10    2  0.1133532E-006  0.1507337E+03  0.7546771E-02  0.1199732E+00
          3   -1    0    0  503    0  0.00000000000E+00  0.00000000000E+00  0.35474588002E+03  0.35474588002E+03  0.00000000000E+00 0. -1.
         -3   -1    0    0    0  501 -0.00000000000E+00 -0.00000000000E+00 -0.24727792671E+03  0.24727792671E+03  0.00000000000E+00 0.  1.
         23    2    1    2    0    0  0.55764862433E+02 -0.34419247718E+02 -0.11686847133E+03  0.16280416696E+03  0.92480012396E+02 0.  0.
         23    2    1    2    0    0 -0.16939141694E+03  0.14272186556E+02  0.16105393343E+03  0.25146203255E+03  0.91638621226E+02 0.  0.
        -11    1    4    4    0    0 -0.12421001775E+03 -0.29782707577E+02  0.12532159746E+03  0.17894312216E+03  0.00000000000E+00 0. -1.
         11    1    4    4    0    0 -0.45181399192E+02  0.44054894133E+02  0.35732335962E+02  0.72518910384E+02  0.00000000000E+00 0.  1.
        -13    1    3    3    0    0  0.90560681183E+01  0.21322903150E+02  0.22129629342E+01  0.23271780625E+02  0.00000000000E+00 0. -1.
         13    1    3    3    0    0  0.46708794315E+02 -0.55742150868E+02 -0.11908143427E+03  0.13953238634E+03  0.00000000000E+00 0.  1.
         21    1    1    2  502  501  0.60701720065E+02 -0.19770650440E+02 -0.32214173117E+02  0.71507554757E+02  0.00000000000E+00 0.  1.
         21    1    1    2  503  502  0.52924834438E+02  0.39917711603E+02  0.95496664328E+02  0.11625005246E+03  0.00000000000E+00 0.  1.
<scales pt_clust_5="13000.00000" pt_clust_6="13000.00000" pt_clust_7="13000.00000" pt_clust_8="13000.00000" pt_clust_9="63.84025" pt_clust_10="68.28853"></scales>
<clustering>
<clus scale="   63.840">  2  9  1 -1</clus>
<clus scale="   68.289">  1 10  2 -1</clus>
<clus scale="   91.639">  5  6 -1 -1</clus>
<clus scale="   92.480">  7  8 -1 -1</clus>
<clus scale="  150.219">  1  5  2 -1</clus>
<clus scale="   68.289">  1  5  2 -1</clus>
</clustering>
</event>
<event>
10    2  0.1133532E-006  0.1053965E+03  0.7546771E-02  0.1273952E+00
         -2   -1    0    0    0  501 -0.00000000000E+00  0.00000000000E+00  0.40178708133E+02  0.40178708133E+02  0.00000000000E+00 0.  1.
          2   -1    0    0  503    0  0.00000000000E+00 -0.00000000000E+00 -0.50269844018E+03  0.50269844018E+03  0.00000000000E+00 0. -1.
         23    2    1    2    0    0 -0.85480355595E+01 -0.34722735559E+02 -0.65623352026E+02  0.11118804482E+03  0.82326300192E+02 0.  0.
         23    2    1    2    0    0  0.52514909687E+02  0.44994403530E+02 -0.24803576079E+03  0.27366419589E+03  0.92671686047E+02 0.  0.
        -11    1    3    3    0    0 -0.40777522948E+02 -0.35898562948E+01 -0.15039577116E+02  0.43610575848E+02  0.00000000000E+00 0. -1.
         11    1    3    3    0    0  0.32229487388E+02 -0.31132879264E+02 -0.50583774911E+02  0.67577468973E+02  0.00000000000E+00 0.  1.
        -11    1    4    4    0    0  0.53367445174E+01  0.46478000477E+02 -0.43944368250E+02  0.64185612650E+02  0.00000000000E+00 0.  1.
         11    1    4    4    0    0  0.47178165170E+02 -0.14835969468E+01 -0.20409139254E+03  0.20947858324E+03  0.00000000000E+00 0. -1.
         21    1    1    2  502  501 -0.21957934393E+02 -0.80404255708E+01 -0.35387062364E+02  0.42415133018E+02  0.00000000000E+00 0.  1.
         21    1    1    2  503  502 -0.22008939734E+02 -0.22312424001E+01 -0.11347355686E+03  0.11560977458E+03  0.00000000000E+00 0. -1.
<scales pt_clust_5="13000.00000" pt_clust_6="13000.00000" pt_clust_7="13000.00000" pt_clust_8="13000.00000" pt_clust_9="25.53776" pt_clust_10="22.12175"></scales>
<clustering>
<clus scale="   22.122">  2 10  1 -1</clus>
<clus scale="   25.538">  1  9  2 -1</clus>
<clus scale="   82.326">  5  6 -1 -1</clus>
<clus scale="   92.672">  7  8 -1 -1</clus>
<clus scale="   96.426">  1  5  2 -1</clus>
<clus scale="   22.122">  2  5  1 -1</clus>
</clustering>
</event>
<event>
10    2  0.1133532E-006  0.1219415E+03  0.7546771E-02  0.1241208E+00
         -1   -1    0    0    0  501 -0.00000000000E+00  0.00000000000E+00  0.78755982904E+02  0.78755982904E+02  0.00000000000E+00 0.  1.
          1   -1    0    0  503    0  0.00000000000E+00 -0.00000000000E+00 -0.40776064742E+03  0.40776064742E+03  0.00000000000E+00 0. -1.
         23    2    1    2    0    0 -0.62248870278E+02 -0.52736501479E+02 -0.13926769050E+03  0.18474067860E+03  0.89875292900E+02 0.  0.
         23    2    1    2    0    0  0.50730750027E+02  0.53911243183E+02 -0.15383831158E+03  0.19487554143E+03  0.93969247097E+02 0.  0.
        -11    1    3    3    0    0 -0.67819778702E+02 -0.21476498716E+01 -0.60201921710E+02  0.90710562564E+02  0.00000000000E+00 0.  1.
         11    1    3    3    0    0  0.55709084243E+01 -0.50588851607E+02 -0.79065768789E+02  0.94030116037E+02  0.00000000000E+00 0. -1.
        -13    1    4    4    0    0 -0.95985219837E+01  0.54671467899E+02 -0.49621270173E+02  0.74453821124E+02  0.00000000000E+00 0.  1.
         13    1    4    4    0    0  0.60329272011E+02 -0.76022471561E+00 -0.10421704141E+03  0.12042172031E+03  0.00000000000E+00 0. -1.
         21    1    1    2  502  501  0.24496387693E+02 -0.20826816071E+02  0.25565850256E+02  0.41078485573E+02  0.00000000000E+00 0.  1.
         21    1    1    2  503  502 -0.12978267442E+02  0.19652074366E+02 -0.61464512692E+02  0.65821924714E+02  0.00000000000E+00 0. -1.
<scales pt_clust_5="13000.00000" pt_clust_6="13000.00000" pt_clust_7="13000.00000" pt_clust_8="13000.00000" pt_clust_9="31.64378" pt_clust_10="23.55078"></scales>
<clustering>
<clus scale="   23.551">  2 10  1 -1</clus>
<clus scale="   31.644">  1  9  2 -1</clus>
<clus scale="   89.875">  5  6 -1 -1</clus>
<clus scale="   93.969">  7  8 -1 -1</clus>
<clus scale="  118.815">  1  5  2 -1</clus>
<clus scale="   23.551">  2  5  1 -1</clus>
</clustering>
</event>
<event>
10    2  0.1133532E-006  0.9128846E+02  0.7546771E-02  0.1305628E+00
          2   -1    0    0  503    0  0.00000000000E+00  0.00000000000E+00  0.23774716676E+03  0.23774716676E+03  0.00000000000E+00 0. -1.
         -2   -1    0    0    0  501 -0.00000000000E+00 -0.00000000000E+00 -0.67150521828E+02  0.67150521828E+02  0.00000000000E+00 0.  1.
         23    2    1    2    0    0 -0.26467581550E+01  0.28524263531E+01  0.54641752351E+02  0.10620238924E+03  0.90983980546E+02 0.  0.
         23    2    1    2    0    0 -0.68529255954E+01  0.16020863595E+02  0.53444643034E+02  0.99111956073E+02  0.81628544689E+02 0.  0.
        -13    1    3    3    0    0  0.22219473664E+01  0.44302429637E+02  0.10762646627E+02  0.45645118953E+02  0.00000000000E+00 0. -1.
         13    1    3    3    0    0 -0.48687055214E+01 -0.41450003284E+02  0.43879105724E+02  0.60557270289E+02  0.00000000000E+00 0.  1.
        -13    1    4    4    0    0  0.15225110312E+02  0.30092659799E+02  0.62822051157E+02  0.71302049546E+02  0.00000000000E+00 0. -1.
         13    1    4    4    0    0 -0.22078035908E+02 -0.14071796204E+02 -0.93774081230E+01  0.27809906528E+02  0.00000000000E+00 0.  1.
         21    1    1    2  502  501 -0.24816313762E+02 -0.20510483036E+02  0.49830581650E+01  0.32578523781E+02  0.00000000000E+00 0. -1.
         21    1    1    2  503  502  0.34315997513E+02  0.16371930875E+01  0.57527191379E+02  0.67004819487E+02  0.00000000000E+00 0. -1.
<scales pt_clust_5="13000.00000" pt_clust_6="13000.00000" pt_clust_7="13000.00000" pt_clust_8="13000.00000" pt_clust_9="32.19518" pt_clust_10="32.11233"></scales>
<clustering>
<clus scale="   32.195">  2  9  1 -1</clus>
<clus scale="   32.112">  1 10  2 -1</clus>
<clus scale="   81.629">  7  8 -1 -1</clus>
<clus scale="   81.968">  1  7  2 -1</clus>
<clus scale="   90.984">  5  6 -1 -1</clus>
<clus scale="   32.112">  1  5  2 -1</clus>
</clustering>
</event>
<event>
10    2  0.1133532E-006  0.4069834E+03  0.7546771E-02  0.1041486E+00
          1   -1    0    0  503    0  0.00000000000E+00  0.00000000000E+00  0.97286978325E+03  0.97286978325E+03  0.00000000000E+00 0. -1.
         -1   -1    0    0    0  501 -0.00000000000E+00 -0.00000000000E+00 -0.25201404329E+03  0.25201404329E+03  0.00000000000E+00 0.  1.
         23    2    1    2    0    0 -0.35869597940E+03 -0.46597549487E+02  0.89976349377E+02  0.38471037771E+03  0.95248065669E+02 0.  0.
         23    2    1    2    0    0  0.43402641669E+03 -0.26368698108E+01  0.48624806875E+03  0.65799773719E+03  0.90210610945E+02 0.  0.
        -11    1    3    3    0    0 -0.97680806999E+02 -0.44737166396E+02 -0.33928827706E+01  0.10749170092E+03  0.00000000000E+00 0. -1.
         11    1    3    3    0    0 -0.26101517240E+03 -0.18603830911E+01  0.93369232148E+02  0.27721867679E+03  0.00000000000E+00 0.  1.
        -13    1    4    4    0    0  0.13798489698E+03 -0.29198300400E+02  0.20473101344E+03  0.24861045916E+03  0.00000000000E+00 0. -1.
         13    1    4    4    0    0  0.29604151971E+03  0.26561430589E+02  0.28151705531E+03  0.40938727803E+03  0.00000000000E+00 0.  1.
         21    1    1    2  502  501 -0.36853184005E+02  0.19321528302E+02  0.15930912097E+02  0.44556397829E+02  0.00000000000E+00 0. -1.
         21    1    1    2  503  502 -0.38477253280E+02  0.29912890997E+02  0.12870040974E+03  0.13761931382E+03  0.00000000000E+00 0.  1.
<scales pt_clust_5="13000.00000" pt_clust_6="13000.00000" pt_clust_7="13000.00000" pt_clust_8="13000.00000" pt_clust_9="41.61104" pt_clust_10="49.50537"></scales>
<clustering>
<clus scale="   41.611">  2  9  1 -1</clus>
<clus scale="   49.505">  1 10  2 -1</clus>
<clus scale="   90.211">  7  8 -1 -1</clus>
<clus scale="   95.248">  5  6 -1 -1</clus>
<clus scale="  405.834">  1  7  2 -1</clus>
<clus scale="   49.505">  1  5  2 -1</clus>
</clustering>
</event>
<event>
10    2  0.1133532E-006  0.1047876E+03  0.7546771E-02  0.1270585E+00
          2   -1    0    0  503    0  0.00000000000E+00  0.00000000000E+00  0.54036068749E+03  0.54036068749E+03  0.00000000000E+00 0. -1.
         -2   -1    0    0    0  501 -0.00000000000E+00 -0.00000000000E+00 -0.66759601314E+02  0.66759601314E+02  0.00000000000E+00 0.  1.
         23    2    1    2    0    0  0.73363758276E+01 -0.34997002743E+02  0.65428053390E+02  0.11866247296E+03  0.92311102841E+02 0.  0.
         23    2    1    2    0    0 -0.27553941063E+02  0.33590708290E+02  0.21528431631E+03  0.23819462685E+03  0.92205141187E+02 0.  0.
        -13    1    4    4    0    0 -0.41849592992E+02  0.96115669973E+01  0.20334920436E+03  0.20783327348E+03  0.00000000000E+00 0. -1.
         13    1    4    4    0    0  0.14295651929E+02  0.23979141293E+02  0.11935111954E+02  0.30361353372E+02  0.00000000000E+00 0.  1.
        -13    1    3    3    0    0 -0.17469316605E+02  0.11554427245E+02  0.62407051880E+02  0.65827972291E+02  0.00000000000E+00 0. -1.
         13    1    3    3    0    0  0.24805692432E+02 -0.46551429989E+02  0.30210015097E+01  0.52834500671E+02  0.00000000000E+00 0.  1.
         21    1    1    2  502  501  0.27101521727E+02 -0.29469798505E+02 -0.12894857705E+02  0.42062321132E+02  0.00000000000E+00 0.  1.
         21    1    1    2  503  502 -0.68839564917E+01  0.30876092958E+02  0.20578357418E+03  0.20820086786E+03  0.00000000000E+00 0. -1.
<scales pt_clust_5="13000.00000" pt_clust_6="13000.00000" pt_clust_7="13000.00000" pt_clust_8="13000.00000" pt_clust_9="38.84511" pt_clust_10="31.63419"></scales>
<clustering>
<clus scale="   31.634">  1 10  2 -1</clus>
<clus scale="   38.845">  2  9  1 -1</clus>
<clus scale="   92.205">  5  6 -1 -1</clus>
<clus scale="   92.311">  7  8 -1 -1</clus>
<clus scale="  104.694">  1  5  2 -1</clus>
<clus scale="   31.634">  1  5  2 -1</clus>
</clustering>
</event>
<event>
10    2  0.1133532E-006  0.9401471E+02  0.7546771E-02  0.1293412E+00
         -2   -1    0    0    0  501 -0.00000000000E+00  0.00000000000E+00  0.27475202966E+02  0.27475202966E+02  0.00000000000E+00 0.  1.
          2   -1    0    0  503    0  0.00000000000E+00 -0.00000000000E+00 -0.66900070194E+03  0.66900070194E+03  0.00000000000E+00 0. -1.
         23    2    1    2    0    0  0.49797832861E+01 -0.17619875913E+01 -0.19308003899E+03  0.21334125553E+03  0.90590766721E+02 0.  0.
         23    2    1    2    0    0 -0.43500277332E+02  0.19788538433E+02 -0.37112087457E+03  0.38499558208E+03  0.90592683456E+02 0.  0.
        -11    1    4    4    0    0  0.27421267475E+02 -0.14047053769E+01 -0.12525043151E+03  0.12822468444E+03  0.00000000000E+00 0. -1.
         11    1    4    4    0    0 -0.70921544807E+02  0.21193243810E+02 -0.24587044306E+03  0.25677089763E+03  0.00000000000E+00 0.  1.
        -13    1    3    3    0    0  0.46452646931E+02  0.10226287093E+02 -0.99722914945E+02  0.11048567835E+03  0.00000000000E+00 0. -1.
         13    1    3    3    0    0 -0.41472863645E+02 -0.11988274684E+02 -0.93357124043E+02  0.10285557719E+03  0.00000000000E+00 0.  1.
         21    1    1    2  502  501  0.14258553318E+02 -0.15823868794E+02 -0.50801988345E+01  0.21897707335E+02  0.00000000000E+00 0. -1.
         21    1    1    2  503  502  0.24261940728E+02 -0.22026820475E+01 -0.72244386576E+02  0.76241359955E+02  0.00000000000E+00 0. -1.
<scales pt_clust_5="13000.00000" pt_clust_6="13000.00000" pt_clust_7="13000.00000" pt_clust_8="13000.00000" pt_clust_9="21.30026" pt_clust_10="26.04430"></scales>
<clustering>
<clus scale="   21.300">  1  9  2 -1</clus>
<clus scale="   26.044">  2 10  1 -1</clus>
<clus scale="   90.591">  7  8 -1 -1</clus>
<clus scale="   90.593">  5  6 -1 -1</clus>
<clus scale="   94.013">  1  7  2 -1</clus>
<clus scale="   26.044">  2  5  1 -1</clus>
</clustering>
</event>
<event>
10    2  0.1133532E-006  0.1081759E+03  0.7546771E-02  0.1264378E+00
          1   -1    0    0  503    0  0.00000000000E+00  0.00000000000E+00  0.29095665964E+03  0.29095665964E+03  0.00000000000E+00 0. -1.
         -1   -1    0    0    0  501 -0.00000000000E+00 -0.00000000000E+00 -0.16048618868E+03  0.16048618868E+03  0.00000000000E+00 0.  1.
         23    2    1    2    0    0 -0.10434525461E+02  0.72401322165E+02 -0.39972052957E+02  0.12530585001E+03  0.93557256573E+02 0.  0.
         23    2    1    2    0    0  0.18407480323E+02 -0.43011417468E+02  0.71504015293E+02  0.12600220948E+03  0.92600838148E+02 0.  0.
        -11    1    4    4    0    0  0.37293961826E+02 -0.60850223643E+02  0.70017896218E+02  0.99980473578E+02  0.00000000000E+00 0. -1.
         11    1    4    4    0    0 -0.18886481503E+02  0.17838806175E+02  0.14861190754E+01  0.26021735900E+02  0.00000000000E+00 0.  1.
        -11    1    3    3    0    0 -0.46426787128E+02  0.66799905239E+02 -0.34936944963E+02  0.88533971030E+02  0.00000000000E+00 0.  1.
         11    1    3    3    0    0  0.35992261668E+02  0.56014169260E+01 -0.50351079941E+01  0.36771878984E+02  0.00000000000E+00 0. -1.
         21    1    1    2  502  501 -0.38533674510E+02 -0.40670254530E+02 -0.32465678830E+02  0.64752868482E+02  0.00000000000E+00 0.  1.
         21    1    1    2  503  502  0.30560719648E+02  0.11280349833E+02  0.13140418745E+03  0.13538192035E+03  0.00000000000E+00 0. -1.
<scales pt_clust_5="13000.00000" pt_clust_6="13000.00000" pt_clust_7="13000.00000" pt_clust_8="13000.00000" pt_clust_9="53.05405" pt_clust_10="32.57612"></scales>
<clustering>
<clus scale="   32.576">  1 10  2 -1</clus>
<clus scale="   53.054">  2  9  1 -1</clus>
<clus scale="   92.601">  5  6 -1 -1</clus>
<clus scale="   93.557">  7  8 -1 -1</clus>
<clus scale="  107.350">  1  5  2 -1</clus>
<clus scale="   32.576">  1  5  2 -1</clus>
</clustering>
</event>
<event>
10    2  0.1133532E-006  0.1724244E+03  0.7546771E-02  0.1175909E+00
          1   -1    0    0  503    0  0.00000000000E+00  0.00000000000E+00  0.28591112764E+03  0.28591112764E+03  0.00000000000E+00 0. -1.
         -1   -1    0    0    0  501 -0.00000000000E+00 -0.00000000000E+00 -0.44274660462E+03  0.44274660462E+03  0.00000000000E+00 0.  1.
         23    2    1    2    0    0 -0.21042327880E+03  0.16561916997E+02 -0.24219204710E+03  0.33535964974E+03  0.96212544076E+02 0.  0.
         23    2    1    2    0    0  0.88704089143E+02 -0.64100256982E+02  0.77910410686E+02  0.16294620594E+03  0.92218086959E+02 0.  0.
        -13    1    3    3    0    0 -0.18977614257E+03 -0.12414146571E+02 -0.22836837095E+03  0.29718884261E+03  0.00000000000E+00 0.  1.
         13    1    3    3    0    0 -0.20647136234E+02  0.28976063568E+02 -0.13823676159E+02  0.38170807132E+02  0.00000000000E+00 0. -1.
        -13    1    4    4    0    0  0.33519226171E+01 -0.31295767538E+02 -0.12955099828E+02  0.34036672319E+02  0.00000000000E+00 0.  1.
         13    1    4    4    0    0  0.85352166526E+02 -0.32804489444E+02  0.90865510514E+02  0.12890953362E+03  0.00000000000E+00 0. -1.
         21    1    1    2  502  501  0.76623127494E+02  0.42344382887E+02 -0.88329359239E+02  0.12436328290E+03  0.00000000000E+00 0. -1.
         21    1    1    2  503  502  0.45096062168E+02  0.51939570981E+01  0.95775518673E+02  0.10598859368E+03  0.00000000000E+00 0. -1.
<scales pt_clust_5="13000.00000" pt_clust_6="13000.00000" pt_clust_7="13000.00000" pt_clust_8="13000.00000" pt_clust_9="91.64852" pt_clust_10="45.39418"></scales>
<clustering>
<clus scale="   45.394">  1 10  2 -1</clus>
<clus scale="   91.649">  2  9  1 -1</clus>
<clus scale="   92.218">  7  8 -1 -1</clus>
<clus scale="   96.213">  5  6 -1 -1</clus>
<clus scale="  170.228">  1  7  2 -1</clus>
<clus scale="   45.394">  1  5  2 -1</clus>
</clustering>
</event>
<event>
10    2  0.1133532E-006  0.1417386E+03  0.7546771E-02  0.1211772E+00
         -1   -1    0    0    0  501 -0.00000000000E+00  0.00000000000E+00  0.77575025560E+03  0.77575025560E+03  0.00000000000E+00 0.  1.
          1   -1    0    0  503    0  0.00000000000E+00 -0.00000000000E+00 -0.53533103857E+02  0.53533103857E+02  0.00000000000E+00 0. -1.
         23    2    1    2    0    0  0.10250693965E+03  0.50581034048E+02  0.39266816705E+03  0.41965591586E+03  0.94109960269E+02 0.  0.
         23    2    1    2    0    0 -0.76146449333E+02 -0.62678748941E+02  0.29999407323E+03  0.32853807740E+03  0.90630662646E+02 0.  0.
        -13    1    3    3    0    0  0.10671848724E+03  0.22425808786E+02  0.36081979363E+03  0.37693855719E+03  0.00000000000E+00 0.  1.
         13    1    3    3    0    0 -0.42115475942E+01  0.28155225261E+02  0.31848373422E+02  0.42717358676E+02  0.00000000000E+00 0. -1.
        -13    1    4    4    0    0 -0.96881975701E+02 -0.56415731623E+02  0.24502482679E+03  0.26945503842E+03  0.00000000000E+00 0. -1.
         13    1    4    4    0    0  0.20735526368E+02 -0.62630173174E+01  0.54969246444E+02  0.59083038974E+02  0.00000000000E+00 0.  1.
         21    1    1    2  502  501 -0.58029338553E+01  0.24597408188E+02  0.45624778334E+02  0.52156753436E+02  0.00000000000E+00 0. -1.
         21    1    1    2  503  502 -0.20557556462E+02 -0.12499693295E+02 -0.16069866870E+02  0.28932612764E+02  0.00000000000E+00 0. -1.
<scales pt_clust_5="13000.00000" pt_clust_6="13000.00000" pt_clust_7="13000.00000" pt_clust_8="13000.00000" pt_clust_9="24.60713" pt_clust_10="24.05942"></scales>
<clustering>
<clus scale="   24.059">  2 10  1 -1</clus>
<clus scale="   24.607">  2  9  1 -1</clus>
<clus scale="   90.631">  7  8 -1 -1</clus>
<clus scale="   94.110">  5  6 -1 -1</clus>
<clus scale="  139.453">  2  7  1 -1</clus>
<clus scale="   24.059">  2  5  1 -1</clus>
</clustering>
</event>
<event>
10    2  0.1133532E-006  0.1091789E+03  0.7546771E-02  0.1263514E+00
          1   -1    0    0  503    0  0.00000000000E+00  0.00000000000E+00  0.36373896602E+03  0.36373896602E+03  0.00000000000E+00 0. -1.
         -1   -1    0    0    0  501 -0.00000000000E+00 -0.00000000000E+00 -0.10355982018E+03  0.10355982018E+03  0.00000000000E+00 0.  1.
         23    2    1    2    0    0  0.71395481035E+02 -0.54120398530E+02 -0.98933886801E+01  0.12837681872E+03  0.91413326132E+02 0.  0.
         23    2    1    2    0    0 -0.83027774001E+01  0.28139979374E+01  0.82638550905E+02  0.12091178163E+03  0.87827524979E+02 0.  0.
        -11    1    3    3    0    0  0.71303805290E+02 -0.24326728908E+02 -0.40607621085E+02  0.85586221311E+02  0.00000000000E+00 0.  1.
         11    1    3    3    0    0  0.91675745753E-01 -0.29793669622E+02  0.30714232405E+02  0.42790597404E+02  0.00000000000E+00 0. -1.
        -11    1    4    4    0    0  0.33897393727E+02 -0.20932759560E+02  0.36966243542E+02  0.54348108393E+02  0.00000000000E+00 0.  1.
         11    1    4    4    0    0 -0.42200171127E+02  0.23746757497E+02  0.45672307363E+02  0.66563673236E+02  0.00000000000E+00 0. -1.
         21    1    1    2  502  501 -0.31387035919E+02  0.42566811086E+02  0.38315886929E+02  0.65308396251E+02  0.00000000000E+00 0. -1.
         21    1    1    2  503  502 -0.31705667717E+02  0.87395895069E+01  0.14911809668E+03  0.15270178960E+03  0.00000000000E+00 0. -1.
<scales pt_clust_5="13000.00000" pt_clust_6="13000.00000" pt_clust_7="13000.00000" pt_clust_8="13000.00000" pt_clust_9="59.38721" pt_clust_10="32.88814"></scales>
<clustering>
<clus scale="   32.888">  1 10  2 -1</clus>
<clus scale="   59.387">  1  9  2 -1</clus>
<clus scale="   87.828">  7  8 -1 -1</clus>
<clus scale="   91.413">  5  6 -1 -1</clus>
<clus scale="  106.195">  1  7  2 -1</clus>
<clus scale="   32.888">  1  5  2 -1</clus>
</clustering>
</event>
<event>
10    2  0.1133532E-006  0.3689018E+03  0.7546771E-02  0.1095539E+00
         -1   -1    0    0    0  501 -0.00000000000E+00  0.00000000000E+00  0.24133310532E+03  0.24133310532E+03  0.00000000000E+00 0.  1.
          1   -1    0    0  503    0  0.00000000000E+00 -0.00000000000E+00 -0.94873724302E+03  0.94873724302E+03  0.00000000000E+00 0. -1.
         23    2    1    2    0    0 -0.28886720780E+03 -0.15678874169E+03 -0.20146193515E+03  0.40444852827E+03  0.12233040278E+03 0.  0.
         23    2    1    2    0    0  0.36816992406E+02 -0.63897094916E+02 -0.18272544049E+03  0.21617110062E+03  0.88898979039E+02 0.  0.
        -11    1    3    3    0    0 -0.10644516847E+03 -0.26479705421E+02 -0.12792383920E+03  0.16851189075E+03  0.00000000000E+00 0. -1.
         11    1    3    3    0    0 -0.18242203933E+03 -0.13030903627E+03 -0.73538095951E+02  0.23593663752E+03  0.00000000000E+00 0.  1.
        -13    1    4    4    0    0  0.38820918080E+01 -0.62438541657E+02 -0.16945366518E+03  0.18063274001E+03  0.00000000000E+00 0.  1.
         13    1    4    4    0    0  0.32934900598E+02 -0.14585532594E+01 -0.13271775306E+02  0.35538360609E+02  0.00000000000E+00 0. -1.
         21    1    1    2  502  501  0.25757319535E+03  0.27382171698E+03 -0.18040704929E+03  0.41697600301E+03  0.00000000000E+00 0. -1.
         21    1    1    2  503  502 -0.55229799527E+01 -0.53135880376E+02 -0.14280971277E+03  0.15247471643E+03  0.00000000000E+00 0.  1.
<scales pt_clust_5="13000.00000" pt_clust_6="13000.00000" pt_clust_7="13000.00000" pt_clust_8="13000.00000" pt_clust_9="348.02842" pt_clust_10="53.42214"></scales>
<clustering>
<clus scale="   53.422">  2 10  1 -1</clus>
<clus scale="   88.899">  7  8 -1 -1</clus>
<clus scale="  122.330">  5  6 -1 -1</clus>
<clus scale="  122.913">  2  7  1 -1</clus>
<clus scale="  348.028">  2  9  1 -1</clus>
<clus scale="   53.422">  2  5  1 -1</clus>
</clustering>
</event>
<event>
10    2  0.1133532E-006  0.1724141E+03  0.7546771E-02  0.1175489E+00
         -1   -1    0    0    0  501 -0.00000000000E+00  0.00000000000E+00  0.10455740419E+04  0.10455740419E+04  0.00000000000E+00 0.  1.
          1   -1    0    0  503    0  0.00000000000E+00 -0.00000000000E+00 -0.39515260600E+03  0.39515260600E+03  0.00000000000E+00 0. -1.
         23    2    1    2    0    0 -0.13840832319E+03 -0.71595154078E+02  0.78904785103E+03  0.80942862140E+03  0.91079371494E+02 0.  0.
         23    2    1    2    0    0  0.68363173955E+02  0.14409006765E+03  0.61682541273E+01  0.18425878568E+03  0.92074869504E+02 0.  0.
        -11    1    3    3    0    0 -0.28765829352E+02 -0.58074327880E+02  0.39101606980E+03  0.39635043501E+03  0.00000000000E+00 0.  1.
         11    1    3    3    0    0 -0.10964249384E+03 -0.13520826198E+02  0.39803178124E+03  0.41307818639E+03  0.00000000000E+00 0. -1.
        -13    1    4    4    0    0  0.69111219657E+02  0.58523936565E+02 -0.23725606655E+02  0.93617926941E+02  0.00000000000E+00 0. -1.
         13    1    4    4    0    0 -0.74804570263E+00  0.85566131082E+02  0.29893860782E+02  0.90640858740E+02  0.00000000000E+00 0.  1.
         21    1    1    2  502  501  0.19245413134E+02 -0.11607844008E+02  0.14492835379E+03  0.14666068220E+03  0.00000000000E+00 0.  1.
         21    1    1    2  503  502  0.50799736104E+02 -0.60887069560E+02 -0.28972302302E+03  0.30037855865E+03  0.00000000000E+00 0. -1.
<scales pt_clust_5="13000.00000" pt_clust_6="13000.00000" pt_clust_7="13000.00000" pt_clust_8="13000.00000" pt_clust_9="22.47505" pt_clust_10="79.42175"></scales>
<clustering>
<clus scale="   22.475">  1  9  2 -1</clus>
<clus scale="   79.422">  2 10  1 -1</clus>
<clus scale="   91.079">  5  6 -1 -1</clus>
<clus scale="   92.075">  7  8 -1 -1</clus>
<clus scale="  171.885">  1  5  2 -1</clus>
<clus scale="   79.422">  2  5  1 -1</clus>
</clustering>
</event>
<event>
10    2  0.1133532E-006  0.1835494E+03  0.7546771E-02  0.1188407E+00
          1   -1    0    0  503    0  0.00000000000E+00  0.00000000000E+00  0.75786626325E+03  0.75786626325E+03  0.00000000000E+00 0. -1.
         -1   -1    0    0    0  501 -0.00000000000E+00 -0.00000000000E+00 -0.54323216134E+03  0.54323216134E+03  0.00000000000E+00 0.  1.
         23    2    1    2    0    0  0.54517272521E+02  0.26417806281E+01 -0.24381687406E+03  0.26646079620E+03  0.92604405004E+02 0.  0.
         23    2    1    2    0    0 -0.98507075837E+02 -0.44397951046E+02  0.16812355972E+03  0.22072136654E+03  0.93688677373E+02 0.  0.
        -13    1    3    3    0    0  0.21161810021E+02 -0.30794423385E+02 -0.19495970603E+03  0.19850794868E+03  0.00000000000E+00 0. -1.
         13    1    3    3    0    0  0.33355462500E+02  0.33436204014E+02 -0.48857168027E+02  0.67952847512E+02  0.00000000000E+00 0.  1.
        -13    1    4    4    0    0 -0.10503775655E+03 -0.63553978438E+02  0.14496740794E+03  0.18996733361E+03  0.00000000000E+00 0. -1.
         13    1    4    4    0    0  0.65306807108E+01  0.19156027392E+02  0.23156151785E+02  0.30754032930E+02  0.00000000000E+00 0.  1.
         21    1    1    2  502  501  0.75633218875E+02  0.11343200384E+03 -0.24097466665E+03  0.27686818752E+03  0.00000000000E+00 0.  1.
         21    1    1    2  503  502 -0.31643415559E+02 -0.71675833419E+02  0.53130208290E+03  0.53704807433E+03  0.00000000000E+00 0. -1.
<scales pt_clust_5="13000.00000" pt_clust_6="13000.00000" pt_clust_7="13000.00000" pt_clust_8="13000.00000" pt_clust_9="157.83789" pt_clust_10="78.35005"></scales>
<clustering>
<clus scale="   78.350">  1 10  2 -1</clus>
<clus scale="   92.604">  5  6 -1 -1</clus>
<clus scale="   93.689">  7  8 -1 -1</clus>
<clus scale="  106.661">  2  5  1 -1</clus>
<clus scale="  157.838">  2  9  1 -1</clus>
<clus scale="   78.350">  1  5  2 -1</clus>
</clustering>
</event>
<event>
10    2  0.1133532E-006  0.1286445E+03  0.7546771E-02  0.1232430E+00
         -1   -1    0    0    0  501 -0.00000000000E+00  0.00000000000E+00  0.42096943209E+03  0.42096943209E+03  0.00000000000E+00 0.  1.
          1   -1    0    0  503    0  0.00000000000E+00 -0.00000000000E+00 -0.11032276208E+03  0.11032276208E+03  0.00000000000E+00 0. -1.
         23    2    1    2    0    0 -0.26975625899E+02 -0.69821913505E+02  0.27045146901E+03  0.29677295258E+03  0.96578487729E+02 0.  0.
         23    2    1    2    0    0  0.40654055481E+02  0.58629325342E+02 -0.45227452996E+02  0.12070048910E+03  0.86214474116E+02 0.  0.
        -13    1    3    3    0    0  0.22521185238E+02  0.47777404071E+01  0.11589498128E+03  0.11815954161E+03  0.00000000000E+00 0. -1.
         13    1    3    3    0    0 -0.49496811137E+02 -0.74599653912E+02  0.15455648773E+03  0.17861341097E+03  0.00000000000E+00 0.  1.
        -13    1    4    4    0    0  0.35484016610E+02 -0.98679680687E+01  0.27179579636E+01  0.36930739555E+02  0.00000000000E+00 0.  1.
         13    1    4    4    0    0  0.51700388710E+01  0.68497293411E+02 -0.47945410960E+02  0.83769749544E+02  0.00000000000E+00 0. -1.
         21    1    1    2  502  501 -0.33081527966E+02  0.63270687586E+00  0.85552381173E+02  0.91727846017E+02  0.00000000000E+00 0.  1.
         21    1    1    2  503  502  0.19403098385E+02  0.10559881287E+02 -0.12972717760E+00  0.22090906475E+02  0.00000000000E+00 0. -1.
<scales pt_clust_5="13000.00000" pt_clust_6="13000.00000" pt_clust_7="13000.00000" pt_clust_8="13000.00000" pt_clust_9="32.49188" pt_clust_10="22.09053"></scales>
<clustering>
<clus scale="   22.091">  2 10  1 -1</clus>
<clus scale="   32.492">  1  9  2 -1</clus>
<clus scale="   86.214">  7  8 -1 -1</clus>
<clus scale="   96.578">  5  6 -1 -1</clus>
<clus scale="  121.058">  2  7  1 -1</clus>
<clus scale="   22.091">  2  5  1 -1</clus>
</clustering>
</event>
<event>
10    2  0.1133532E-006  0.1471556E+03  0.7546771E-02  0.1204494E+00
         -2   -1    0    0    0  501 -0.00000000000E+00  0.00000000000E+00  0.16826312205E+03  0.16826312205E+03  0.00000000000E+00 0.  1.
          2   -1    0    0  502    0  0.00000000000E+00 -0.00000000000E+00 -0.46061524033E+03  0.46061524033E+03  0.00000000000E+00 0. -1.
         23    2    1    2    0    0 -0.99479231891E+02 -0.24826504430E+02 -0.12995321034E+03  0.18967153616E+03  0.92601197903E+02 0.  0.
         23    2    1    2    0    0  0.12524240206E+03 -0.14719757650E+02 -0.25280403574E+03  0.29655055700E+03  0.90166633694E+02 0.  0.
        -11    1    3    3    0    0 -0.62191238825E+01  0.26848638072E+02 -0.47393276439E+02  0.54823804317E+02  0.00000000000E+00 0.  1.
         11    1    3    3    0    0 -0.93260108008E+02 -0.51675142502E+02 -0.82559933903E+02  0.13484773185E+03  0.00000000000E+00 0. -1.
        -13    1    4    4    0    0  0.51902717959E+02 -0.22837897075E+02 -0.19423680489E+03  0.20234475049E+03  0.00000000000E+00 0. -1.
         13    1    4    4    0    0  0.73339684101E+02  0.81181394252E+01 -0.58567230845E+02  0.94205806512E+02  0.00000000000E+00 0.  1.
         21    1    1    2  502  503 -0.39473384024E+02  0.77691802522E+01  0.99114899643E+02  0.10696855397E+03  0.00000000000E+00 0.  1.
         21    1    1    2  503  501  0.13710213855E+02  0.31777081827E+02 -0.87097718513E+01  0.35687715241E+02  0.00000000000E+00 0.  1.
<scales pt_clust_5="13000.00000" pt_clust_6="13000.00000" pt_clust_7="13000.00000" pt_clust_8="13000.00000" pt_clust_9="41.92274" pt_clust_10="34.60857"></scales>
<clustering>
<clus scale="   34.609">  1 10  2 -1</clus>
<clus scale="   41.923">  1  9  2 -1</clus>
<clus scale="   90.167">  7  8 -1 -1</clus>
<clus scale="   92.601">  5  6 -1 -1</clus>
<clus scale="  145.636">  2  7  1 -1</clus>
<clus scale="  145.636">  2  5  1 -1</clus>
</clustering>
</event>
<event>
10    2  0.1133532E-006  0.1305028E+03  0.7546771E-02  0.1238552E+00
          2   -1    0    0  503    0  0.00000000000E+00  0.00000000000E+00  0.70874961155E+02  0.70874961155E+02  0.00000000000E+00 0. -1.
         -2   -1    0    0    0  501 -0.00000000000E+00 -0.00000000000E+00 -0.40557345677E+03  0.40557345677E+03  0.00000000000E+00 0.  1.
         23    2    1    2    0    0  0.18094562004E+02 -0.68207217073E+01 -0.18929861345E+03  0.22677228792E+03  0.12336032627E+03 0.  0.
         23    2    1    2    0    0 -0.60432932724E+02 -0.23700323517E+02 -0.58410627719E+02  0.12758889168E+03  0.93023003376E+02 0.  0.
        -11    1    3    3    0    0  0.45506647648E+02 -0.38580096345E+02 -0.40338905667E+02  0.72017401540E+02  0.00000000000E+00 0. -1.
         11    1    3    3    0    0 -0.27412085644E+02  0.31759374638E+02 -0.14895970778E+03  0.15475488638E+03  0.00000000000E+00 0.  1.
        -11    1    4    4    0    0 -0.36139216174E+02 -0.35888805738E+02  0.11817323488E+02  0.52284782274E+02  0.00000000000E+00 0. -1.
         11    1    4    4    0    0 -0.24293716550E+02  0.12188482221E+02 -0.70227951208E+02  0.75304109406E+02  0.00000000000E+00 0.  1.
         21    1    1    2  502  501  0.14607878774E+02  0.38791668149E+02 -0.83132911921E+02  0.92893835557E+02  0.00000000000E+00 0.  1.
         21    1    1    2  503  502  0.27730491946E+02 -0.82706229248E+01 -0.38563425224E+01  0.29193402761E+02  0.00000000000E+00 0.  1.
<scales pt_clust_5="13000.00000" pt_clust_6="13000.00000" pt_clust_7="13000.00000" pt_clust_8="13000.00000" pt_clust_9="41.69172" pt_clust_10="28.93758"></scales>
<clustering>
<clus scale="   28.938">  1 10  2 -1</clus>
<clus scale="   41.692">  2  9  1 -1</clus>
<clus scale="   93.023">  7  8 -1 -1</clus>
<clus scale="  102.306">  1  7  2 -1</clus>
<clus scale="  123.360">  5  6 -1 -1</clus>
<clus scale="   28.938">  1  5  2 -1</clus>
</clustering>
</event>
<event>
10    2  0.1133532E-006  0.1859956E+03  0.7546771E-02  0.1179209E+00
         -2   -1    0    0    0  501 -0.00000000000E+00  0.00000000000E+00  0.20703231847E+03  0.20703231847E+03  0.00000000000E+00 0.  1.
          2   -1    0    0  503    0  0.00000000000E+00 -0.00000000000E+00 -0.54333014299E+03  0.54333014299E+03  0.00000000000E+00 0. -1.
         23    2    1    2    0    0  0.60748419467E+02  0.49146426917E+02  0.82877030365E+01  0.12930705685E+03  0.10269317009E+03 0.  0.
         23    2    1    2    0    0  0.14486677249E+03  0.83207427586E+01 -0.18355569665E+03  0.25192312943E+03  0.93364623053E+02 0.  0.
        -11    1    3    3    0    0 -0.66859308322E+00  0.49436926966E+02 -0.29134022162E+02  0.57386827860E+02  0.00000000000E+00 0.  1.
         11    1    3    3    0    0  0.61417012550E+02 -0.29050004944E+00  0.37421725199E+02  0.71920228988E+02  0.00000000000E+00 0. -1.
        -11    1    4    4    0    0  0.46311711167E+02 -0.35833219962E+02 -0.97937001982E+02  0.11410718909E+03  0.00000000000E+00 0. -1.
         11    1    4    4    0    0  0.98555061324E+02  0.44153962720E+02 -0.85618694669E+02  0.13781594035E+03  0.00000000000E+00 0.  1.
         21    1    1    2  502  501 -0.42687085744E+02  0.24196123466E+02  0.63307358729E+02  0.80096575141E+02  0.00000000000E+00 0.  1.
         21    1    1    2  503  502 -0.16292810621E+03 -0.81663293141E+02 -0.22433718964E+03  0.28903570004E+03  0.00000000000E+00 0.  1.
<scales pt_clust_5="13000.00000" pt_clust_6="13000.00000" pt_clust_7="13000.00000" pt_clust_8="13000.00000" pt_clust_9="49.06771" pt_clust_10="160.86457"></scales>
<clustering>
<clus scale="   49.068">  1  9  2 -1</clus>
<clus scale="   93.365">  7  8 -1 -1</clus>
<clus scale="  102.693">  5  6 -1 -1</clus>
<clus scale="  125.882">  1  5  2 -1</clus>
<clus scale="  160.865">  1 10  2 -1</clus>
<clus scale="  185.996">  2  5  1 -1</clus>
</clustering>
</event>
<event>
10    2  0.1133532E-006  0.1972368E+03  0.7546771E-02  0.1152959E+00
          1   -1    0    0  503    0  0.00000000000E+00  0.00000000000E+00  0.70510693864E+03  0.70510693864E+03  0.00000000000E+00 0. -1.
         -1   -1    0    0    0  501 -0.00000000000E+00 -0.00000000000E+00 -0.32688637477E+03  0.32688637477E+03  0.00000000000E+00 0.  1.
         23    2    1    2    0    0 -0.19465778896E+03 -0.13152045610E+03 -0.33662246487E+02  0.25365795663E+03  0.89554044830E+02 0.  0.
         23    2    1    2    0    0  0.10048509519E+03  0.12638867348E+03  0.54245578492E+03  0.57437782787E+03  0.97878799603E+02 0.  0.
        -13    1    3    3    0    0 -0.10767548690E+03 -0.11742084930E+03  0.36977795908E-01  0.15931625058E+03  0.00000000000E+00 0. -1.
         13    1    3    3    0    0 -0.86982302057E+02 -0.14099606799E+02 -0.33699224283E+02  0.94341706049E+02  0.00000000000E+00 0.  1.
        -13    1    4    4    0    0  0.22928986206E+02  0.10344250788E+03  0.26571494410E+03  0.28606034742E+03  0.00000000000E+00 0.  1.
         13    1    4    4    0    0  0.77556108980E+02  0.22946165601E+02  0.27674084082E+03  0.28831748045E+03  0.00000000000E+00 0. -1.
         21    1    1    2  502  501  0.10906314030E+03 -0.95994866527E+01 -0.14261692328E+03  0.17979573277E+03  0.00000000000E+00 0.  1.
         21    1    1    2  503  502 -0.14890446525E+02  0.14731269273E+02  0.12043948723E+02  0.24161796145E+02  0.00000000000E+00 0. -1.
<scales pt_clust_5="13000.00000" pt_clust_6="13000.00000" pt_clust_7="13000.00000" pt_clust_8="13000.00000" pt_clust_9="109.04907" pt_clust_10="20.94602"></scales>
<clustering>
<clus scale="   20.946">  1 10  2 -1</clus>
<clus scale="   89.554">  5  6 -1 -1</clus>
<clus scale="   97.879">  7  8 -1 -1</clus>
<clus scale="  109.049">  2  9  1 -1</clus>
<clus scale="  193.241">  2  5  1 -1</clus>
<clus scale="   20.946">  1  5  2 -1</clus>
</clustering>
</event>
<event>
10    2  0.1133532E-006  0.1172890E+03  0.7546771E-02  0.1247753E+00
         -2   -1    0    0    0  501 -0.00000000000E+00  0.00000000000E+00  0.24569113256E+03  0.24569113256E+03  0.00000000000E+00 0.  1.
          2   -1    0    0  503    0  0.00000000000E+00 -0.00000000000E+00 -0.14652208187E+03  0.14652208187E+03  0.00000000000E+00 0. -1.
         23    2    1    2    0    0 -0.31928554851E+02 -0.59466003313E+02  0.46612992803E+02  0.12276146449E+03  0.91334374145E+02 0.  0.
         23    2    1    2    0    0  0.82207827480E+02  0.49338738832E+02 -0.46229981666E+02  0.14048278859E+03  0.91682957181E+02 0.  0.
        -13    1    4    4    0    0  0.58376423886E+02  0.18283654585E+02  0.19305175234E+02  0.64146618629E+02  0.00000000000E+00 0.  1.
         13    1    4    4    0    0  0.23831403594E+02  0.31055084247E+02 -0.65535156901E+02  0.76336169964E+02  0.00000000000E+00 0. -1.
        -13    1    3    3    0    0 -0.36651594908E+02  0.97554554825E+01 -0.21004320108E+01  0.37985788601E+02  0.00000000000E+00 0. -1.
         13    1    3    3    0    0  0.47230400577E+01 -0.69221458795E+02  0.48713424814E+02  0.84775675888E+02  0.00000000000E+00 0.  1.
         21    1    1    2  502  501 -0.21794552420E+02  0.21843461293E+02  0.92530613706E+02  0.97540011222E+02  0.00000000000E+00 0.  1.
         21    1    1    2  503  502 -0.28484720210E+02 -0.11716196812E+02  0.62554258478E+01  0.31428950121E+02  0.00000000000E+00 0. -1.
<scales pt_clust_5="13000.00000" pt_clust_6="13000.00000" pt_clust_7="13000.00000" pt_clust_8="13000.00000" pt_clust_9="31.08245" pt_clust_10="30.80014"></scales>
<clustering>
<clus scale="   30.800">  2 10  1 -1</clus>
<clus scale="   31.082">  1  9  2 -1</clus>
<clus scale="   91.334">  7  8 -1 -1</clus>
<clus scale="   91.683">  5  6 -1 -1</clus>
<clus scale="  117.017">  1  7  2 -1</clus>
<clus scale="   30.800">  2  5  1 -1</clus>
</clustering>
</event>
<event>
10    2  0.1133532E-006  0.1399063E+03  0.7546771E-02  0.1213564E+00
         -2   -1    0    0    0  501 -0.00000000000E+00  0.00000000000E+00  0.12520669782E+03  0.12520669782E+03  0.00000000000E+00 0.  1.
          2   -1    0    0  503    0  0.00000000000E+00 -0.00000000000E+00 -0.32030902878E+03  0.32030902878E+03  0.00000000000E+00 0. -1.
         23    2    1    2    0    0  0.97537052901E+02 -0.13476436116E+02 -0.55397540362E+02  0.14540513988E+03  0.91535109138E+02 0.  0.
         23    2    1    2    0    0 -0.91752223937E+02  0.62240444669E+02 -0.15694884774E+03  0.21305934222E+03  0.92027164196E+02 0.  0.
        -11    1    4    4    0    0 -0.46967023934E+02  0.12336945168E+02 -0.73404463373E+01  0.49111950742E+02  0.00000000000E+00 0. -1.
         11    1    4    4    0    0 -0.44785200003E+02  0.49903499501E+02 -0.14960840140E+03  0.16394739148E+03  0.00000000000E+00 0.  1.
        -13    1    3    3    0    0  0.49449182881E+02 -0.30767227405E+01 -0.77087952137E+02  0.91636457129E+02  0.00000000000E+00 0. -1.
         13    1    3    3    0    0  0.48087870019E+02 -0.10399713376E+02  0.21690411775E+02  0.53768682746E+02  0.00000000000E+00 0.  1.
         21    1    1    2  502  501  0.11003834305E+02 -0.36092096534E+02  0.40730938497E+02  0.55522366237E+02  0.00000000000E+00 0.  1.
         21    1    1    2  503  502 -0.16788663269E+02 -0.12671912018E+02 -0.23486881356E+02  0.31528878261E+02  0.00000000000E+00 0. -1.
<scales pt_clust_5="13000.00000" pt_clust_6="13000.00000" pt_clust_7="13000.00000" pt_clust_8="13000.00000" pt_clust_9="37.91804" pt_clust_10="21.03418"></scales>
<clustering>
<clus scale="   21.034">  2 10  1 -1</clus>
<clus scale="   37.918">  1  9  2 -1</clus>
<clus scale="   91.535">  7  8 -1 -1</clus>
<clus scale="   92.027">  5  6 -1 -1</clus>
<clus scale="  139.583">  1  7  2 -1</clus>
<clus scale="   21.034">  2  5  1 -1</clus>
</clustering>
</event>
<event>
10    2  0.1133532E-006  0.2788309E+03  0.7546771E-02  0.1097026E+00
          2   -1    0    0  503    0  0.00000000000E+00  0.00000000000E+00  0.55263678913E+03  0.55263678913E+03  0.00000000000E+00 0. -1.
         -2   -1    0    0    0  501 -0.00000000000E+00 -0.00000000000E+00 -0.18710865982E+03  0.18710865982E+03  0.00000000000E+00 0.  1.
         23    2    1    2    0    0 -0.23729304673E+03 -0.97766756235E+02  0.80882095632E+02  0.28910015143E+03  0.10569132184E+03 0.  0.
         23    2    1    2    0    0  0.22497449387E+03  0.97391015026E+02  0.24761058974E+03  0.36027888267E+03  0.91604238143E+02 0.  0.
        -11    1    3    3    0    0 -0.18192593012E+03 -0.47943258409E+02  0.13434999016E+02  0.18861627522E+03  0.00000000000E+00 0.  1.
         11    1    3    3    0    0 -0.55367116608E+02 -0.49823497826E+02  0.67447096616E+02  0.10048387621E+03  0.00000000000E+00 0. -1.
        -13    1    4    4    0    0  0.53563817239E+02  0.63176854318E+01  0.12440757878E+02  0.55351315458E+02  0.00000000000E+00 0.  1.
         13    1    4    4    0    0  0.17141067663E+03  0.91073329594E+02  0.23516983186E+03  0.30492756721E+03  0.00000000000E+00 0. -1.
         21    1    1    2  502  501 -0.30353808026E+02 -0.67520785661E+01 -0.32318088794E+01  0.31263218249E+02  0.00000000000E+00 0.  1.
         21    1    1    2  503  502  0.42672360888E+02  0.71278197750E+01  0.40267252820E+02  0.59103196598E+02  0.00000000000E+00 0.  1.
<scales pt_clust_5="13000.00000" pt_clust_6="13000.00000" pt_clust_7="13000.00000" pt_clust_8="13000.00000" pt_clust_9="31.09573" pt_clust_10="41.54202"></scales>
<clustering>
<clus scale="   31.096">  2  9  1 -1</clus>
<clus scale="   41.542">  1 10  2 -1</clus>
<clus scale="   91.604">  7  8 -1 -1</clus>
<clus scale="  105.691">  5  6 -1 -1</clus>
<clus scale="  273.802">  1  7  2 -1</clus>
<clus scale="   41.542">  1  5  2 -1</clus>
</clustering>
</event>
<event>
10    2  0.1133532E-006  0.9441421E+02  0.7546771E-02  0.1294120E+00
         -1   -1    0    0    0  501 -0.00000000000E+00  0.00000000000E+00  0.10779421196E+03  0.10779421196E+03  0.00000000000E+00 0.  1.
          1   -1    0    0  503    0  0.00000000000E+00 -0.00000000000E+00 -0.28108388929E+03  0.28108388929E+03  0.00000000000E+00 0. -1.
         23    2    1    2    0    0  0.17293349392E+02 -0.20403164183E+02 -0.36226497229E+02  0.10338812174E+03  0.93066619011E+02 0.  0.
         23    2    1    2    0    0 -0.81610907719E+01  0.12252387902E+02 -0.17814236072E+03  0.20022721619E+03  0.90219249643E+02 0.  0.
        -11    1    4    4    0    0  0.70977374430E+01 -0.36957145625E+02 -0.54011016014E+02  0.65828552623E+02  0.00000000000E+00 0.  1.
         11    1    4    4    0    0 -0.15258828215E+02  0.49209533527E+02 -0.12413134471E+03  0.13439866357E+03  0.00000000000E+00 0. -1.
        -11    1    3    3    0    0  0.31231122279E+02  0.25029110753E+02 -0.38871061442E+02  0.55792461870E+02  0.00000000000E+00 0. -1.
         11    1    3    3    0    0 -0.13937772887E+02 -0.45432274936E+02  0.26445642128E+01  0.47595659873E+02  0.00000000000E+00 0.  1.
         21    1    1    2  502  501 -0.89133210424E+00  0.26997055018E+02  0.54413726270E+02  0.60749395546E+02  0.00000000000E+00 0.  1.
         21    1    1    2  503  502 -0.82409265163E+01 -0.18846278737E+02 -0.13334545642E+02  0.24513367773E+02  0.00000000000E+00 0. -1.
<scales pt_clust_5="13000.00000" pt_clust_6="13000.00000" pt_clust_7="13000.00000" pt_clust_8="13000.00000" pt_clust_9="26.78766" pt_clust_10="20.56928"></scales>
<clustering>
<clus scale="   20.569">  2 10  1 -1</clus>
<clus scale="   26.788">  1  9  2 -1</clus>
<clus scale="   90.219">  5  6 -1 -1</clus>
<clus scale="   91.609">  2  5  1 -1</clus>
<clus scale="   93.067">  7  8 -1 -1</clus>
<clus scale="   20.569">  2  5  1 -1</clus>
</clustering>
</event>
<event>
10    2  0.1133532E-006  0.2272232E+03  0.7546771E-02  0.1128614E+00
         -2   -1    0    0    0  501 -0.00000000000E+00  0.00000000000E+00  0.37211663042E+03  0.37211663042E+03  0.00000000000E+00 0.  1.
          2   -1    0    0  503    0  0.00000000000E+00 -0.00000000000E+00 -0.42229527861E+03  0.42229527861E+03  0.00000000000E+00 0. -1.
         23    2    1    2    0    0 -0.12562786678E+02  0.18464263873E+03  0.17502802810E+03  0.27059012535E+03  0.91287883482E+02 0.  0.
         23    2    1    2    0    0 -0.46463906650E+02 -0.16924988813E+03 -0.29333959524E+03  0.35383201030E+03  0.91348531027E+02 0.  0.
        -11    1    3    3    0    0 -0.40493941828E+02  0.13984458943E+03  0.92070548445E+02  0.17225926509E+03  0.00000000000E+00 0.  1.
         11    1    3    3    0    0  0.27931155150E+02  0.44798049297E+02  0.82957479659E+02  0.98330860264E+02  0.00000000000E+00 0. -1.
        -13    1    4    4    0    0 -0.69998680504E+02 -0.15426658502E+03 -0.24200061022E+03  0.29540191245E+03  0.00000000000E+00 0. -1.
         13    1    4    4    0    0  0.23534773855E+02 -0.14983303108E+02 -0.51338985017E+02  0.58430097852E+02  0.00000000000E+00 0.  1.
         21    1    1    2  502  501  0.80759456819E+02  0.33803859204E+02  0.75623017377E+02  0.11568764636E+03  0.00000000000E+00 0.  1.
         21    1    1    2  503  502 -0.21732763491E+02 -0.49196609798E+02 -0.74900984279E+01  0.54302127021E+02  0.00000000000E+00 0.  1.
<scales pt_clust_5="13000.00000" pt_clust_6="13000.00000" pt_clust_7="13000.00000" pt_clust_8="13000.00000" pt_clust_9="85.57147" pt_clust_10="53.78308"></scales>
<clustering>
<clus scale="   53.783">  2 10  1 -1</clus>
<clus scale="   85.571">  1  9  2 -1</clus>
<clus scale="   91.288">  5  6 -1 -1</clus>
<clus scale="   91.349">  7  8 -1 -1</clus>
<clus scale="  227.199">  1  5  2 -1</clus>
<clus scale="   53.783">  2  5  1 -1</clus>
</clustering>
</event>
<event>
10    2  0.1133532E-006  0.2005053E+03  0.7546771E-02  0.1149637E+00
         -2   -1    0    0    0  501 -0.00000000000E+00  0.00000000000E+00  0.50721505709E+03  0.50721505709E+03  0.00000000000E+00 0.  1.
          2   -1    0    0  503    0  0.00000000000E+00 -0.00000000000E+00 -0.18182880880E+03  0.18182880880E+03  0.00000000000E+00 0. -1.
         23    2    1    2    0    0  0.17963608803E+03  0.10777635108E+03  0.26664910297E+03  0.35141313231E+03  0.92220276903E+02 0.  0.
         23    2    1    2    0    0 -0.16710149523E+03 -0.74002321086E+02  0.54039309575E+01  0.20327513988E+03  0.88838768498E+02 0.  0.
        -11    1    4    4    0    0 -0.60142470365E+02  0.76731311953E+01 -0.24537546343E+02  0.65407070448E+02  0.00000000000E+00 0. -1.
         11    1    4    4    0    0 -0.10695902486E+03 -0.81675452281E+02  0.29941477301E+02  0.13786806943E+03  0.00000000000E+00 0.  1.
        -13    1    3    3    0    0  0.98043549921E+01  0.46676162846E+02  0.67429800587E+02  0.82592781537E+02  0.00000000000E+00 0.  1.
         13    1    3    3    0    0  0.16983173304E+03  0.61100188230E+02  0.19921930238E+03  0.26882035077E+03  0.00000000000E+00 0. -1.
         21    1    1    2  502  501 -0.33496211010E+02 -0.43899712513E+02  0.81104567538E+02  0.98117948339E+02  0.00000000000E+00 0.  1.
         21    1    1    2  503  502  0.20961618210E+02  0.10125682523E+02 -0.27771353168E+02  0.36237645362E+02  0.00000000000E+00 0.  1.
<scales pt_clust_5="13000.00000" pt_clust_6="13000.00000" pt_clust_7="13000.00000" pt_clust_8="13000.00000" pt_clust_9="54.04368" pt_clust_10="23.27915"></scales>
<clustering>
<clus scale="   23.279">  2 10  1 -1</clus>
<clus scale="   54.044">  1  9  2 -1</clus>
<clus scale="   88.839">  5  6 -1 -1</clus>
<clus scale="   92.220">  7  8 -1 -1</clus>
<clus scale="  198.973">  2  5  1 -1</clus>
<clus scale="   23.279">  2  5  1 -1</clus>
</clustering>
</event>
<event>
10    2  0.1133532E-006  0.1007326E+03  0.7546771E-02  0.1281269E+00
         -1   -1    0    0    0  501 -0.00000000000E+00  0.00000000000E+00  0.20585102061E+03  0.20585102061E+03  0.00000000000E+00 0.  1.
          1   -1    0    0  503    0  0.00000000000E+00 -0.00000000000E+00 -0.22861834133E+03  0.22861834133E+03  0.00000000000E+00 0. -1.
         23    2    1    2    0    0 -0.54825495230E+02  0.28327637460E+02  0.10757856525E+03  0.15535860562E+03  0.93567401749E+02 0.  0.
         23    2    1    2    0    0  0.56824375301E+02  0.84562777276E+01 -0.11530871714E+03  0.15629557803E+03  0.88496831589E+02 0.  0.
        -13    1    3    3    0    0 -0.72892083030E+02  0.11152993027E+02  0.41234757702E+02  0.84486391003E+02  0.00000000000E+00 0.  1.
         13    1    3    3    0    0  0.18066587800E+02  0.17174644432E+02  0.66343807543E+02  0.70872214622E+02  0.00000000000E+00 0. -1.
        -13    1    4    4    0    0  0.56779760839E+02  0.42814880173E+02 -0.79688477024E+02  0.10680500258E+03  0.00000000000E+00 0. -1.
         13    1    4    4    0    0  0.44614462287E-01 -0.34358602446E+02 -0.35620240114E+02  0.49490575449E+02  0.00000000000E+00 0.  1.
         21    1    1    2  502  501  0.28373105513E+02 -0.43211898236E+02  0.36058349436E+02  0.63027817903E+02  0.00000000000E+00 0.  1.
         21    1    1    2  503  502 -0.30371985584E+02  0.64279830483E+01 -0.51095518269E+02  0.59787360383E+02  0.00000000000E+00 0. -1.
<scales pt_clust_5="13000.00000" pt_clust_6="13000.00000" pt_clust_7="13000.00000" pt_clust_8="13000.00000" pt_clust_9="50.00684" pt_clust_10="31.04475"></scales>
<clustering>
<clus scale="   31.045">  2 10  1 -1</clus>
<clus scale="   50.007">  1  9  2 -1</clus>
<clus scale="   88.497">  7  8 -1 -1</clus>
<clus scale="   93.567">  5  6 -1 -1</clus>
<clus scale="   96.041">  2  7  1 -1</clus>
<clus scale="   31.045">  2  5  1 -1</clus>
</clustering>
</event>
<event>
10    2  0.1133532E-006  0.1814182E+03  0.7546771E-02  0.1168094E+00
         -2   -1    0    0    0  501 -0.00000000000E+00  0.00000000000E+00  0.25207483165E+03  0.25207483165E+03  0.00000000000E+00 0.  1.
          2   -1    0    0  503    0  0.00000000000E+00 -0.00000000000E+00 -0.80440390900E+03  0.80440390900E+03  0.00000000000E+00 0. -1.
         23    2    1    2    0    0 -0.69958289007E+02 -0.14043357319E+02  0.62092958395E+02  0.12981068386E+03  0.88903881114E+02 0.  0.
         23    2    1    2    0    0  0.15993200981E+03  0.17905379840E+02 -0.69162342845E+03  0.71732706455E+03  0.10156919008E+03 0.  0.
        -11    1    3    3    0    0 -0.76485522930E+02  0.17763936826E+02  0.29714046871E+02  0.83955448011E+02  0.00000000000E+00 0.  1.
         11    1    3    3    0    0  0.65272339228E+01 -0.31807294144E+02  0.32378911524E+02  0.45855235851E+02  0.00000000000E+00 0. -1.
        -13    1    4    4    0    0  0.57728984265E+02  0.48678424743E+02 -0.18963539376E+03  0.20411714094E+03  0.00000000000E+00 0.  1.
         13    1    4    4    0    0  0.10220302555E+03 -0.30773044903E+02 -0.50198803469E+03  0.51320992361E+03  0.00000000000E+00 0. -1.
         21    1    1    2  502  501  0.20396184743E+02 -0.17510465118E+01  0.95302805463E+02  0.97476639484E+02  0.00000000000E+00 0. -1.
         21    1    1    2  503  502 -0.11036990555E+03 -0.21109760100E+01 -0.18101412764E+02  0.11186435274E+03  0.00000000000E+00 0.  1.
<scales pt_clust_5="13000.00000" pt_clust_6="13000.00000" pt_clust_7="13000.00000" pt_clust_8="13000.00000" pt_clust_9="20.47121" pt_clust_10="104.26139"></scales>
<clustering>
<clus scale="   20.471">  1  9  2 -1</clus>
<clus scale="   88.904">  5  6 -1 -1</clus>
<clus scale="  101.569">  7  8 -1 -1</clus>
<clus scale="  104.261">  1 10  2 -1</clus>
<clus scale="  174.643">  1  5  2 -1</clus>
<clus scale="  181.418">  2  5  1 -1</clus>
</clustering>
</event>
<event>
10    2  0.1133532E-006  0.1415066E+03  0.7546771E-02  0.1216397E+00
         -1   -1    0    0    0  501 -0.00000000000E+00  0.00000000000E+00  0.48421390375E+03  0.48421390375E+03  0.00000000000E+00 0.  1.
          1   -1    0    0  503    0  0.00000000000E+00 -0.00000000000E+00 -0.15959416521E+03  0.15959416521E+03  0.00000000000E+00 0. -1.
         23    2    1    2    0    0 -0.12305776337E+03  0.12538254467E+03  0.13525515018E+03  0.23548750892E+03  0.79349956373E+02 0.  0.
         23    2    1    2    0    0  0.41835104554E+02 -0.59124387088E+02 -0.39288678657E+02  0.13026700655E+03  0.10089610301E+03 0.  0.
        -11    1    4    4    0    0 -0.11764699001E+02  0.22793213651E+02 -0.13714904809E+02  0.29086721112E+02  0.00000000000E+00 0. -1.
         11    1    4    4    0    0  0.53599803555E+02 -0.81917600739E+02 -0.25573773848E+02  0.10118028544E+03  0.00000000000E+00 0.  1.
        -13    1    3    3    0    0 -0.11153401220E+03  0.69432376177E+02  0.70369139998E+02  0.14903860776E+03  0.00000000000E+00 0. -1.
         13    1    3    3    0    0 -0.11523751167E+02  0.55950168490E+02  0.64886010178E+02  0.86448901160E+02  0.00000000000E+00 0.  1.
         21    1    1    2  502  501  0.61477159091E+02 -0.70700477841E+02  0.23798759005E+03  0.25576569683E+03  0.00000000000E+00 0.  1.
         21    1    1    2  503  502  0.19745499723E+02  0.44423202636E+01 -0.93343230262E+01  0.22287856671E+02  0.00000000000E+00 0.  1.
<scales pt_clust_5="13000.00000" pt_clust_6="13000.00000" pt_clust_7="13000.00000" pt_clust_8="13000.00000" pt_clust_9="94.29116" pt_clust_10="20.23905"></scales>
<clustering>
<clus scale="   20.239">  2 10  1 -1</clus>
<clus scale="   79.350">  7  8 -1 -1</clus>
<clus scale="   94.291">  1  9  2 -1</clus>
<clus scale="  100.896">  5  6 -1 -1</clus>
<clus scale="  127.045">  1  7  2 -1</clus>
<clus scale="   20.239">  2  5  1 -1</clus>
</clustering>
</event>
<event>
10    2  0.1133532E-006  0.1970806E+03  0.7546771E-02  0.1185547E+00
          1   -1    0    0  503    0  0.00000000000E+00  0.00000000000E+00  0.51492716374E+03  0.51492716374E+03  0.00000000000E+00 0. -1.
         -1   -1    0    0    0  501 -0.00000000000E+00 -0.00000000000E+00 -0.48358807245E+03  0.48358807245E+03  0.00000000000E+00 0.  1.
         23    2    1    2    0    0  0.10467639749E+02  0.33802220061E+00 -0.24429035918E+03  0.26084086750E+03  0.90832223519E+02 0.  0.
         23    2    1    2    0    0 -0.78062711484E+02 -0.20277269895E+03 -0.64703986052E+02  0.24357042109E+03  0.89047121542E+02 0.  0.
        -11    1    3    3    0    0  0.32332622358E+02 -0.34833925995E+02 -0.16026715825E+03  0.16716567495E+03  0.00000000000E+00 0. -1.
         11    1    3    3    0    0 -0.21864982609E+02  0.35171948196E+02 -0.84023200927E+02  0.93675192545E+02  0.00000000000E+00 0.  1.
        -13    1    4    4    0    0 -0.85581119842E+02 -0.99750742625E+02 -0.32858412972E+02  0.13547698709E+03  0.00000000000E+00 0. -1.
         13    1    4    4    0    0  0.75184083581E+01 -0.10302195632E+03 -0.31845573080E+02  0.10809343400E+03  0.00000000000E+00 0.  1.
         21    1    1    2  502  501  0.15219758949E+02  0.14386508356E+03 -0.15432872316E+00  0.14466798937E+03  0.00000000000E+00 0.  1.
         21    1    1    2  503  502  0.52375312787E+02  0.58569593189E+02  0.34048776524E+03  0.34943595825E+03  0.00000000000E+00 0.  1.
<scales pt_clust_5="13000.00000" pt_clust_6="13000.00000" pt_clust_7="13000.00000" pt_clust_8="13000.00000" pt_clust_9="175.81628" pt_clust_10="78.57207"></scales>
<clustering>
<clus scale="   78.572">  1 10  2 -1</clus>
<clus scale="   89.047">  7  8 -1 -1</clus>
<clus scale="   90.832">  5  6 -1 -1</clus>
<clus scale="   91.816">  2  5  1 -1</clus>
<clus scale="  175.816">  2  9  1 -1</clus>
<clus scale="   78.572">  1  5  2 -1</clus>
</clustering>
</event>
<event>
10    2  0.1133532E-006  0.1209377E+03  0.7546771E-02  0.1242264E+00
          1   -1    0    0  503    0  0.00000000000E+00  0.00000000000E+00  0.10833098814E+03  0.10833098814E+03  0.00000000000E+00 0. -1.
         -1   -1    0    0    0  501 -0.00000000000E+00 -0.00000000000E+00 -0.43505816661E+03  0.43505816661E+03  0.00000000000E+00 0.  1.
         23    2    1    2    0    0 -0.79997485330E+02 -0.77870783361E+01 -0.27414929192E+03  0.30006769367E+03  0.91774453289E+02 0.  0.
         23    2    1    2    0    0  0.38349632623E+02  0.40858295428E+01 -0.18642922066E+02  0.99222551802E+02  0.89499541438E+02 0.  0.
        -11    1    3    3    0    0 -0.46495512882E+02  0.21527910428E+02 -0.23582417803E+03  0.24132618298E+03  0.00000000000E+00 0.  1.
         11    1    3    3    0    0 -0.33501972448E+02 -0.29314988764E+02 -0.38325113889E+02  0.58741510695E+02  0.00000000000E+00 0. -1.
        -13    1    4    4    0    0 -0.28882588152E+02  0.24696445710E+01  0.14774083790E+01  0.29025605561E+02  0.00000000000E+00 0.  1.
         13    1    4    4    0    0  0.67232220776E+02  0.16161849717E+01 -0.20120330445E+02  0.70196946241E+02  0.00000000000E+00 0. -1.
         21    1    1    2  502  501 -0.20700356431E+02 -0.12330417351E+02 -0.67376254486E+02  0.71554899322E+02  0.00000000000E+00 0.  1.
         21    1    1    2  503  502  0.62348209138E+02  0.16031666145E+02  0.33441290004E+02  0.72544009947E+02  0.00000000000E+00 0. -1.
<scales pt_clust_5="13000.00000" pt_clust_6="13000.00000" pt_clust_7="13000.00000" pt_clust_8="13000.00000" pt_clust_9="24.09448" pt_clust_10="63.14102"></scales>
<clustering>
<clus scale="   24.094">  2  9  1 -1</clus>
<clus scale="   63.141">  1 10  2 -1</clus>
<clus scale="   89.500">  7  8 -1 -1</clus>
<clus scale="   91.774">  5  6 -1 -1</clus>
<clus scale="  119.221">  1  7  2 -1</clus>
<clus scale="   63.141">  1  5  2 -1</clus>
</clustering>
</event>
<event>
10    2  0.1133532E-006  0.1027814E+03  0.7546771E-02  0.1274882E+00
         -1   -1    0    0    0  501 -0.00000000000E+00  0.00000000000E+00  0.95845463154E+02  0.95845463154E+02  0.00000000000E+00 0.  1.
          1   -1    0    0  503    0  0.00000000000E+00 -0.00000000000E+00 -0.33059501908E+03  0.33059501908E+03  0.00000000000E+00 0. -1.
         23    2    1    2    0    0 -0.51024964572E+02  0.21325290145E+02 -0.15586965092E+02  0.10799458793E+03  0.91441579887E+02 0.  0.
         23    2    1    2    0    0  0.28860493384E+02 -0.10405187207E+02 -0.13829716197E+03  0.16821528816E+03  0.90714288622E+02 0.  0.
        -11    1    4    4    0    0  0.55529380142E+02  0.15402126506E+02 -0.95788388754E+02  0.11178619315E+03  0.00000000000E+00 0. -1.
         11    1    4    4    0    0 -0.26668886758E+02 -0.25807313713E+02 -0.42508773221E+02  0.56429095002E+02  0.00000000000E+00 0.  1.
        -13    1    3    3    0    0 -0.32901804297E+02 -0.32452626315E+02 -0.21438394202E+02  0.50944150073E+02  0.00000000000E+00 0.  1.
         13    1    3    3    0    0 -0.18123160275E+02  0.53777916460E+02  0.58514291096E+01  0.57050437858E+02  0.00000000000E+00 0. -1.
         21    1    1    2  502  501 -0.78803854303E+01 -0.43893528603E+02  0.12875504189E+02  0.46416817382E+02  0.00000000000E+00 0. -1.
         21    1    1    2  503  502  0.30044856618E+02  0.32973425664E+02 -0.93740933052E+02  0.10381378877E+03  0.00000000000E+00 0. -1.
<scales pt_clust_5="13000.00000" pt_clust_6="13000.00000" pt_clust_7="13000.00000" pt_clust_8="13000.00000" pt_clust_9="44.59532" pt_clust_10="41.77561"></scales>
<clustering>
<clus scale="   44.595">  1  9  2 -1</clus>
<clus scale="   41.776">  2 10  1 -1</clus>
<clus scale="   90.714">  5  6 -1 -1</clus>
<clus scale="   91.442">  7  8 -1 -1</clus>
<clus scale="  102.135">  2  5  1 -1</clus>
<clus scale="   41.776">  2  5  1 -1</clus>
</clustering>
</event>
<event>
10    2  0.1133532E-006  0.2125626E+03  0.7546771E-02  0.1139710E+00
         -1   -1    0    0    0  501 -0.00000000000E+00  0.00000000000E+00  0.50300800801E+03  0.50300800801E+03  0.00000000000E+00 0.  1.
          1   -1    0    0  503    0  0.00000000000E+00 -0.00000000000E+00 -0.12529541323E+03  0.12529541323E+03  0.00000000000E+00 0. -1.
         23    2    1    2    0    0 -0.25850258519E+02  0.20705142046E+03  0.19850917390E+03  0.30291840321E+03  0.93888978592E+02 0.  0.
         23    2    1    2    0    0  0.39373079301E+02 -0.16956100682E+03  0.13570642712E+03  0.23914424844E+03  0.92046525162E+02 0.  0.
        -11    1    3    3    0    0 -0.39761180261E+02  0.15525394781E+03  0.19008099392E+03  0.24862727931E+03  0.00000000000E+00 0.  1.
         11    1    3    3    0    0  0.13910921741E+02  0.51797472651E+02  0.84281799776E+01  0.54291123902E+02  0.00000000000E+00 0. -1.
        -13    1    4    4    0    0 -0.29060573027E+02 -0.70779841134E+02  0.47231914192E+02  0.89917498485E+02  0.00000000000E+00 0.  1.
         13    1    4    4    0    0  0.68433652328E+02 -0.98781165682E+02  0.88474512924E+02  0.14922674995E+03  0.00000000000E+00 0. -1.
         21    1    1    2  502  501 -0.14936778378E+02 -0.15681715899E+02  0.56708572734E+02  0.60703260072E+02  0.00000000000E+00 0. -1.
         21    1    1    2  503  502  0.14139575960E+01 -0.21808697743E+02 -0.13211578976E+02  0.25537509518E+02  0.00000000000E+00 0. -1.
<scales pt_clust_5="13000.00000" pt_clust_6="13000.00000" pt_clust_7="13000.00000" pt_clust_8="13000.00000" pt_clust_9="21.65695" pt_clust_10="22.05925"></scales>
<clustering>
<clus scale="   21.657">  1  9  2 -1</clus>
<clus scale="   22.059">  2 10  1 -1</clus>
<clus scale="   92.047">  7  8 -1 -1</clus>
<clus scale="   93.889">  5  6 -1 -1</clus>
<clus scale="  211.755">  2  7  1 -1</clus>
<clus scale="   22.059">  2  5  1 -1</clus>
</clustering>
</event>
<event>
10    2  0.1133532E-006  0.9412651E+02  0.7546771E-02  0.1294679E+00
          1   -1    0    0  503    0  0.00000000000E+00  0.00000000000E+00  0.21822127193E+03  0.21822127193E+03  0.00000000000E+00 0. -1.
         -1   -1    0    0    0  501 -0.00000000000E+00 -0.00000000000E+00 -0.11213192483E+03  0.11213192483E+03  0.00000000000E+00 0.  1.
         23    2    1    2    0    0 -0.11353884975E+02  0.33957631646E+02 -0.27079173285E+01  0.97486991135E+02  0.90633046806E+02 0.  0.
         23    2    1    2    0    0  0.29235242785E+02  0.22465823373E+02  0.86434998542E+02  0.12867164414E+03  0.87897499349E+02 0.  0.
        -11    1    3    3    0    0  0.82664554400E+00  0.49847074755E+02 -0.33995766341E+02  0.60341746192E+02  0.00000000000E+00 0.  1.
         11    1    3    3    0    0 -0.12180530519E+02 -0.15889443108E+02  0.31287849013E+02  0.37145244942E+02  0.00000000000E+00 0. -1.
        -13    1    4    4    0    0 -0.72903355622E+01  0.34771273865E+02  0.82627123456E+02  0.89941269779E+02  0.00000000000E+00 0.  1.
         13    1    4    4    0    0  0.36525578347E+02 -0.12305450492E+02  0.38078750861E+01  0.38730374360E+02  0.00000000000E+00 0. -1.
         21    1    1    2  502  501 -0.21993130433E+02 -0.30245381242E+02 -0.28382626857E+02  0.46947357541E+02  0.00000000000E+00 0. -1.
         21    1    1    2  503  502  0.41117726232E+01 -0.26178073777E+02  0.50744892737E+02  0.57247203946E+02  0.00000000000E+00 0. -1.
<scales pt_clust_5="13000.00000" pt_clust_6="13000.00000" pt_clust_7="13000.00000" pt_clust_8="13000.00000" pt_clust_9="38.47085" pt_clust_10="26.49902"></scales>
<clustering>
<clus scale="   26.499">  1 10  2 -1</clus>
<clus scale="   38.471">  2  9  1 -1</clus>
<clus scale="   87.897">  7  8 -1 -1</clus>
<clus scale="   90.633">  5  6 -1 -1</clus>
<clus scale="   91.495">  1  7  2 -1</clus>
<clus scale="   26.499">  1  5  2 -1</clus>
</clustering>
</event>
<event>
10    2  0.1133532E-006  0.2042947E+03  0.7546771E-02  0.1146341E+00
         -1   -1    0    0    0  501 -0.00000000000E+00  0.00000000000E+00  0.71654068560E+02  0.71654068560E+02  0.00000000000E+00 0.  1.
          1   -1    0    0  503    0  0.00000000000E+00 -0.00000000000E+00 -0.11163969556E+04  0.11163969556E+04  0.00000000000E+00 0. -1.
         23    2    1    2    0    0  0.46989081446E+02  0.19456527445E+03 -0.34481151508E+03  0.40892217252E+03  0.90877623498E+02 0.  0.
         23    2    1    2    0    0  0.37730677280E+01 -0.17570799319E+03 -0.66150479549E+03  0.69071227607E+03  0.92775637660E+02 0.  0.
        -11    1    3    3    0    0  0.64088616077E+02  0.78055689825E+02 -0.13922803034E+03  0.17200141237E+03  0.00000000000E+00 0.  1.
         11    1    3    3    0    0 -0.17099534631E+02  0.11650958462E+03 -0.20558348474E+03  0.23692076015E+03  0.00000000000E+00 0. -1.
        -13    1    4    4    0    0  0.38733626841E+02 -0.45899852045E+02 -0.14380669044E+03  0.15584432771E+03  0.00000000000E+00 0.  1.
         13    1    4    4    0    0 -0.34960559113E+02 -0.12980814115E+03 -0.51769810505E+03  0.53486794836E+03  0.00000000000E+00 0. -1.
         21    1    1    2  502  501 -0.30312681505E+02  0.16261694626E+02 -0.30451653310E+01  0.34533670585E+02  0.00000000000E+00 0. -1.
         21    1    1    2  503  502 -0.20449467669E+02 -0.35118975878E+02 -0.35381411116E+02  0.53882904963E+02  0.00000000000E+00 0. -1.
<scales pt_clust_5="13000.00000" pt_clust_6="13000.00000" pt_clust_7="13000.00000" pt_clust_8="13000.00000" pt_clust_9="34.39915" pt_clust_10="41.23180"></scales>
<clustering>
<clus scale="   34.399">  1  9  2 -1</clus>
<clus scale="   41.232">  1 10  2 -1</clus>
<clus scale="   90.878">  5  6 -1 -1</clus>
<clus scale="   92.776">  7  8 -1 -1</clus>
<clus scale="  203.440">  1  5  2 -1</clus>
<clus scale="  204.295">  2  5  1 -1</clus>
</clustering>
</event>
<event>
10    2  0.1133532E-006  0.1156990E+03  0.7546771E-02  0.1250541E+00
         -1   -1    0    0    0  501 -0.00000000000E+00  0.00000000000E+00  0.18831782110E+03  0.18831782110E+03  0.00000000000E+00 0.  1.
          1   -1    0    0  503    0  0.00000000000E+00 -0.00000000000E+00 -0.14849646861E+03  0.14849646861E+03  0.00000000000E+00 0. -1.
         23    2    1    2    0    0  0.23567958687E+02  0.38223784206E+02  0.24834752979E+02  0.10543828957E+03  0.92108423052E+02 0.  0.
         23    2    1    2    0    0 -0.74000544607E+02 -0.71882167515E+02  0.41184499754E+02  0.14397866314E+03  0.91600031718E+02 0.  0.
        -11    1    4    4    0    0 -0.25136542592E+02 -0.83837929341E+02  0.29175864894E+02  0.92259824745E+02  0.00000000000E+00 0.  1.
         11    1    4    4    0    0 -0.48864002015E+02  0.11955761825E+02  0.12008634859E+02  0.51718838395E+02  0.00000000000E+00 0. -1.
        -13    1    3    3    0    0  0.22765086109E+02 -0.27855433307E+02  0.13303519587E+02  0.38355676812E+02  0.00000000000E+00 0.  1.
         13    1    3    3    0    0  0.80287257831E+00  0.66079217513E+02  0.11531233393E+02  0.67082612763E+02  0.00000000000E+00 0. -1.
         21    1    1    2  502  501  0.26297509981E+02  0.39223685926E+02  0.50847972809E+01  0.47496439153E+02  0.00000000000E+00 0. -1.
         21    1    1    2  503  502  0.24135075939E+02 -0.55653026162E+01 -0.31282697529E+02  0.39900897840E+02  0.00000000000E+00 0. -1.
<scales pt_clust_5="13000.00000" pt_clust_6="13000.00000" pt_clust_7="13000.00000" pt_clust_8="13000.00000" pt_clust_9="49.07255" pt_clust_10="24.76842"></scales>
<clustering>
<clus scale="   24.768">  2 10  1 -1</clus>
<clus scale="   49.073">  2  9  1 -1</clus>
<clus scale="   91.600">  5  6 -1 -1</clus>
<clus scale="   92.108">  7  8 -1 -1</clus>
<clus scale="  115.295">  2  5  1 -1</clus>
<clus scale="   24.768">  2  5  1 -1</clus>
</clustering>
</event>
<event>
10    2  0.1133532E-006  0.1017092E+03  0.7546771E-02  0.1277039E+00
         -1   -1    0    0    0  501 -0.00000000000E+00  0.00000000000E+00  0.11182862996E+03  0.11182862996E+03  0.00000000000E+00 0.  1.
          1   -1    0    0  503    0  0.00000000000E+00 -0.00000000000E+00 -0.51077248649E+03  0.51077248649E+03  0.00000000000E+00 0. -1.
         23    2    1    2    0    0 -0.12731085574E+02  0.64437362050E+02 -0.63077632522E+02  0.12951273939E+03  0.92089672456E+02 0.  0.
         23    2    1    2    0    0 -0.50748807068E+02 -0.11903748102E+02 -0.32876153241E+03  0.34520271223E+03  0.91452866020E+02 0.  0.
        -11    1    3    3    0    0  0.38161080226E+02  0.19656694736E+02 -0.11811999415E+02  0.44521646669E+02  0.00000000000E+00 0.  1.
         11    1    3    3    0    0 -0.50892165800E+02  0.44780667314E+02 -0.51265633107E+02  0.84991092726E+02  0.00000000000E+00 0. -1.
        -13    1    4    4    0    0  0.23363337592E+02 -0.71965547693E+01 -0.14426230571E+03  0.14631899669E+03  0.00000000000E+00 0.  1.
         13    1    4    4    0    0 -0.74112144660E+02 -0.47071933326E+01 -0.18449922670E+03  0.19888371555E+03  0.00000000000E+00 0. -1.
         21    1    1    2  502  501  0.33982733461E+02 -0.27151063834E+02  0.57721796164E+02  0.72275944775E+02  0.00000000000E+00 0.  1.
         21    1    1    2  503  502  0.29497159181E+02 -0.25382550114E+02 -0.64826487758E+02  0.75609720044E+02  0.00000000000E+00 0.  1.
<scales pt_clust_5="13000.00000" pt_clust_6="13000.00000" pt_clust_7="13000.00000" pt_clust_8="13000.00000" pt_clust_9="44.13957" pt_clust_10="38.91473"></scales>
<clustering>
<clus scale="   38.915">  2 10  1 -1</clus>
<clus scale="   44.140">  1  9  2 -1</clus>
<clus scale="   91.453">  7  8 -1 -1</clus>
<clus scale="   92.090">  5  6 -1 -1</clus>
<clus scale="  101.133">  2  7  1 -1</clus>
<clus scale="   38.915">  2  5  1 -1</clus>
</clustering>
</event>
<event>
10    2  0.1133532E-006  0.1051684E+03  0.7546771E-02  0.1270681E+00
          3   -1    0    0  503    0  0.00000000000E+00  0.00000000000E+00  0.42203851071E+03  0.42203851071E+03  0.00000000000E+00 0. -1.
         -3   -1    0    0    0  501 -0.00000000000E+00 -0.00000000000E+00 -0.87492972867E+02  0.87492972867E+02  0.00000000000E+00 0.  1.
         23    2    1    2    0    0  0.18800152935E+02 -0.56473842483E+02  0.63298848167E+02  0.12761680871E+03  0.93469594255E+02 0.  0.
         23    2    1    2    0    0 -0.16607554856E+01  0.30388571188E+02  0.60432369578E+02  0.11700487070E+03  0.95455985180E+02 0.  0.
        -11    1    3    3    0    0 -0.19955244036E+02  0.13233449780E+02  0.36160773279E+02  0.43369776132E+02  0.00000000000E+00 0. -1.
         11    1    3    3    0    0  0.38755396971E+02 -0.69707292263E+02  0.27138074889E+02  0.84247032575E+02  0.00000000000E+00 0.  1.
        -13    1    4    4    0    0 -0.24941410204E+02 -0.13612540557E+02 -0.10547378830E+02  0.30308784264E+02  0.00000000000E+00 0.  1.
         13    1    4    4    0    0  0.23280654718E+02  0.44001111745E+02  0.70979748408E+02  0.86696086434E+02  0.00000000000E+00 0. -1.
         21    1    1    2  502  501 -0.42488855068E+02  0.11481389056E+02 -0.74972407231E+01  0.44646766043E+02  0.00000000000E+00 0.  1.
         21    1    1    2  503  502  0.25349457618E+02  0.14603882239E+02  0.21831156082E+03  0.22026303813E+03  0.00000000000E+00 0. -1.
<scales pt_clust_5="13000.00000" pt_clust_6="13000.00000" pt_clust_7="13000.00000" pt_clust_8="13000.00000" pt_clust_9="42.16257" pt_clust_10="29.25523"></scales>
<clustering>
<clus scale="   29.255">  1 10  2 -1</clus>
<clus scale="   42.163">  2  9  1 -1</clus>
<clus scale="   93.470">  5  6 -1 -1</clus>
<clus scale="   95.456">  7  8 -1 -1</clus>
<clus scale="  103.369">  2  5  1 -1</clus>
<clus scale="   29.255">  1  5  2 -1</clus>
</clustering>
</event>
<event>
10    2  0.1133532E-006  0.2083375E+03  0.7546771E-02  0.1143030E+00
         -1   -1    0    0    0  501 -0.00000000000E+00  0.00000000000E+00  0.20269413808E+03  0.20269413808E+03  0.00000000000E+00 0.  1.
          1   -1    0    0  503    0  0.00000000000E+00 -0.00000000000E+00 -0.95642148260E+03  0.95642148260E+03  0.00000000000E+00 0. -1.
         23    2    1    2    0    0  0.19674843416E+03  0.16200839457E+02 -0.37170595029E+03  0.42992719734E+03  0.87747751991E+02 0.  0.
         23    2    1    2    0    0 -0.16994098252E+03 -0.57483151789E+02 -0.47052077257E+03  0.51143499234E+03  0.89396329287E+02 0.  0.
        -13    1    4    4    0    0 -0.56756157700E+02 -0.53274136610E+02 -0.27153535668E+03  0.28247273319E+03  0.00000000000E+00 0.  1.
         13    1    4    4    0    0 -0.11318482482E+03 -0.42090151791E+01 -0.19898541589E+03  0.22896225915E+03  0.00000000000E+00 0. -1.
        -13    1    3    3    0    0  0.15883439229E+03  0.46579086600E+02 -0.30966703152E+03  0.35112910147E+03  0.00000000000E+00 0.  1.
         13    1    3    3    0    0  0.37914041871E+02 -0.30378247143E+02 -0.62038918771E+02  0.78798095870E+02  0.00000000000E+00 0. -1.
         21    1    1    2  502  501 -0.53123109181E+01  0.40871781696E+02  0.14844953698E+03  0.15406488313E+03  0.00000000000E+00 0.  1.
         21    1    1    2  503  502 -0.21495140729E+02  0.41053063633E+00 -0.59950158628E+02  0.63688547871E+02  0.00000000000E+00 0. -1.
<scales pt_clust_5="13000.00000" pt_clust_6="13000.00000" pt_clust_7="13000.00000" pt_clust_8="13000.00000" pt_clust_9="41.22560" pt_clust_10="21.49906"></scales>
<clustering>
<clus scale="   21.499">  2 10  1 -1</clus>
<clus scale="   41.226">  1  9  2 -1</clus>
<clus scale="   87.748">  7  8 -1 -1</clus>
<clus scale="   89.396">  5  6 -1 -1</clus>
<clus scale="  207.635">  1  7  2 -1</clus>
<clus scale="   21.499">  2  5  1 -1</clus>
</clustering>
</event>
<event>
10    2  0.1133532E-006  0.1170122E+03  0.7546771E-02  0.1249610E+00
          2   -1    0    0  503    0  0.00000000000E+00  0.00000000000E+00  0.68061247743E+02  0.68061247743E+02  0.00000000000E+00 0. -1.
         -2   -1    0    0    0  501 -0.00000000000E+00 -0.00000000000E+00 -0.55717894474E+03  0.55717894474E+03  0.00000000000E+00 0.  1.
         23    2    1    2    0    0  0.37280799319E+02 -0.82260650372E+02 -0.34749858694E+03  0.36904610772E+03  0.85341016516E+02 0.  0.
         23    2    1    2    0    0 -0.26428091639E+02  0.67128499137E+02 -0.12984346431E+02  0.11599558682E+03  0.89898295229E+02 0.  0.
        -13    1    3    3    0    0 -0.36065699875E+01 -0.53920912714E+02 -0.28015652083E+03  0.28532113195E+03  0.00000000000E+00 0.  1.
         13    1    3    3    0    0  0.40887369307E+02 -0.28339737658E+02 -0.67342066115E+02  0.83724975771E+02  0.00000000000E+00 0. -1.
        -13    1    4    4    0    0  0.29354997823E+02  0.23571890198E+02 -0.23595380756E+02  0.44430753963E+02  0.00000000000E+00 0.  1.
         13    1    4    4    0    0 -0.55783089462E+02  0.43556608940E+02  0.10611034325E+02  0.71564832856E+02  0.00000000000E+00 0. -1.
         21    1    1    2  502  501 -0.18675001591E+02 -0.77406804176E+01 -0.10299418146E+03  0.10495939802E+03  0.00000000000E+00 0. -1.
         21    1    1    2  503  502  0.78222939108E+01  0.22872831652E+02 -0.25640582163E+02  0.35239099924E+02  0.00000000000E+00 0.  1.
<scales pt_clust_5="13000.00000" pt_clust_6="13000.00000" pt_clust_7="13000.00000" pt_clust_8="13000.00000" pt_clust_9="20.21568" pt_clust_10="23.29788"></scales>
<clustering>
<clus scale="   20.216">  2  9  1 -1</clus>
<clus scale="   23.298">  2 10  1 -1</clus>
<clus scale="   85.341">  5  6 -1 -1</clus>
<clus scale="   89.898">  7  8 -1 -1</clus>
<clus scale="  113.548">  2  5  1 -1</clus>
<clus scale="  117.012">  1  5  2 -1</clus>
</clustering>
</event>
<event>
10    2  0.1133532E-006  0.1165852E+03  0.7546771E-02  0.1249530E+00
         -2   -1    0    0    0  501 -0.00000000000E+00  0.00000000000E+00  0.75665513681E+02  0.75665513681E+02  0.00000000000E+00 0.  1.
          2   -1    0    0  503    0  0.00000000000E+00 -0.00000000000E+00 -0.45388475010E+03  0.45388475010E+03  0.00000000000E+00 0. -1.
         23    2    1    2    0    0 -0.27987152725E+02 -0.66825850907E+02 -0.10853548782E+03  0.15968755120E+03  0.92039050544E+02 0.  0.
         23    2    1    2    0    0  0.55293692676E+02  0.36402129339E+02 -0.19834041696E+03  0.22764413053E+03  0.90002342704E+02 0.  0.
        -11    1    4    4    0    0 -0.17962465825E+02  0.31248212980E+02 -0.45244501296E+02  0.57846053371E+02  0.00000000000E+00 0.  1.
         11    1    4    4    0    0  0.73256158502E+02  0.51539163582E+01 -0.15309591567E+03  0.16979807716E+03  0.00000000000E+00 0. -1.
        -13    1    3    3    0    0 -0.32095856062E+02 -0.44139693834E+02 -0.63615662734E+01  0.54944754742E+02  0.00000000000E+00 0.  1.
         13    1    3    3    0    0  0.41087033374E+01 -0.22686157073E+02 -0.10217392155E+03  0.10474279646E+03  0.00000000000E+00 0. -1.
         21    1    1    2  502  501 -0.33979886607E+02 -0.13986939419E+02  0.18971417649E+02  0.41354345065E+02  0.00000000000E+00 0.  1.
         21    1    1    2  503  502  0.66733466560E+01  0.44410660988E+02 -0.90314749290E+02  0.10086423699E+03  0.00000000000E+00 0.  1.
<scales pt_clust_5="13000.00000" pt_clust_6="13000.00000" pt_clust_7="13000.00000" pt_clust_8="13000.00000" pt_clust_9="36.74598" pt_clust_10="42.87655"></scales>
<clustering>
<clus scale="   36.746">  1  9  2 -1</clus>
<clus scale="   42.877">  2 10  1 -1</clus>
<clus scale="   90.002">  5  6 -1 -1</clus>
<clus scale="   92.039">  7  8 -1 -1</clus>
<clus scale="  114.984">  2  5  1 -1</clus>
<clus scale="   42.877">  2  5  1 -1</clus>
</clustering>
</event>
<event>
10    2  0.1133532E-006  0.1768207E+03  0.7546771E-02  0.1172326E+00
          1   -1    0    0  503    0  0.00000000000E+00  0.00000000000E+00  0.16124882646E+04  0.16124882646E+04  0.00000000000E+00 0. -1.
         -1   -1    0    0    0  501 -0.00000000000E+00 -0.00000000000E+00 -0.70192066048E+02  0.70192066048E+02  0.00000000000E+00 0.  1.
         23    2    1    2    0    0  0.57436042845E+02  0.10205242815E+03  0.37788554049E+03  0.40387823659E+03  0.81280693738E+02 0.  0.
         23    2    1    2    0    0 -0.53877853940E+02 -0.18640994759E+03  0.49963844153E+03  0.54391606615E+03  0.92491205314E+02 0.  0.
        -13    1    3    3    0    0  0.34187873906E+02  0.10415544359E+02  0.19237790475E+03  0.19566949819E+03  0.00000000000E+00 0. -1.
         13    1    3    3    0    0  0.23248168939E+02  0.91636883789E+02  0.18550763574E+03  0.20820873840E+03  0.00000000000E+00 0.  1.
        -13    1    4    4    0    0  0.21635138789E+02 -0.87291159526E+02  0.19288240362E+03  0.21281787375E+03  0.00000000000E+00 0. -1.
         13    1    4    4    0    0 -0.75512992729E+02 -0.99118788062E+02  0.30675603791E+03  0.33109819240E+03  0.00000000000E+00 0.  1.
         21    1    1    2  502  501  0.42935973872E+02  0.12042958973E+02 -0.16993473741E+02  0.47721157393E+02  0.00000000000E+00 0.  1.
         21    1    1    2  503  502 -0.46494162777E+02  0.72314560466E+02  0.68176569031E+03  0.68716487054E+03  0.00000000000E+00 0. -1.
<scales pt_clust_5="13000.00000" pt_clust_6="13000.00000" pt_clust_7="13000.00000" pt_clust_8="13000.00000" pt_clust_9="44.59294" pt_clust_10="85.09188"></scales>
<clustering>
<clus scale="   44.593">  2  9  1 -1</clus>
<clus scale="   81.281">  5  6 -1 -1</clus>
<clus scale="   85.092">  1 10  2 -1</clus>
<clus scale="   92.491">  7  8 -1 -1</clus>
<clus scale="  171.224">  2  5  1 -1</clus>
<clus scale="   85.092">  1  5  2 -1</clus>
</clustering>
</event>
<event>
10    2  0.1133532E-006  0.9389381E+02  0.7546771E-02  0.1294425E+00
         -2   -1    0    0    0  501 -0.00000000000E+00  0.00000000000E+00  0.71803460852E+02  0.71803460852E+02  0.00000000000E+00 0.  1.
          2   -1    0    0  503    0  0.00000000000E+00 -0.00000000000E+00 -0.45574598438E+03  0.45574598438E+03  0.00000000000E+00 0. -1.
         23    2    1    2    0    0 -0.65151579886E+01 -0.95818471590E+01  0.45405902237E+01  0.92184123196E+02  0.91340224059E+02 0.  0.
         23    2    1    2    0    0 -0.43327451345E+02  0.54726089882E+02 -0.29106472459E+03  0.31332543485E+03  0.92638767624E+02 0.  0.
        -11    1    3    3    0    0  0.37972991102E+02 -0.11818337831E+02  0.20656370404E+02  0.44814136169E+02  0.00000000000E+00 0.  1.
         11    1    3    3    0    0 -0.44488149091E+02  0.22364906722E+01 -0.16115780181E+02  0.47369987026E+02  0.00000000000E+00 0. -1.
        -13    1    4    4    0    0 -0.25772031571E+02 -0.23962168921E+02 -0.80621919658E+02  0.87967477399E+02  0.00000000000E+00 0. -1.
         13    1    4    4    0    0 -0.17555419774E+02  0.78688258802E+02 -0.21044280494E+03  0.22535795745E+03  0.00000000000E+00 0.  1.
         21    1    1    2  502  501  0.25491981535E+02 -0.63593394086E+01 -0.24442547650E+02  0.35884822083E+02  0.00000000000E+00 0. -1.
         21    1    1    2  503  502  0.24350627798E+02 -0.38784903314E+02 -0.72975841509E+02  0.86155065105E+02  0.00000000000E+00 0. -1.
<scales pt_clust_5="13000.00000" pt_clust_6="13000.00000" pt_clust_7="13000.00000" pt_clust_8="13000.00000" pt_clust_9="22.48324" pt_clust_10="73.50777"></scales>
<clustering>
<clus scale="   22.483">  9 10 -1 -1</clus>
<clus scale="   73.508">  2  9  1 -1</clus>
<clus scale="   91.340">  5  6 -1 -1</clus>
<clus scale="   92.613">  1  5  2 -1</clus>
<clus scale="   92.639">  7  8 -1 -1</clus>
<clus scale="   73.508">  2  5  1 -1</clus>
</clustering>
</event>
<event>
10    2  0.1133532E-006  0.1041464E+03  0.7546771E-02  0.1274582E+00
          1   -1    0    0  503    0  0.00000000000E+00  0.00000000000E+00  0.27088203295E+03  0.27088203295E+03  0.00000000000E+00 0. -1.
         -1   -1    0    0    0  501 -0.00000000000E+00 -0.00000000000E+00 -0.32100406040E+03  0.32100406040E+03  0.00000000000E+00 0.  1.
         23    2    1    2    0    0 -0.30780526396E+02  0.28592558572E+02 -0.56763981604E+02  0.11039322761E+03  0.84850102442E+02 0.  0.
         23    2    1    2    0    0  0.57671106242E+02 -0.44962898342E+02  0.11427095440E+03  0.16340791980E+03  0.91086104933E+02 0.  0.
        -13    1    3    3    0    0 -0.29598713978E+02  0.56821273684E+02 -0.50186054111E+02  0.81384157177E+02  0.00000000000E+00 0.  1.
         13    1    3    3    0    0 -0.11818124178E+01 -0.28228715112E+02 -0.65779274928E+01  0.29009070436E+02  0.00000000000E+00 0. -1.
        -13    1    4    4    0    0  0.52317451686E+02  0.12319934876E+02  0.30548165766E+02  0.61823029511E+02  0.00000000000E+00 0.  1.
         13    1    4    4    0    0  0.53536545555E+01 -0.57282833218E+02  0.83722788635E+02  0.10158489029E+03  0.00000000000E+00 0. -1.
         21    1    1    2  502  501  0.45914993642E+02  0.33406200716E+02 -0.19499299284E+03  0.20309216663E+03  0.00000000000E+00 0.  1.
         21    1    1    2  503  502 -0.72805573488E+02 -0.17035860946E+02  0.87363992605E+02  0.11499277931E+03  0.00000000000E+00 0. -1.
<scales pt_clust_5="13000.00000" pt_clust_6="13000.00000" pt_clust_7="13000.00000" pt_clust_8="13000.00000" pt_clust_9="56.78170" pt_clust_10="68.89144"></scales>
<clustering>
<clus scale="   56.782">  2  9  1 -1</clus>
<clus scale="   68.891">  1 10  2 -1</clus>
<clus scale="   84.850">  5  6 -1 -1</clus>
<clus scale="   91.086">  7  8 -1 -1</clus>
<clus scale="   98.739">  2  5  1 -1</clus>
<clus scale="   68.891">  1  5  2 -1</clus>
</clustering>
</event>
<event>
10    2  0.1133532E-006  0.1107328E+03  0.7546771E-02  0.1260547E+00
          2   -1    0    0  503    0  0.00000000000E+00  0.00000000000E+00  0.15632049066E+03  0.15632049066E+03  0.00000000000E+00 0. -1.
         -2   -1    0    0    0  501 -0.00000000000E+00 -0.00000000000E+00 -0.34183980827E+03  0.34183980827E+03  0.00000000000E+00 0.  1.
         23    2    1    2    0    0 -0.73403671333E+01  0.38871753109E+02 -0.19158187052E+03  0.21635697352E+03  0.92422035783E+02 0.  0.
         23    2    1    2    0    0  0.11396644044E+02 -0.85137006721E+02 -0.23750226394E+02  0.12593741321E+03  0.88982949965E+02 0.  0.
        -13    1    4    4    0    0  0.31900452879E+02 -0.15016125389E+02  0.20244092195E+02  0.40656440872E+02  0.00000000000E+00 0. -1.
         13    1    4    4    0    0 -0.20503808835E+02 -0.70120881333E+02 -0.43994318589E+02  0.85280972343E+02  0.00000000000E+00 0.  1.
        -13    1    3    3    0    0  0.42390939019E+02  0.12885552502E+02 -0.79423426078E+02  0.90945641920E+02  0.00000000000E+00 0. -1.
         13    1    3    3    0    0 -0.49731306152E+02  0.25986200606E+02 -0.11215844445E+03  0.12541133160E+03  0.00000000000E+00 0.  1.
         21    1    1    2  502  501 -0.43862358681E+02  0.48562638189E+01 -0.44013304791E+02  0.62327047147E+02  0.00000000000E+00 0.  1.
         21    1    1    2  503  502  0.39806081771E+02  0.41408989794E+02  0.73826084096E+02  0.93538865049E+02  0.00000000000E+00 0. -1.
<scales pt_clust_5="13000.00000" pt_clust_6="13000.00000" pt_clust_7="13000.00000" pt_clust_8="13000.00000" pt_clust_9="44.13037" pt_clust_10="56.53318"></scales>
<clustering>
<clus scale="   44.130">  2  9  1 -1</clus>
<clus scale="   56.533">  1 10  2 -1</clus>
<clus scale="   88.983">  5  6 -1 -1</clus>
<clus scale="   92.422">  7  8 -1 -1</clus>
<clus scale="  107.879">  1  5  2 -1</clus>
<clus scale="   56.533">  1  5  2 -1</clus>
</clustering>
</event>
<event>
10    2  0.1133532E-006  0.1245874E+03  0.7546771E-02  0.1236191E+00
         -1   -1    0    0    0  501 -0.00000000000E+00  0.00000000000E+00  0.30991821017E+02  0.30991821017E+02  0.00000000000E+00 0.  1.
          1   -1    0    0  503    0  0.00000000000E+00 -0.00000000000E+00 -0.11273042301E+04  0.11273042301E+04  0.00000000000E+00 0. -1.
         23    2    1    2    0    0  0.80663853315E+02  0.23280100423E+02 -0.32762969539E+03  0.35131994700E+03  0.95057180433E+02 0.  0.
         23    2    1    2    0    0 -0.66673876317E+02 -0.67025313945E+02 -0.48436725593E+03  0.50287589385E+03  0.96616393570E+02 0.  0.
        -11    1    3    3    0    0  0.63413582827E+02 -0.14401277386E+02 -0.95611908157E+02  0.11563008371E+03  0.00000000000E+00 0.  1.
         11    1    3    3    0    0  0.17250270488E+02  0.37681377809E+02 -0.23201778724E+03  0.23568986330E+03  0.00000000000E+00 0. -1.
        -11    1    4    4    0    0  0.22066682761E+02 -0.33761194548E+02 -0.15224989527E+03  0.15750170588E+03  0.00000000000E+00 0. -1.
         11    1    4    4    0    0 -0.88740559078E+02 -0.33264119397E+02 -0.33211736066E+03  0.34537418797E+03  0.00000000000E+00 0.  1.
         21    1    1    2  502  501 -0.50915523869E+02  0.12086021481E+02 -0.93138244561E+02  0.10683255630E+03  0.00000000000E+00 0.  1.
         21    1    1    2  503  502  0.36925546871E+02  0.31659192042E+02 -0.19117721321E+03  0.19726765397E+03  0.00000000000E+00 0. -1.
<scales pt_clust_5="13000.00000" pt_clust_6="13000.00000" pt_clust_7="13000.00000" pt_clust_8="13000.00000" pt_clust_9="49.44397" pt_clust_10="48.63949"></scales>
<clustering>
<clus scale="   48.639">  2 10  1 -1</clus>
<clus scale="   49.444">  1  9  2 -1</clus>
<clus scale="   95.057">  5  6 -1 -1</clus>
<clus scale="   96.616">  7  8 -1 -1</clus>
<clus scale="  123.382">  1  5  2 -1</clus>
<clus scale="   48.639">  2  5  1 -1</clus>
</clustering>
</event>
<event>
10    2  0.1133532E-006  0.9432363E+02  0.7546771E-02  0.1292966E+00
         -1   -1    0    0    0  501 -0.00000000000E+00  0.00000000000E+00  0.35745095401E+03  0.35745095401E+03  0.00000000000E+00 0.  1.
          1   -1    0    0  503    0  0.00000000000E+00 -0.00000000000E+00 -0.73918237069E+02  0.73918237069E+02  0.00000000000E+00 0. -1.
         23    2    1    2    0    0  0.31000037533E+02 -0.78667168591E+01  0.70642485305E+02  0.12014008249E+03  0.91762689199E+02 0.  0.
         23    2    1    2    0    0  0.32903434184E+02  0.30599253626E+02  0.48893015723E+02  0.11364672226E+03  0.92228521570E+02 0.  0.
        -11    1    4    4    0    0  0.56875300366E+02 -0.44984073672E+01  0.14228604814E+02  0.58800413736E+02  0.00000000000E+00 0.  1.
         11    1    4    4    0    0 -0.23971866181E+02  0.35097660994E+02  0.34664410909E+02  0.54846308528E+02  0.00000000000E+00 0. -1.
        -13    1    3    3    0    0  0.19866159697E+02 -0.47375448616E+02  0.57349112461E+02  0.76993623974E+02  0.00000000000E+00 0.  1.
         13    1    3    3    0    0  0.11133877837E+02  0.39508731757E+02  0.13293372845E+02  0.43146458514E+02  0.00000000000E+00 0. -1.
         21    1    1    2  502  501 -0.26721135600E+02 -0.20822163070E+02  0.15582486377E+03  0.15946463474E+03  0.00000000000E+00 0.  1.
         21    1    1    2  503  502 -0.37182336118E+02 -0.19103736978E+01  0.81723521434E+01  0.38117751592E+02  0.00000000000E+00 0.  1.
<scales pt_clust_5="13000.00000" pt_clust_6="13000.00000" pt_clust_7="13000.00000" pt_clust_8="13000.00000" pt_clust_9="33.87597" pt_clust_10="40.50891"></scales>
<clustering>
<clus scale="   33.876">  1  9  2 -1</clus>
<clus scale="   40.509">  2 10  1 -1</clus>
<clus scale="   91.763">  7  8 -1 -1</clus>
<clus scale="   92.229">  5  6 -1 -1</clus>
<clus scale="   93.868">  1  7  2 -1</clus>
<clus scale="   40.509">  2  5  1 -1</clus>
</clustering>
</event>
<event>
10    2  0.1133532E-006  0.1066928E+03  0.7546771E-02  0.1266953E+00
          2   -1    0    0  503    0  0.00000000000E+00  0.00000000000E+00  0.27899407568E+03  0.27899407568E+03  0.00000000000E+00 0. -1.
         -2   -1    0    0    0  501 -0.00000000000E+00 -0.00000000000E+00 -0.27632780516E+03  0.27632780516E+03  0.00000000000E+00 0.  1.
         23    2    1    2    0    0 -0.76645734706E+01 -0.31349328977E+02 -0.17869591775E+03  0.20382008923E+03  0.92568199936E+02 0.  0.
         23    2    1    2    0    0  0.24740553714E+02  0.28670283354E+02  0.11051310607E+03  0.14885263734E+03  0.92249015622E+02 0.  0.
        -11    1    4    4    0    0 -0.23960459227E+02  0.35730966911E+02  0.23842670812E+02  0.49186162223E+02  0.00000000000E+00 0.  1.
         11    1    4    4    0    0  0.48701012941E+02 -0.70606835573E+01  0.86670435259E+02  0.99666475114E+02  0.00000000000E+00 0. -1.
        -13    1    3    3    0    0 -0.32830783282E+02 -0.41255527809E+02 -0.16556084106E+03  0.17375347766E+03  0.00000000000E+00 0.  1.
         13    1    3    3    0    0  0.25166209812E+02  0.99061988320E+01 -0.13135076684E+02  0.30066611566E+02  0.00000000000E+00 0. -1.
         21    1    1    2  502  501 -0.49461482601E+01 -0.26094467420E+02 -0.61328943781E+02  0.66832813481E+02  0.00000000000E+00 0. -1.
         21    1    1    2  503  502 -0.12129831984E+02  0.28773513043E+02  0.13217802598E+03  0.13581634080E+03  0.00000000000E+00 0. -1.
<scales pt_clust_5="13000.00000" pt_clust_6="13000.00000" pt_clust_7="13000.00000" pt_clust_8="13000.00000" pt_clust_9="26.55910" pt_clust_10="31.03639"></scales>
<clustering>
<clus scale="   26.559">  2  9  1 -1</clus>
<clus scale="   31.036">  1 10  2 -1</clus>
<clus scale="   92.249">  5  6 -1 -1</clus>
<clus scale="   92.568">  7  8 -1 -1</clus>
<clus scale="  106.416">  1  5  2 -1</clus>
<clus scale="   31.036">  1  5  2 -1</clus>
</clustering>
</event>
<event>
10    2  0.1133532E-006  0.1524241E+03  0.7546771E-02  0.1199545E+00
          1   -1    0    0  503    0  0.00000000000E+00  0.00000000000E+00  0.16316719086E+03  0.16316719086E+03  0.00000000000E+00 0. -1.
         -1   -1    0    0    0  501 -0.00000000000E+00 -0.00000000000E+00 -0.42749482094E+03  0.42749482094E+03  0.00000000000E+00 0.  1.
         23    2    1    2    0    0  0.80330812552E+02 -0.36570926454E+02 -0.90833181926E+02  0.15129080320E+03  0.82751242208E+02 0.  0.
         23    2    1    2    0    0 -0.15226478416E+03  0.76762967117E+02 -0.77750727597E+02  0.20958515177E+03  0.93827728230E+02 0.  0.
        -11    1    3    3    0    0  0.34387450633E+02 -0.51947122341E+02 -0.19914620770E+02  0.65403305734E+02  0.00000000000E+00 0. -1.
         11    1    3    3    0    0  0.45943361918E+02  0.15376195888E+02 -0.70918561156E+02  0.85887497465E+02  0.00000000000E+00 0.  1.
        -11    1    4    4    0    0 -0.10396724418E+03  0.31331062160E+02 -0.15806279582E+01  0.10859706121E+03  0.00000000000E+00 0. -1.
         11    1    4    4    0    0 -0.48297539979E+02  0.45431904957E+02 -0.76170099638E+02  0.10098809056E+03  0.00000000000E+00 0.  1.
         21    1    1    2  502  501  0.30160712567E+02  0.15901810910E+02 -0.14193300175E+03  0.14597093259E+03  0.00000000000E+00 0.  1.
         21    1    1    2  503  502  0.41773259042E+02 -0.56093851573E+02  0.46189281194E+02  0.83815124247E+02  0.00000000000E+00 0. -1.
<scales pt_clust_5="13000.00000" pt_clust_6="13000.00000" pt_clust_7="13000.00000" pt_clust_8="13000.00000" pt_clust_9="34.09598" pt_clust_10="70.32400"></scales>
<clustering>
<clus scale="   34.096">  2  9  1 -1</clus>
<clus scale="   70.324">  1 10  2 -1</clus>
<clus scale="   82.751">  5  6 -1 -1</clus>
<clus scale="   93.828">  7  8 -1 -1</clus>
<clus scale="  145.867">  2  5  1 -1</clus>
<clus scale="   70.324">  1  5  2 -1</clus>
</clustering>
</event>
<event>
10    2  0.1133532E-006  0.1006550E+03  0.7546771E-02  0.1282757E+00
         -1   -1    0    0    0  501 -0.00000000000E+00  0.00000000000E+00  0.15813588656E+03  0.15813588656E+03  0.00000000000E+00 0.  1.
          1   -1    0    0  503    0  0.00000000000E+00 -0.00000000000E+00 -0.36365735319E+03  0.36365735319E+03  0.00000000000E+00 0. -1.
         23    2    1    2    0    0 -0.25571185302E+02 -0.15743420320E+02  0.83807135476E+02  0.13080208772E+03  0.95832193939E+02 0.  0.
         23    2    1    2    0    0 -0.49927245338E+02  0.51579385665E+02 -0.26520531527E+03  0.28861298491E+03  0.88376653940E+02 0.  0.
        -11    1    4    4    0    0 -0.10502490688E+02  0.25265751813E+02 -0.10138874233E+02  0.29179741192E+02  0.00000000000E+00 0.  1.
         11    1    4    4    0    0 -0.39424754650E+02  0.26313633852E+02 -0.25506644103E+03  0.25943324372E+03  0.00000000000E+00 0. -1.
        -13    1    3    3    0    0 -0.55131960263E+02  0.12053769411E+02  0.64993397277E+02  0.86075362846E+02  0.00000000000E+00 0.  1.
         13    1    3    3    0    0  0.29560774961E+02 -0.27797189731E+02  0.18813738199E+02  0.44726724878E+02  0.00000000000E+00 0. -1.
         21    1    1    2  502  501  0.40292593605E+02 -0.10804195237E+02  0.14767795081E+02  0.44252813534E+02  0.00000000000E+00 0. -1.
         21    1    1    2  503  502  0.35205837035E+02 -0.25031770108E+02 -0.38891081915E+02  0.58125353578E+02  0.00000000000E+00 0.  1.
<scales pt_clust_5="13000.00000" pt_clust_6="13000.00000" pt_clust_7="13000.00000" pt_clust_8="13000.00000" pt_clust_9="41.71599" pt_clust_10="46.13387"></scales>
<clustering>
<clus scale="   41.716">  1  9  2 -1</clus>
<clus scale="   46.134">  2 10  1 -1</clus>
<clus scale="   88.377">  5  6 -1 -1</clus>
<clus scale="   93.584">  2  5  1 -1</clus>
<clus scale="   95.832">  7  8 -1 -1</clus>
<clus scale="   46.134">  2  5  1 -1</clus>
</clustering>
</event>
<event>
10    2  0.1133532E-006  0.1661331E+03  0.7546771E-02  0.1197279E+00
          2   -1    0    0  503    0  0.00000000000E+00  0.00000000000E+00  0.33813470150E+03  0.33813470150E+03  0.00000000000E+00 0. -1.
         -2   -1    0    0    0  501 -0.00000000000E+00 -0.00000000000E+00 -0.34969859643E+03  0.34969859643E+03  0.00000000000E+00 0.  1.
         23    2    1    2    0    0  0.13458974642E+03 -0.39300792600E+02 -0.16357781238E+03  0.23474803078E+03  0.93220089625E+02 0.  0.
         23    2    1    2    0    0  0.17318794359E+01 -0.69019767795E+02  0.18767573544E+03  0.22070486499E+03  0.93390192210E+02 0.  0.
        -11    1    3    3    0    0  0.10757344037E+03 -0.60903191824E+02 -0.15651251161E+03  0.19944274902E+03  0.00000000000E+00 0.  1.
         11    1    3    3    0    0  0.27016306056E+02  0.21602399223E+02 -0.70653007747E+01  0.35305281760E+02  0.00000000000E+00 0. -1.
        -13    1    4    4    0    0 -0.14982556675E+02 -0.83802071302E+02  0.17603110714E+03  0.19553571244E+03  0.00000000000E+00 0.  1.
         13    1    4    4    0    0  0.16714436111E+02  0.14782303507E+02  0.11644628306E+02  0.25169152546E+02  0.00000000000E+00 0. -1.
         21    1    1    2  502  501 -0.98727826607E+02  0.10700122806E+03 -0.86340552725E+02  0.16926646921E+03  0.00000000000E+00 0. -1.
         21    1    1    2  503  502 -0.37593799253E+02  0.13193323336E+01  0.50678734729E+02  0.63113932961E+02  0.00000000000E+00 0. -1.
<scales pt_clust_5="13000.00000" pt_clust_6="13000.00000" pt_clust_7="13000.00000" pt_clust_8="13000.00000" pt_clust_9="137.51450" pt_clust_10="37.61694"></scales>
<clustering>
<clus scale="   37.617">  1 10  2 -1</clus>
<clus scale="   93.220">  5  6 -1 -1</clus>
<clus scale="   93.390">  7  8 -1 -1</clus>
<clus scale="  118.354">  1  7  2 -1</clus>
<clus scale="  137.514">  1  9  2 -1</clus>
<clus scale="   37.617">  1  5  2 -1</clus>
</clustering>
</event>
<event>
10    2  0.1133532E-006  0.1614417E+03  0.7546771E-02  0.1187583E+00
          1   -1    0    0  503    0  0.00000000000E+00  0.00000000000E+00  0.13912855433E+03  0.13912855433E+03  0.00000000000E+00 0. -1.
         -1   -1    0    0    0  501 -0.00000000000E+00 -0.00000000000E+00 -0.34170210718E+03  0.34170210718E+03  0.00000000000E+00 0.  1.
         23    2    1    2    0    0  0.14829482482E+03 -0.10000524351E+02 -0.57846139341E+02  0.18220080707E+03  0.88088550363E+02 0.  0.
         23    2    1    2    0    0 -0.11390212287E+03 -0.58303274991E+02 -0.61555810432E+02  0.16881540553E+03  0.91304752766E+02 0.  0.
        -11    1    4    4    0    0 -0.39342348680E+02 -0.34837005095E+02 -0.72863760524E+02  0.89836322951E+02  0.00000000000E+00 0.  1.
         11    1    4    4    0    0 -0.74559774186E+02 -0.23466269896E+02  0.11307950091E+02  0.78979082578E+02  0.00000000000E+00 0. -1.
        -13    1    3    3    0    0  0.24200515169E+02  0.18070871281E+02 -0.45175191551E+02  0.54341689842E+02  0.00000000000E+00 0. -1.
         13    1    3    3    0    0  0.12409430965E+03 -0.28071395632E+02 -0.12670947790E+02  0.12785911723E+03  0.00000000000E+00 0.  1.
         21    1    1    2  502  501 -0.27561211146E+02  0.47129312686E+02 -0.91089480429E+02  0.10619833294E+03  0.00000000000E+00 0.  1.
         21    1    1    2  503  502 -0.68314908086E+01  0.21174486655E+02  0.79178773462E+01  0.23616115969E+02  0.00000000000E+00 0. -1.
<scales pt_clust_5="13000.00000" pt_clust_6="13000.00000" pt_clust_7="13000.00000" pt_clust_8="13000.00000" pt_clust_9="55.92793" pt_clust_10="22.24923"></scales>
<clustering>
<clus scale="   22.249">  1 10  2 -1</clus>
<clus scale="   55.928">  2  9  1 -1</clus>
<clus scale="   88.089">  7  8 -1 -1</clus>
<clus scale="   91.305">  5  6 -1 -1</clus>
<clus scale="  159.645">  2  7  1 -1</clus>
<clus scale="   22.249">  1  5  2 -1</clus>
</clustering>
</event>
<event>
10    2  0.1133532E-006  0.1034404E+03  0.7546771E-02  0.1274307E+00
         -1   -1    0    0    0  501 -0.00000000000E+00  0.00000000000E+00  0.24073481189E+03  0.24073481189E+03  0.00000000000E+00 0.  1.
          1   -1    0    0  503    0  0.00000000000E+00 -0.00000000000E+00 -0.14059727844E+03  0.14059727844E+03  0.00000000000E+00 0. -1.
         23    2    1    2    0    0 -0.24635207953E+02 -0.63673491210E+02  0.52511991913E+01  0.11562630150E+03  0.93170057160E+02 0.  0.
         23    2    1    2    0    0  0.24502780990E+02  0.14289885185E+02 -0.68607691494E+01  0.95371555501E+02  0.90796896150E+02 0.  0.
        -13    1    4    4    0    0  0.37352373160E+02  0.35573362907E+02 -0.31442416875E+02  0.60409349510E+02  0.00000000000E+00 0. -1.
         13    1    4    4    0    0 -0.12849592170E+02 -0.21283477723E+02  0.24581647726E+02  0.34962205992E+02  0.00000000000E+00 0.  1.
        -13    1    3    3    0    0  0.19589329328E+02 -0.64355578849E+02 -0.11659552698E+02  0.68273915382E+02  0.00000000000E+00 0. -1.
         13    1    3    3    0    0 -0.44224537281E+02  0.68208763980E+00  0.16910751889E+02  0.47352386114E+02  0.00000000000E+00 0.  1.
         21    1    1    2  502  501 -0.73254266159E+01  0.30154426235E+02  0.13095328313E+03  0.13457976691E+03  0.00000000000E+00 0.  1.
         21    1    1    2  503  502  0.74578535789E+01  0.19229179790E+02 -0.29206179722E+02  0.35754466425E+02  0.00000000000E+00 0. -1.
<scales pt_clust_5="13000.00000" pt_clust_6="13000.00000" pt_clust_7="13000.00000" pt_clust_8="13000.00000" pt_clust_9="31.31593" pt_clust_10="20.62477"></scales>
<clustering>
<clus scale="   20.625">  2 10  1 -1</clus>
<clus scale="   31.316">  1  9  2 -1</clus>
<clus scale="   90.797">  5  6 -1 -1</clus>
<clus scale="   93.170">  7  8 -1 -1</clus>
<clus scale="  101.308">  2  5  1 -1</clus>
<clus scale="   20.625">  2  5  1 -1</clus>
</clustering>
</event>
<event>
10    2  0.1133532E-006  0.2268643E+03  0.7546771E-02  0.1129105E+00
          3   -1    0    0  502    0  0.00000000000E+00  0.00000000000E+00  0.84588822640E+03  0.84588822640E+03  0.00000000000E+00 0. -1.
         -3   -1    0    0    0  501 -0.00000000000E+00 -0.00000000000E+00 -0.86597875066E+02  0.86597875066E+02  0.00000000000E+00 0.  1.
         23    2    1    2    0    0  0.14586557596E+03 -0.15194289898E+03  0.20891638685E+03  0.30945852652E+03  0.88063114544E+02 0.  0.
         23    2    1    2    0    0 -0.14323358224E+03  0.14413008438E+03  0.35390642293E+03  0.41820358973E+03  0.91406487553E+02 0.  0.
        -11    1    3    3    0    0  0.10516336623E+03 -0.15237759029E+03  0.15234480313E+03  0.23976489038E+03  0.00000000000E+00 0.  1.
         11    1    3    3    0    0  0.40702209724E+02  0.43469131793E+00  0.56571583721E+02  0.69693636134E+02  0.00000000000E+00 0. -1.
        -13    1    4    4    0    0 -0.70258505189E+01  0.26119035080E+02  0.80683982017E+01  0.28225265607E+02  0.00000000000E+00 0.  1.
         13    1    4    4    0    0 -0.13620773172E+03  0.11801104930E+03  0.34583802472E+03  0.38997832412E+03  0.00000000000E+00 0. -1.
         21    1    1    2  502  503 -0.21727374570E+02 -0.71151311135E+01  0.36774719602E+02  0.43302238952E+02  0.00000000000E+00 0. -1.
         21    1    1    2  503  501  0.19095380854E+02  0.14927945711E+02  0.15969282196E+03  0.16152174627E+03  0.00000000000E+00 0. -1.
<scales pt_clust_5="13000.00000" pt_clust_6="13000.00000" pt_clust_7="13000.00000" pt_clust_8="13000.00000" pt_clust_9="22.86272" pt_clust_10="20.01311"></scales>
<clustering>
<clus scale="   22.863">  1  9  2 -1</clus>
<clus scale="   20.013">  1 10  2 -1</clus>
<clus scale="   88.063">  5  6 -1 -1</clus>
<clus scale="   91.406">  7  8 -1 -1</clus>
<clus scale="  225.538">  2  5  1 -1</clus>
<clus scale="   22.863">  1  5  2 -1</clus>
</clustering>
</event>
<event>
10    2  0.1133532E-006  0.1188157E+03  0.7546771E-02  0.1245758E+00
          1   -1    0    0  503    0  0.00000000000E+00  0.00000000000E+00  0.20043049288E+03  0.20043049288E+03  0.00000000000E+00 0. -1.
         -1   -1    0    0    0  501 -0.00000000000E+00 -0.00000000000E+00 -0.59965209697E+03  0.59965209697E+03  0.00000000000E+00 0.  1.
         23    2    1    2    0    0  0.39049039574E+02 -0.39594870524E+02 -0.42063106972E+03  0.43392345629E+03  0.90920227887E+02 0.  0.
         23    2    1    2    0    0  0.31595322823E+01  0.13455345973E+03  0.11947260186E+03  0.20259257576E+03  0.93034579520E+02 0.  0.
        -11    1    3    3    0    0  0.16889793258E+02  0.29258057212E+02 -0.15345261561E+03  0.15712735047E+03  0.00000000000E+00 0. -1.
         11    1    3    3    0    0  0.22159246316E+02 -0.68852927736E+02 -0.26717845411E+03  0.27679610582E+03  0.00000000000E+00 0.  1.
        -13    1    4    4    0    0  0.32618912023E+02  0.42124190153E+02  0.64816570774E+01  0.53669849041E+02  0.00000000000E+00 0.  1.
         13    1    4    4    0    0 -0.29459379740E+02  0.92429269577E+02  0.11299094478E+03  0.14892272671E+03  0.00000000000E+00 0. -1.
         21    1    1    2  502  501 -0.92552410090E+01 -0.28880591943E+02 -0.82782460703E+02  0.88162825937E+02  0.00000000000E+00 0.  1.
         21    1    1    2  503  502 -0.32953330847E+02 -0.66077997263E+02 -0.15280675521E+02  0.75403731874E+02  0.00000000000E+00 0.  1.
<scales pt_clust_5="13000.00000" pt_clust_6="13000.00000" pt_clust_7="13000.00000" pt_clust_8="13000.00000" pt_clust_9="30.32735" pt_clust_10="76.48360"></scales>
<clustering>
<clus scale="   30.327">  2  9  1 -1</clus>
<clus scale="   76.484">  1 10  2 -1</clus>
<clus scale="   90.920">  5  6 -1 -1</clus>
<clus scale="   93.035">  7  8 -1 -1</clus>
<clus scale="  117.168">  2  5  1 -1</clus>
<clus scale="   76.484">  1  5  2 -1</clus>
</clustering>
</event>
<event>
10    2  0.1133532E-006  0.1051883E+03  0.7546771E-02  0.1270391E+00
          3   -1    0    0  503    0  0.00000000000E+00  0.00000000000E+00  0.20245508515E+03  0.20245508515E+03  0.00000000000E+00 0. -1.
         -3   -1    0    0    0  501 -0.00000000000E+00 -0.00000000000E+00 -0.11178191574E+03  0.11178191574E+03  0.00000000000E+00 0.  1.
         23    2    1    2    0    0  0.14777245024E+02  0.50652129465E+02 -0.15946948885E+02  0.10769384946E+03  0.92518402727E+02 0.  0.
         23    2    1    2    0    0 -0.37642016719E+02 -0.46163079534E+02  0.74628200377E+02  0.13193115952E+03  0.91041261118E+02 0.  0.
        -11    1    3    3    0    0  0.77418134171E+01 -0.26643303652E+02  0.26818177369E+01  0.27874602255E+02  0.00000000000E+00 0.  1.
         11    1    3    3    0    0  0.70354316073E+01  0.77295433118E+02 -0.18628766622E+02  0.79819247206E+02  0.00000000000E+00 0. -1.
        -13    1    4    4    0    0  0.24475946964E+02 -0.80301844510E+01 -0.24151035862E+01  0.25872544664E+02  0.00000000000E+00 0.  1.
         13    1    4    4    0    0 -0.62117963683E+02 -0.38132895083E+02  0.77043303964E+02  0.10605861486E+03  0.00000000000E+00 0. -1.
         21    1    1    2  502  501  0.22791133388E+02 -0.27459055535E+02  0.57040457016E+00  0.35689786401E+02  0.00000000000E+00 0.  1.
         21    1    1    2  503  502  0.73638306431E-01  0.22970005603E+02  0.31421513352E+02  0.38922205504E+02  0.00000000000E+00 0.  1.
<scales pt_clust_5="13000.00000" pt_clust_6="13000.00000" pt_clust_7="13000.00000" pt_clust_8="13000.00000" pt_clust_9="33.81241" pt_clust_10="22.97012"></scales>
<clustering>
<clus scale="   22.970">  1 10  2 -1</clus>
<clus scale="   33.812">  2  9  1 -1</clus>
<clus scale="   91.041">  7  8 -1 -1</clus>
<clus scale="   92.518">  5  6 -1 -1</clus>
<clus scale="  103.891">  1  7  2 -1</clus>
<clus scale="   22.970">  1  5  2 -1</clus>
</clustering>
</event>
<event>
10    2  0.1133532E-006  0.2406031E+03  0.7546771E-02  0.1154290E+00
          1   -1    0    0  503    0  0.00000000000E+00  0.00000000000E+00  0.20343504690E+04  0.20343504690E+04  0.00000000000E+00 0. -1.
         -1   -1    0    0    0  501 -0.00000000000E+00 -0.00000000000E+00 -0.21964383901E+03  0.21964383901E+03  0.00000000000E+00 0.  1.
         23    2    1    2    0    0 -0.59126486187E+02 -0.91826228394E+01  0.84828249372E+02  0.13944632521E+03  0.93108451782E+02 0.  0.
         23    2    1    2    0    0 -0.11769384645E+03 -0.16179127404E+03  0.65026305134E+03  0.68633468683E+03  0.90471037090E+02 0.  0.
        -11    1    3    3    0    0 -0.10570884016E+02 -0.36293552492E+02 -0.25298680977E+00  0.37802507109E+02  0.00000000000E+00 0.  1.
         11    1    3    3    0    0 -0.48555602171E+02  0.27110929653E+02  0.85081236181E+02  0.10164381811E+03  0.00000000000E+00 0. -1.
        -11    1    4    4    0    0 -0.74604390582E+02 -0.53828865050E+02  0.18291375508E+03  0.20474570472E+03  0.00000000000E+00 0.  1.
         11    1    4    4    0    0 -0.43089455864E+02 -0.10796240899E+03  0.46734929627E+03  0.48158898210E+03  0.00000000000E+00 0. -1.
         21    1    1    2  502  501  0.40775813359E+02 -0.23369750642E+02 -0.15966147195E+03  0.16643496575E+03  0.00000000000E+00 0.  1.
         21    1    1    2  503  502  0.13604451927E+03  0.19434364752E+03  0.12392768012E+04  0.12617783302E+04  0.00000000000E+00 0. -1.
<scales pt_clust_5="13000.00000" pt_clust_6="13000.00000" pt_clust_7="13000.00000" pt_clust_8="13000.00000" pt_clust_9="46.99800" pt_clust_10="222.94585"></scales>
<clustering>
<clus scale="   46.998">  2  9  1 -1</clus>
<clus scale="   90.471">  7  8 -1 -1</clus>
<clus scale="   93.108">  5  6 -1 -1</clus>
<clus scale="  103.170">  2  5  1 -1</clus>
<clus scale="  222.946">  1 10  2 -1</clus>
<clus scale="  222.946">  1  5  2 -1</clus>
</clustering>
</event>
<event>
10    2  0.1133532E-006  0.9848357E+02  0.7546771E-02  0.1286047E+00
         -1   -1    0    0    0  501 -0.00000000000E+00  0.00000000000E+00  0.12862215553E+03  0.12862215553E+03  0.00000000000E+00 0.  1.
          1   -1    0    0  503    0  0.00000000000E+00 -0.00000000000E+00 -0.17463154885E+03  0.17463154885E+03  0.00000000000E+00 0. -1.
         23    2    1    2    0    0 -0.55867275067E+01 -0.18973714807E+02  0.61057360863E+02  0.11616666704E+03  0.96827061500E+02 0.  0.
         23    2    1    2    0    0 -0.18814846905E+02  0.14304211906E+02 -0.80115422010E+02  0.12437397740E+03  0.92150943938E+02 0.  0.
        -11    1    3    3    0    0 -0.12421007046E+02  0.19651890432E+02  0.71821947236E+02  0.75490862483E+02  0.00000000000E+00 0.  1.
         11    1    3    3    0    0  0.68342795396E+01 -0.38625605239E+02 -0.10764586373E+02  0.40675804561E+02  0.00000000000E+00 0. -1.
        -13    1    4    4    0    0  0.31601369143E+02  0.28529354062E+02 -0.32187641527E+02  0.53372416490E+02  0.00000000000E+00 0.  1.
         13    1    4    4    0    0 -0.50416216048E+02 -0.14225142157E+02 -0.47927780483E+02  0.71001560912E+02  0.00000000000E+00 0. -1.
         21    1    1    2  502  501  0.21326352034E+02 -0.21325855962E+02 -0.11256324496E+02  0.32191773246E+02  0.00000000000E+00 0. -1.
         21    1    1    2  503  502  0.30752223783E+01  0.25995358863E+02 -0.15695007682E+02  0.30521286690E+02  0.00000000000E+00 0. -1.
<scales pt_clust_5="13000.00000" pt_clust_6="13000.00000" pt_clust_7="13000.00000" pt_clust_8="13000.00000" pt_clust_9="27.99167" pt_clust_10="26.17662"></scales>
<clustering>
<clus scale="   26.177">  2 10  1 -1</clus>
<clus scale="   27.992">  2  9  1 -1</clus>
<clus scale="   92.151">  7  8 -1 -1</clus>
<clus scale="   93.890">  2  7  1 -1</clus>
<clus scale="   96.827">  5  6 -1 -1</clus>
<clus scale="   26.177">  2  5  1 -1</clus>
</clustering>
</event>
<event>
10    2  0.1133532E-006  0.1751448E+03  0.7546771E-02  0.1174103E+00
          1   -1    0    0  503    0  0.00000000000E+00  0.00000000000E+00  0.53065827943E+03  0.53065827943E+03  0.00000000000E+00 0. -1.
         -1   -1    0    0    0  501 -0.00000000000E+00 -0.00000000000E+00 -0.11565530520E+03  0.11565530520E+03  0.00000000000E+00 0.  1.
         23    2    1    2    0    0 -0.77108316437E+02 -0.13630448970E+03  0.74427931425E+02  0.20099310579E+03  0.10165680116E+03 0.  0.
         23    2    1    2    0    0  0.83350992870E+02  0.11741981807E+03  0.34373599948E+03  0.38363928066E+03  0.91048660838E+02 0.  0.
        -11    1    4    4    0    0  0.36989439515E+02  0.71408763129E+01  0.30944376793E+02  0.48752078984E+02  0.00000000000E+00 0.  1.
         11    1    4    4    0    0  0.46361553355E+02  0.11027894176E+03  0.31279162268E+03  0.33488720168E+03  0.00000000000E+00 0. -1.
        -13    1    3    3    0    0 -0.91155955468E+02 -0.79736818730E+02  0.75467563128E+02  0.14269800827E+03  0.00000000000E+00 0. -1.
         13    1    3    3    0    0  0.14047639031E+02 -0.56567670973E+02 -0.10396317029E+01  0.58295097527E+02  0.00000000000E+00 0.  1.
         21    1    1    2  502  501  0.13727472985E+02  0.17257417921E+02 -0.24123366839E+02  0.32683310963E+02  0.00000000000E+00 0.  1.
         21    1    1    2  503  502 -0.19970149418E+02  0.16272537071E+01  0.20962410168E+02  0.28997887207E+02  0.00000000000E+00 0.  1.
<scales pt_clust_5="13000.00000" pt_clust_6="13000.00000" pt_clust_7="13000.00000" pt_clust_8="13000.00000" pt_clust_9="21.95736" pt_clust_10="20.03634"></scales>
<clustering>
<clus scale="   20.036">  1 10  2 -1</clus>
<clus scale="   21.957">  2  9  1 -1</clus>
<clus scale="   91.049">  5  6 -1 -1</clus>
<clus scale="  101.657">  7  8 -1 -1</clus>
<clus scale="  169.208">  1  5  2 -1</clus>
<clus scale="   20.036">  1  5  2 -1</clus>
</clustering>
</event>
<event>
10    2  0.1399625E-006  0.9151130E+02  0.7546771E-02  0.1300739E+00
         -2   -1    0    0    0  501 -0.00000000000E+00  0.00000000000E+00  0.46241298880E+03  0.46241298880E+03  0.00000000000E+00 0.  1.
          2   -1    0    0  503    0  0.00000000000E+00 -0.00000000000E+00 -0.45310856183E+03  0.45310856183E+03  0.00000000000E+00 0. -1.
         23    2    1    2    0    0 -0.56728304194E+02 -0.18002105660E+01 -0.81610204554E+02  0.13488612797E+03  0.91174013719E+02 0.  0.
         23    2    1    2    0    0 -0.18879090095E+02  0.72678453744E+01 -0.33168965800E+03  0.34392937842E+03  0.88657467230E+02 0.  0.
        -11    1    3    3    0    0 -0.70963957130E+02  0.26129467715E+02 -0.52088242143E+02  0.91824927248E+02  0.00000000000E+00 0. -1.
         11    1    3    3    0    0  0.14235652936E+02 -0.27929678280E+02 -0.29521962411E+02  0.43061200726E+02  0.00000000000E+00 0.  1.
        -13    1    4    4    0    0 -0.14482144993E+02  0.46259488001E+02 -0.13694051484E+03  0.14526657344E+03  0.00000000000E+00 0. -1.
         13    1    4    4    0    0 -0.43969451020E+01 -0.38991642627E+02 -0.19474914316E+03  0.19866280498E+03  0.00000000000E+00 0.  1.
         21    1    1    2  502  501 -0.76638940298E+01  0.21208287544E+02  0.79697574658E+02  0.82826506256E+02  0.00000000000E+00 0.  1.
         21    1    1    2  503  502  0.83271288318E+02 -0.26675922353E+02  0.34290671487E+03  0.35387953798E+03  0.00000000000E+00 0.  1.
<scales pt_clust_5="13000.00000" pt_clust_6="13000.00000" pt_clust_7="13000.00000" pt_clust_8="13000.00000" pt_clust_9="22.55054" pt_clust_10="76.61372"></scales>
<clustering>
<clus scale="   22.551">  1  9  2 -1</clus>
<clus scale="   76.614">  1 10  2 -1</clus>
<clus scale="   88.657">  7  8 -1 -1</clus>
<clus scale="   89.004">  2  7  1 -1</clus>
<clus scale="   91.174">  5  6 -1 -1</clus>
<clus scale="   89.004">  2  5  1 -1</clus>
</clustering>
</event>
<event>
10    2  0.1133532E-006  0.1063703E+03  0.7546771E-02  0.1269068E+00
         -2   -1    0    0    0  501 -0.00000000000E+00  0.00000000000E+00  0.50732735028E+02  0.50732735028E+02  0.00000000000E+00 0.  1.
          2   -1    0    0  503    0  0.00000000000E+00 -0.00000000000E+00 -0.59248241547E+03  0.59248241547E+03  0.00000000000E+00 0. -1.
         23    2    1    2    0    0  0.37223123008E+00  0.24842608546E+02 -0.39523559056E+02  0.99213154287E+02  0.87543386430E+02 0.  0.
         23    2    1    2    0    0 -0.59729695050E+02 -0.24932027576E+02 -0.43654335585E+03  0.45068206336E+03  0.91405569977E+02 0.  0.
        -11    1    3    3    0    0 -0.30809031987E+02 -0.45896768594E+01 -0.46300102926E+02  0.55802877315E+02  0.00000000000E+00 0.  1.
         11    1    3    3    0    0  0.31181263218E+02  0.29432285405E+02  0.67765438695E+01  0.43410276972E+02  0.00000000000E+00 0. -1.
        -11    1    4    4    0    0  0.22202491020E+02  0.17013485479E+01 -0.51322212745E+02  0.55944746987E+02  0.00000000000E+00 0. -1.
         11    1    4    4    0    0 -0.81932186070E+02 -0.26633376124E+02 -0.38522114311E+03  0.39473731637E+03  0.00000000000E+00 0.  1.
         21    1    1    2  502  501  0.37078446530E+02 -0.12778249701E+02 -0.48540377320E+02  0.62404031063E+02  0.00000000000E+00 0. -1.
         21    1    1    2  503  502  0.22279017290E+02  0.12867668731E+02 -0.17142388217E+02  0.30915901795E+02  0.00000000000E+00 0. -1.
<scales pt_clust_5="13000.00000" pt_clust_6="13000.00000" pt_clust_7="13000.00000" pt_clust_8="13000.00000" pt_clust_9="66.29015" pt_clust_10="23.90471"></scales>
<clustering>
<clus scale="   23.905">  9 10 -1 -1</clus>
<clus scale="   66.290">  1  9  2 -1</clus>
<clus scale="   87.543">  5  6 -1 -1</clus>
<clus scale="   91.406">  7  8 -1 -1</clus>
<clus scale="  103.070">  1  5  2 -1</clus>
<clus scale="  106.370">  2  5  1 -1</clus>
</clustering>
</event>
<event>
10    2  0.1133532E-006  0.1691088E+03  0.7546771E-02  0.1178948E+00
         -1   -1    0    0    0  501 -0.00000000000E+00  0.00000000000E+00  0.11638812722E+03  0.11638812722E+03  0.00000000000E+00 0.  1.
          1   -1    0    0  503    0  0.00000000000E+00 -0.00000000000E+00 -0.51393614906E+03  0.51393614906E+03  0.00000000000E+00 0. -1.
         23    2    1    2    0    0  0.12135155474E+03 -0.27197538566E+02 -0.30235176952E+02  0.15677198198E+03  0.90539397317E+02 0.  0.
         23    2    1    2    0    0 -0.18070007422E+03  0.20613808157E+01 -0.25626556986E+03  0.32605394995E+03  0.89344109296E+02 0.  0.
        -11    1    3    3    0    0  0.39346348882E+02 -0.11778503549E+02  0.32501848590E+02  0.52375934149E+02  0.00000000000E+00 0.  1.
         11    1    3    3    0    0  0.82005205856E+02 -0.15419035017E+02 -0.62737025542E+02  0.10439604783E+03  0.00000000000E+00 0. -1.
        -13    1    4    4    0    0 -0.92696414175E+02  0.33918993624E+02 -0.18014247981E+03  0.20541284371E+03  0.00000000000E+00 0.  1.
         13    1    4    4    0    0 -0.88003660045E+02 -0.31857612808E+02 -0.76123090056E+02  0.12064110624E+03  0.00000000000E+00 0. -1.
         21    1    1    2  502  501  0.12867914099E+02  0.17199014144E+02  0.51579774135E+01  0.22090586949E+02  0.00000000000E+00 0.  1.
         21    1    1    2  503  502  0.46480605382E+02  0.79371436062E+01 -0.11620525244E+03  0.12540775741E+03  0.00000000000E+00 0. -1.
<scales pt_clust_5="13000.00000" pt_clust_6="13000.00000" pt_clust_7="13000.00000" pt_clust_8="13000.00000" pt_clust_9="21.47997" pt_clust_10="47.85557"></scales>
<clustering>
<clus scale="   21.480">  1  9  2 -1</clus>
<clus scale="   47.856">  2 10  1 -1</clus>
<clus scale="   89.344">  7  8 -1 -1</clus>
<clus scale="   90.539">  5  6 -1 -1</clus>
<clus scale="  168.472">  2  7  1 -1</clus>
<clus scale="   47.856">  2  5  1 -1</clus>
</clustering>
</event>
<event>
10    2  0.1133532E-006  0.2222468E+03  0.7546771E-02  0.1134269E+00
          2   -1    0    0  503    0  0.00000000000E+00  0.00000000000E+00  0.10875884468E+04  0.10875884468E+04  0.00000000000E+00 0. -1.
         -2   -1    0    0    0  501 -0.00000000000E+00 -0.00000000000E+00 -0.20235606341E+03  0.20235606341E+03  0.00000000000E+00 0.  1.
         23    2    1    2    0    0  0.10351228583E+03  0.94865310064E+02  0.41554329373E+02  0.17384253009E+03  0.93702948768E+02 0.  0.
         23    2    1    2    0    0 -0.28294756574E+03 -0.11049529583E+03  0.18544542776E+03  0.37435802584E+03  0.11612660967E+03 0.  0.
        -11    1    4    4    0    0 -0.93190456131E+02 -0.95621046418E+02  0.59886891349E+02  0.14633620669E+03  0.00000000000E+00 0.  1.
         11    1    4    4    0    0 -0.18975710961E+03 -0.14874249411E+02  0.12555853642E+03  0.22802181915E+03  0.00000000000E+00 0. -1.
        -11    1    3    3    0    0  0.10594142663E+03  0.56224457347E+02  0.56196322131E+02  0.13244924349E+03  0.00000000000E+00 0. -1.
         11    1    3    3    0    0 -0.24291408003E+01  0.38640852717E+02 -0.14641992758E+02  0.41393286601E+02  0.00000000000E+00 0.  1.
         21    1    1    2  502  501  0.10656265447E+02  0.19338548979E+02 -0.27653509977E+02  0.35387174004E+02  0.00000000000E+00 0.  1.
         21    1    1    2  503  502  0.16877901447E+03 -0.37085632143E+01  0.68588613625E+03  0.70635678030E+03  0.00000000000E+00 0. -1.
<scales pt_clust_5="13000.00000" pt_clust_6="13000.00000" pt_clust_7="13000.00000" pt_clust_8="13000.00000" pt_clust_9="22.08021" pt_clust_10="169.43665"></scales>
<clustering>
<clus scale="   22.080">  2  9  1 -1</clus>
<clus scale="   93.703">  7  8 -1 -1</clus>
<clus scale="  116.127">  5  6 -1 -1</clus>
<clus scale="  169.437">  1 10  2 -1</clus>
<clus scale="  211.396">  2  7  1 -1</clus>
<clus scale="  169.437">  1  5  2 -1</clus>
</clustering>
</event>
<event>
10    2  0.1133532E-006  0.9419999E+02  0.7546771E-02  0.1294375E+00
          1   -1    0    0  503    0  0.00000000000E+00  0.00000000000E+00  0.18512014594E+03  0.18512014594E+03  0.00000000000E+00 0. -1.
         -1   -1    0    0    0  501 -0.00000000000E+00 -0.00000000000E+00 -0.15667606382E+03  0.15667606382E+03  0.00000000000E+00 0.  1.
         23    2    1    2    0    0  0.18024922073E+02 -0.21070744691E+02 -0.82771902026E+02  0.12664285756E+03  0.91751574959E+02 0.  0.
         23    2    1    2    0    0  0.21184737913E+02  0.12527532585E+02  0.49419806918E+02  0.10497504466E+03  0.89284435887E+02 0.  0.
        -11    1    4    4    0    0  0.51727590443E+02 -0.11939587252E+02  0.33188265723E+02  0.62607973442E+02  0.00000000000E+00 0.  1.
         11    1    4    4    0    0 -0.30542852530E+02  0.24467119837E+02  0.16231541195E+02  0.42367071215E+02  0.00000000000E+00 0. -1.
        -13    1    3    3    0    0  0.45004638256E+02  0.14556215609E+02 -0.60249839456E+02  0.76598590274E+02  0.00000000000E+00 0. -1.
         13    1    3    3    0    0 -0.26979716182E+02 -0.35626960300E+02 -0.22522062570E+02  0.50044267283E+02  0.00000000000E+00 0.  1.
         21    1    1    2  502  501 -0.59898456534E+02 -0.99598621026E+01  0.54224059393E+02  0.81408062041E+02  0.00000000000E+00 0.  1.
         21    1    1    2  503  502  0.20688796548E+02  0.18503074208E+02  0.75721178347E+01  0.28770245502E+02  0.00000000000E+00 0.  1.
<scales pt_clust_5="13000.00000" pt_clust_6="13000.00000" pt_clust_7="13000.00000" pt_clust_8="13000.00000" pt_clust_9="51.55245" pt_clust_10="27.75590"></scales>
<clustering>
<clus scale="   27.756">  1 10  2 -1</clus>
<clus scale="   51.552">  1  9  2 -1</clus>
<clus scale="   89.284">  5  6 -1 -1</clus>
<clus scale="   91.752">  7  8 -1 -1</clus>
<clus scale="   91.799">  1  5  2 -1</clus>
<clus scale="   27.756">  1  5  2 -1</clus>
</clustering>
</event>
<event>
10    2  0.1133532E-006  0.1055844E+03  0.7546771E-02  0.1269175E+00
          3   -1    0    0  503    0  0.00000000000E+00  0.00000000000E+00  0.16041229495E+03  0.16041229495E+03  0.00000000000E+00 0. -1.
         -3   -1    0    0    0  501 -0.00000000000E+00 -0.00000000000E+00 -0.19104728692E+03  0.19104728692E+03  0.00000000000E+00 0.  1.
         23    2    1    2    0    0  0.57055499244E+02  0.16766371058E+02 -0.65529382620E+02  0.12760432192E+03  0.91936509586E+02 0.  0.
         23    2    1    2    0    0 -0.32332186277E+02  0.26947994848E+02  0.15447013463E+02  0.10186033633E+03  0.91462304789E+02 0.  0.
        -11    1    3    3    0    0 -0.21061715313E+02 -0.58378605745E+01  0.19348733714E+01  0.21941289911E+02  0.00000000000E+00 0. -1.
         11    1    3    3    0    0  0.78117214557E+02  0.22604231632E+02 -0.67464255991E+02  0.10566303201E+03  0.00000000000E+00 0.  1.
        -13    1    4    4    0    0  0.52265097757E+01 -0.30908484106E+02  0.88189784002E+01  0.32564170098E+02  0.00000000000E+00 0.  1.
         13    1    4    4    0    0 -0.37558696053E+02  0.57856478954E+02  0.66280350628E+01  0.69296166236E+02  0.00000000000E+00 0. -1.
         21    1    1    2  502  501  0.13954079112E+02 -0.24422539181E+02 -0.39751594437E+02  0.48696673441E+02  0.00000000000E+00 0.  1.
         21    1    1    2  503  502 -0.38677392079E+02 -0.19291826725E+02  0.59198971628E+02  0.73298250172E+02  0.00000000000E+00 0. -1.
<scales pt_clust_5="13000.00000" pt_clust_6="13000.00000" pt_clust_7="13000.00000" pt_clust_8="13000.00000" pt_clust_9="28.12786" pt_clust_10="43.16661"></scales>
<clustering>
<clus scale="   28.128">  2  9  1 -1</clus>
<clus scale="   43.167">  1 10  2 -1</clus>
<clus scale="   91.462">  7  8 -1 -1</clus>
<clus scale="   91.937">  5  6 -1 -1</clus>
<clus scale="  105.172">  1  7  2 -1</clus>
<clus scale="   43.167">  1  5  2 -1</clus>
</clustering>
</event>
<event>
10    2  0.1133532E-006  0.1155183E+03  0.7546771E-02  0.1254282E+00
          2   -1    0    0  503    0  0.00000000000E+00  0.00000000000E+00  0.28683367519E+03  0.28683367519E+03  0.00000000000E+00 0. -1.
         -2   -1    0    0    0  501 -0.00000000000E+00 -0.00000000000E+00 -0.13331381280E+03  0.13331381280E+03  0.00000000000E+00 0.  1.
         23    2    1    2    0    0  0.22482073563E+02  0.17528193001E+02 -0.57084200572E+02  0.11053976799E+03  0.90264905531E+02 0.  0.
         23    2    1    2    0    0 -0.61121615321E+02  0.15891114076E+02  0.14883455974E+03  0.18992175307E+03  0.99650222032E+02 0.  0.
        -11    1    3    3    0    0 -0.34142612775E+02  0.82162038574E-01 -0.29757284381E+02  0.45290404408E+02  0.00000000000E+00 0.  1.
         11    1    3    3    0    0  0.56624686338E+02  0.17446030963E+02 -0.27326916191E+02  0.65249363581E+02  0.00000000000E+00 0. -1.
        -11    1    4    4    0    0 -0.24016043475E+02  0.23588826178E+02 -0.26517899627E+01  0.33767366712E+02  0.00000000000E+00 0.  1.
         11    1    4    4    0    0 -0.37105571846E+02 -0.76977121016E+01  0.15148634970E+03  0.15615438636E+03  0.00000000000E+00 0. -1.
         21    1    1    2  502  501  0.48619955371E+02 -0.12370416758E+02 -0.35918641868E+01  0.50297403107E+02  0.00000000000E+00 0.  1.
         21    1    1    2  503  502 -0.99804136124E+01 -0.21048890319E+02  0.65361367411E+02  0.69388563823E+02  0.00000000000E+00 0.  1.
<scales pt_clust_5="13000.00000" pt_clust_6="13000.00000" pt_clust_7="13000.00000" pt_clust_8="13000.00000" pt_clust_9="49.75154" pt_clust_10="23.29516"></scales>
<clustering>
<clus scale="   23.295">  1 10  2 -1</clus>
<clus scale="   49.752">  2  9  1 -1</clus>
<clus scale="   90.265">  5  6 -1 -1</clus>
<clus scale="   99.650">  7  8 -1 -1</clus>
<clus scale="  107.527">  2  5  1 -1</clus>
<clus scale="   23.295">  1  5  2 -1</clus>
</clustering>
</event>
<event>
10    2  0.1133532E-006  0.2215092E+03  0.7546771E-02  0.1132771E+00
         -1   -1    0    0    0  501 -0.00000000000E+00  0.00000000000E+00  0.36293977930E+03  0.36293977930E+03  0.00000000000E+00 0.  1.
          1   -1    0    0  503    0  0.00000000000E+00 -0.00000000000E+00 -0.37008104299E+03  0.37008104299E+03  0.00000000000E+00 0. -1.
         23    2    1    2    0    0  0.17128741722E+03  0.69713930306E+02  0.14896592726E+03  0.25425469957E+03  0.90858094805E+02 0.  0.
         23    2    1    2    0    0 -0.22180137793E+03 -0.18551059500E+03 -0.13984594979E+03  0.33377067449E+03  0.90752087433E+02 0.  0.
        -11    1    3    3    0    0  0.51895074939E+02 -0.17853230972E+02  0.60907270103E+02  0.81984951122E+02  0.00000000000E+00 0. -1.
         11    1    3    3    0    0  0.11939234228E+03  0.87567161279E+02  0.88058657162E+02  0.17226974845E+03  0.00000000000E+00 0.  1.
        -13    1    4    4    0    0 -0.12530112806E+03 -0.80305287713E+02 -0.25792134781E+02  0.15104484812E+03  0.00000000000E+00 0.  1.
         13    1    4    4    0    0 -0.96500249865E+02 -0.10520530728E+03 -0.11405381501E+03  0.18272582637E+03  0.00000000000E+00 0. -1.
         21    1    1    2  502  501  0.19090209154E+00  0.82322117414E+02 -0.19026800151E+02  0.84492523830E+02  0.00000000000E+00 0.  1.
         21    1    1    2  503  502  0.50323058618E+02  0.33474547276E+02  0.27655589933E+01  0.60502924397E+02  0.00000000000E+00 0.  1.
<scales pt_clust_5="13000.00000" pt_clust_6="13000.00000" pt_clust_7="13000.00000" pt_clust_8="13000.00000" pt_clust_9="144.08071" pt_clust_10="59.35607"></scales>
<clustering>
<clus scale="   59.356">  9 10 -1 -1</clus>
<clus scale="   90.752">  7  8 -1 -1</clus>
<clus scale="   90.858">  5  6 -1 -1</clus>
<clus scale="  144.081">  2  9  1 -1</clus>
<clus scale="  221.466">  2  7  1 -1</clus>
<clus scale="  144.081">  2  5  1 -1</clus>
</clustering>
</event>
<event>
10    2  0.1133532E-006  0.1248720E+03  0.7546771E-02  0.1236152E+00
          2   -1    0    0  503    0  0.00000000000E+00  0.00000000000E+00  0.73439807204E+02  0.73439807204E+02  0.00000000000E+00 0. -1.
         -2   -1    0    0    0  501 -0.00000000000E+00 -0.00000000000E+00 -0.44158260248E+03  0.44158260248E+03  0.00000000000E+00 0.  1.
         23    2    1    2    0    0 -0.62569994562E+02  0.53211136255E+02 -0.11249418433E+03  0.16838500151E+03  0.94615738562E+02 0.  0.
         23    2    1    2    0    0  0.58065224067E+02 -0.58980402637E+02 -0.11490920916E+03  0.16868244864E+03  0.91648153219E+02 0.  0.
        -13    1    3    3    0    0 -0.25063287226E+02 -0.19148286769E+02 -0.69309132513E+02  0.76148414970E+02  0.00000000000E+00 0.  1.
         13    1    3    3    0    0 -0.37506707336E+02  0.72359423025E+02 -0.43185051818E+02  0.92236586538E+02  0.00000000000E+00 0. -1.
        -13    1    4    4    0    0  0.27516564098E+02 -0.76233378598E+02 -0.10418305051E+03  0.13199544434E+03  0.00000000000E+00 0.  1.
         13    1    4    4    0    0  0.30548659969E+02  0.17252975961E+02 -0.10726158651E+02  0.36687004304E+02  0.00000000000E+00 0. -1.
         21    1    1    2  502  501  0.16785018984E+02 -0.13244566191E+02 -0.15142335566E+03  0.15292543292E+03  0.00000000000E+00 0.  1.
         21    1    1    2  503  502 -0.12280248489E+02  0.19013832572E+02  0.10683953874E+02  0.25029526612E+02  0.00000000000E+00 0. -1.
<scales pt_clust_5="13000.00000" pt_clust_6="13000.00000" pt_clust_7="13000.00000" pt_clust_8="13000.00000" pt_clust_9="21.38119" pt_clust_10="22.13393"></scales>
<clustering>
<clus scale="   21.381">  2  9  1 -1</clus>
<clus scale="   22.134">  1 10  2 -1</clus>
<clus scale="   91.648">  7  8 -1 -1</clus>
<clus scale="   94.616">  5  6 -1 -1</clus>
<clus scale="  122.639">  1  7  2 -1</clus>
<clus scale="   22.134">  1  5  2 -1</clus>
</clustering>
</event>
<event>
10    2  0.1133532E-006  0.1315581E+03  0.7546771E-02  0.1225789E+00
          2   -1    0    0  503    0  0.00000000000E+00  0.00000000000E+00  0.36826219372E+03  0.36826219372E+03  0.00000000000E+00 0. -1.
         -2   -1    0    0    0  501 -0.00000000000E+00 -0.00000000000E+00 -0.18252126270E+03  0.18252126270E+03  0.00000000000E+00 0.  1.
         23    2    1    2    0    0 -0.68259492625E+01 -0.95854199360E+02 -0.47802581851E+02  0.14167428068E+03  0.92476450273E+02 0.  0.
         23    2    1    2    0    0  0.44434687434E+02  0.74815947335E+02  0.13759235335E+03  0.18603612139E+03  0.90032856989E+02 0.  0.
        -11    1    4    4    0    0  0.21949337799E+02  0.18738920827E+02 -0.66806088635E+01  0.29623489301E+02  0.00000000000E+00 0.  1.
         11    1    4    4    0    0  0.22485349635E+02  0.56077026508E+02  0.14427296222E+03  0.15641263209E+03  0.00000000000E+00 0. -1.
        -11    1    3    3    0    0 -0.23184089711E+02 -0.55330710853E+02 -0.70385920520E+02  0.92483335725E+02  0.00000000000E+00 0. -1.
         11    1    3    3    0    0  0.16358140448E+02 -0.40523488507E+02  0.22583338670E+02  0.49190944951E+02  0.00000000000E+00 0.  1.
         21    1    1    2  502  501 -0.26194256367E+02  0.41312029166E+01 -0.60102045288E+02  0.65692174206E+02  0.00000000000E+00 0.  1.
         21    1    1    2  503  502 -0.11414481804E+02  0.16907049108E+02  0.15605320481E+03  0.15738088015E+03  0.00000000000E+00 0. -1.
<scales pt_clust_5="13000.00000" pt_clust_6="13000.00000" pt_clust_7="13000.00000" pt_clust_8="13000.00000" pt_clust_9="26.70253" pt_clust_10="20.39948"></scales>
<clustering>
<clus scale="   20.399">  1 10  2 -1</clus>
<clus scale="   26.703">  2  9  1 -1</clus>
<clus scale="   90.033">  5  6 -1 -1</clus>
<clus scale="   92.476">  7  8 -1 -1</clus>
<clus scale="  129.852">  1  5  2 -1</clus>
<clus scale="   20.399">  1  5  2 -1</clus>
</clustering>
</event>
<event>
10    2  0.1133532E-006  0.2884284E+03  0.7546771E-02  0.1091444E+00
         -1   -1    0    0    0  501 -0.00000000000E+00  0.00000000000E+00  0.29330929030E+03  0.29330929030E+03  0.00000000000E+00 0.  1.
          1   -1    0    0  503    0  0.00000000000E+00 -0.00000000000E+00 -0.11762368845E+04  0.11762368845E+04  0.00000000000E+00 0. -1.
         23    2    1    2    0    0  0.24386424558E+02 -0.34098056531E+03  0.70808253853E+02  0.35895302955E+03  0.83492664276E+02 0.  0.
         23    2    1    2    0    0  0.23532447256E+02  0.17178954981E+03 -0.26561527629E+03  0.32980283477E+03  0.90294016012E+02 0.  0.
        -11    1    3    3    0    0  0.16257932373E+02 -0.57129919806E+02  0.43606126532E+02  0.73686107057E+02  0.00000000000E+00 0.  1.
         11    1    3    3    0    0  0.81284921851E+01 -0.28385064550E+03  0.27202127321E+02  0.28526692249E+03  0.00000000000E+00 0. -1.
        -11    1    4    4    0    0  0.50790715178E+02  0.12195316187E+03 -0.22140331007E+03  0.25782105451E+03  0.00000000000E+00 0. -1.
         11    1    4    4    0    0 -0.27258267923E+02  0.49836387938E+02 -0.44211966225E+02  0.71981780267E+02  0.00000000000E+00 0.  1.
         21    1    1    2  502  501 -0.29210771877E+01  0.31443285039E+02  0.32752356168E+02  0.45496480089E+02  0.00000000000E+00 0.  1.
         21    1    1    2  503  502 -0.44997794626E+02  0.13774773046E+03 -0.72087292793E+03  0.73529383038E+03  0.00000000000E+00 0. -1.
<scales pt_clust_5="13000.00000" pt_clust_6="13000.00000" pt_clust_7="13000.00000" pt_clust_8="13000.00000" pt_clust_9="31.57868" pt_clust_10="145.78486"></scales>
<clustering>
<clus scale="   31.579">  1  9  2 -1</clus>
<clus scale="   83.493">  5  6 -1 -1</clus>
<clus scale="   90.294">  7  8 -1 -1</clus>
<clus scale="  145.785">  2 10  1 -1</clus>
<clus scale="  286.372">  1  5  2 -1</clus>
<clus scale="  145.785">  2  5  1 -1</clus>
</clustering>
</event>
<event>
10    2  0.1133532E-006  0.1057584E+03  0.7546771E-02  0.1269303E+00
         -1   -1    0    0    0  501 -0.00000000000E+00  0.00000000000E+00  0.42739562509E+03  0.42739562509E+03  0.00000000000E+00 0.  1.
          1   -1    0    0  503    0  0.00000000000E+00 -0.00000000000E+00 -0.31345739687E+03  0.31345739687E+03  0.00000000000E+00 0. -1.
         23    2    1    2    0    0  0.63590522845E+02  0.33907365060E+02  0.25235090557E+03  0.27712290049E+03  0.89009316525E+02 0.  0.
         23    2    1    2    0    0  0.18995171705E+02 -0.76412103920E+02  0.10967388023E+03  0.16259652851E+03  0.90607090801E+02 0.  0.
        -11    1    3    3    0    0  0.71210419002E+02 -0.46101228627E+01  0.12590655496E+03  0.14472262294E+03  0.00000000000E+00 0. -1.
         11    1    3    3    0    0 -0.76198961567E+01  0.38517487923E+02  0.12644435061E+03  0.13240027755E+03  0.00000000000E+00 0.  1.
        -11    1    4    4    0    0 -0.58947299377E+00  0.20238720809E+02  0.27986886624E+02  0.34543003941E+02  0.00000000000E+00 0.  1.
         11    1    4    4    0    0  0.19584644699E+02 -0.96650824728E+02  0.81686993609E+02  0.12805352456E+03  0.00000000000E+00 0. -1.
         21    1    1    2  502  501 -0.18774411075E+02 -0.78530892105E+01  0.15317895091E+02  0.25471306040E+02  0.00000000000E+00 0.  1.
         21    1    1    2  503  502 -0.63811283475E+02  0.50357828070E+02 -0.26340445268E+03  0.27566228693E+03  0.00000000000E+00 0. -1.
<scales pt_clust_5="13000.00000" pt_clust_6="13000.00000" pt_clust_7="13000.00000" pt_clust_8="13000.00000" pt_clust_9="20.35066" pt_clust_10="81.43743"></scales>
<clustering>
<clus scale="   20.351">  1  9  2 -1</clus>
<clus scale="   81.437">  2 10  1 -1</clus>
<clus scale="   89.009">  5  6 -1 -1</clus>
<clus scale="   90.607">  7  8 -1 -1</clus>
<clus scale="  104.393">  1  5  2 -1</clus>
<clus scale="   81.437">  2  5  1 -1</clus>
</clustering>
</event>
<event>
10    2  0.1133532E-006  0.9297229E+02  0.7546771E-02  0.1312179E+00
         -1   -1    0    0    0  501 -0.00000000000E+00  0.00000000000E+00  0.12132332576E+03  0.12132332576E+03  0.00000000000E+00 0.  1.
          1   -1    0    0  503    0  0.00000000000E+00 -0.00000000000E+00 -0.61756108539E+03  0.61756108539E+03  0.00000000000E+00 0. -1.
         23    2    1    2    0    0 -0.45608392079E+01  0.37934876022E+02 -0.22271185338E+03  0.24305601205E+03  0.89530996220E+02 0.  0.
         23    2    1    2    0    0  0.37834567207E+02  0.10756157502E+02 -0.22415679270E+03  0.23645311333E+03  0.64161185212E+02 0.  0.
        -11    1    3    3    0    0 -0.57348843709E+01  0.67226553675E+02 -0.14281046566E+03  0.15794659705E+03  0.00000000000E+00 0. -1.
         11    1    3    3    0    0  0.11740451631E+01 -0.29291677653E+02 -0.79901387724E+02  0.85109415002E+02  0.00000000000E+00 0.  1.
        -13    1    4    4    0    0  0.45611216122E+02  0.29916190487E+02 -0.15935423565E+03  0.16843139229E+03  0.00000000000E+00 0. -1.
         13    1    4    4    0    0 -0.77766489151E+01 -0.19160032985E+02 -0.64802557049E+02  0.68021721034E+02  0.00000000000E+00 0.  1.
         21    1    1    2  502  501 -0.13266391002E+02 -0.27209366155E+02  0.10137568735E+03  0.10579875577E+03  0.00000000000E+00 0.  1.
         21    1    1    2  503  502 -0.20007336997E+02 -0.21481667369E+02 -0.15074480090E+03  0.15357653000E+03  0.00000000000E+00 0.  1.
<scales pt_clust_5="13000.00000" pt_clust_6="13000.00000" pt_clust_7="13000.00000" pt_clust_8="13000.00000" pt_clust_9="30.40467" pt_clust_10="29.35567"></scales>
<clustering>
<clus scale="   29.356">  2 10  1 -1</clus>
<clus scale="   30.405">  1  9  2 -1</clus>
<clus scale="   64.161">  7  8 -1 -1</clus>
<clus scale="   68.882">  2  7  1 -1</clus>
<clus scale="   89.531">  5  6 -1 -1</clus>
<clus scale="   29.356">  2  5  1 -1</clus>
</clustering>
</event>
<event>
10    2  0.1133532E-006  0.9414330E+02  0.7546771E-02  0.1293347E+00
         -1   -1    0    0    0  501 -0.00000000000E+00  0.00000000000E+00  0.18470328916E+03  0.18470328916E+03  0.00000000000E+00 0.  1.
          1   -1    0    0  503    0  0.00000000000E+00 -0.00000000000E+00 -0.25571240513E+03  0.25571240513E+03  0.00000000000E+00 0. -1.
         23    2    1    2    0    0  0.76301769016E+01  0.12445498410E+01  0.12266809107E+03  0.15287013389E+03  0.90895812697E+02 0.  0.
         23    2    1    2    0    0 -0.29701600923E+02  0.10372433234E+02 -0.13591654467E+03  0.16673489017E+03  0.91309605273E+02 0.  0.
        -11    1    3    3    0    0  0.19701744703E+02  0.28608880744E+02  0.11748881114E+03  0.12251631542E+03  0.00000000000E+00 0.  1.
         11    1    3    3    0    0 -0.12071567802E+02 -0.27364330903E+02  0.51792799270E+01  0.30353818467E+02  0.00000000000E+00 0. -1.
        -13    1    4    4    0    0 -0.39445722127E+02 -0.26059176333E+02 -0.11328289893E+03  0.12275202995E+03  0.00000000000E+00 0. -1.
         13    1    4    4    0    0  0.97441212040E+01  0.36431609567E+02 -0.22633645735E+02  0.43982860218E+02  0.00000000000E+00 0.  1.
         21    1    1    2  502  501  0.22761362248E+01  0.26552417566E+02  0.19067823310E+02  0.32768789426E+02  0.00000000000E+00 0.  1.
         21    1    1    2  503  502  0.19795287797E+02 -0.38169400641E+02 -0.76828485680E+02  0.88041880808E+02  0.00000000000E+00 0. -1.
<scales pt_clust_5="13000.00000" pt_clust_6="13000.00000" pt_clust_7="13000.00000" pt_clust_8="13000.00000" pt_clust_9="26.64980" pt_clust_10="42.20487"></scales>
<clustering>
<clus scale="   26.650">  1  9  2 -1</clus>
<clus scale="   42.205">  2 10  1 -1</clus>
<clus scale="   90.896">  5  6 -1 -1</clus>
<clus scale="   91.310">  7  8 -1 -1</clus>
<clus scale="   93.742">  1  5  2 -1</clus>
<clus scale="   42.205">  2  5  1 -1</clus>
</clustering>
</event>
<event>
10    2  0.1133532E-006  0.9967668E+02  0.7546771E-02  0.1282351E+00
          1   -1    0    0  503    0  0.00000000000E+00  0.00000000000E+00  0.83286131274E+03  0.83286131274E+03  0.00000000000E+00 0. -1.
         -1   -1    0    0    0  501 -0.00000000000E+00 -0.00000000000E+00 -0.32156731451E+02  0.32156731451E+02  0.00000000000E+00 0.  1.
         23    2    1    2    0    0  0.58706170351E+01 -0.69683231332E+02  0.18918790486E+03  0.21934733227E+03  0.86203085523E+02 0.  0.
         23    2    1    2    0    0 -0.30705983302E+02  0.74624203891E+01  0.31121291272E+03  0.32525024272E+03  0.89082536004E+02 0.  0.
        -11    1    4    4    0    0  0.21691048878E+02  0.27438666315E+02  0.16469508495E+03  0.16836820667E+03  0.00000000000E+00 0. -1.
         11    1    4    4    0    0 -0.52397032180E+02 -0.19976245926E+02  0.14651782777E+03  0.15688203606E+03  0.00000000000E+00 0.  1.
        -13    1    3    3    0    0 -0.18712176787E+02  0.11344350153E+02  0.17891724041E+02  0.28265767806E+02  0.00000000000E+00 0. -1.
         13    1    3    3    0    0  0.24582793822E+02 -0.81027581485E+02  0.17129618082E+03  0.19108156446E+03  0.00000000000E+00 0.  1.
         21    1    1    2  502  501  0.16775890677E+02  0.21712222863E+02  0.13357221364E+02  0.30516659258E+02  0.00000000000E+00 0.  1.
         21    1    1    2  503  502  0.80594755899E+01  0.40508588079E+02  0.28694654234E+03  0.28990380994E+03  0.00000000000E+00 0.  1.
<scales pt_clust_5="13000.00000" pt_clust_6="13000.00000" pt_clust_7="13000.00000" pt_clust_8="13000.00000" pt_clust_9="27.43813" pt_clust_10="42.85021"></scales>
<clustering>
<clus scale="   27.438">  2  9  1 -1</clus>
<clus scale="   42.850">  1 10  2 -1</clus>
<clus scale="   86.203">  7  8 -1 -1</clus>
<clus scale="   89.083">  5  6 -1 -1</clus>
<clus scale="   97.112">  2  7  1 -1</clus>
<clus scale="   42.850">  1  5  2 -1</clus>
</clustering>
</event>
<event>
10    2  0.1133532E-006  0.3525406E+03  0.7546771E-02  0.1061628E+00
          2   -1    0    0  503    0  0.00000000000E+00  0.00000000000E+00  0.21306779733E+04  0.21306779733E+04  0.00000000000E+00 0. -1.
         -2   -1    0    0    0  501 -0.00000000000E+00 -0.00000000000E+00 -0.76262496352E+02  0.76262496352E+02  0.00000000000E+00 0.  1.
         23    2    1    2    0    0  0.59439261700E+02  0.36401549412E+03  0.87944618623E+03  0.95818180795E+03  0.92986433503E+02 0.  0.
         23    2    1    2    0    0 -0.76671802927E+01 -0.32222367645E+03  0.10492620373E+04  0.11014218271E+04  0.91062259055E+02 0.  0.
        -11    1    4    4    0    0 -0.15912915091E+01 -0.28661608057E+03  0.10004499180E+04  0.10406975297E+04  0.00000000000E+00 0.  1.
         11    1    4    4    0    0 -0.60758887836E+01 -0.35607595877E+02  0.48812119253E+02  0.60724297399E+02  0.00000000000E+00 0. -1.
        -13    1    3    3    0    0  0.36519667789E+02  0.15138862686E+03  0.26247529725E+03  0.30519745108E+03  0.00000000000E+00 0. -1.
         13    1    3    3    0    0  0.22919593911E+02  0.21262686725E+03  0.61697088898E+03  0.65298435687E+03  0.00000000000E+00 0.  1.
         21    1    1    2  502  501 -0.28213852709E+02 -0.18576525003E+01  0.31439003786E+02  0.42283369267E+02  0.00000000000E+00 0.  1.
         21    1    1    2  503  502 -0.23558228699E+02 -0.39934165169E+02  0.94268249648E+02  0.10505346534E+03  0.00000000000E+00 0.  1.
<scales pt_clust_5="13000.00000" pt_clust_6="13000.00000" pt_clust_7="13000.00000" pt_clust_8="13000.00000" pt_clust_9="28.27494" pt_clust_10="47.61143"></scales>
<clustering>
<clus scale="   28.275">  2  9  1 -1</clus>
<clus scale="   47.611">  2 10  1 -1</clus>
<clus scale="   91.062">  5  6 -1 -1</clus>
<clus scale="   92.986">  7  8 -1 -1</clus>
<clus scale="  352.038">  1  5  2 -1</clus>
<clus scale="  352.038">  1  5  2 -1</clus>
</clustering>
</event>
<event>
10    2  0.1133532E-006  0.1117216E+03  0.7546771E-02  0.1267667E+00
          1   -1    0    0  503    0  0.00000000000E+00  0.00000000000E+00  0.11462580942E+03  0.11462580942E+03  0.00000000000E+00 0. -1.
         -1   -1    0    0    0  501 -0.00000000000E+00 -0.00000000000E+00 -0.31096367322E+03  0.31096367322E+03  0.00000000000E+00 0.  1.
         23    2    1    2    0    0  0.48789203271E+02  0.84326716105E+01 -0.11805716048E+03  0.14826218751E+03  0.74784268391E+02 0.  0.
         23    2    1    2    0    0 -0.57444585540E+02 -0.64767147434E+01 -0.10123298921E+03  0.15267330446E+03  0.98585960204E+02 0.  0.
        -11    1    3    3    0    0  0.34832248045E+02 -0.31665455533E+02 -0.57677484569E+02  0.74449169265E+02  0.00000000000E+00 0. -1.
         11    1    3    3    0    0  0.13956955226E+02  0.40098127143E+02 -0.60379675908E+02  0.73813018244E+02  0.00000000000E+00 0.  1.
        -11    1    4    4    0    0  0.17485650769E+02 -0.30312967223E+02 -0.23830513288E+02  0.42338130902E+02  0.00000000000E+00 0.  1.
         11    1    4    4    0    0 -0.74930236309E+02  0.23836252480E+02 -0.77402475926E+02  0.11033517356E+03  0.00000000000E+00 0. -1.
         21    1    1    2  502  501  0.38305336922E+02 -0.30902921158E+01 -0.39747652236E+02  0.55287653236E+02  0.00000000000E+00 0.  1.
         21    1    1    2  503  502 -0.29649954653E+02  0.11343352487E+01  0.62699938127E+02  0.69366337430E+02  0.00000000000E+00 0. -1.
<scales pt_clust_5="13000.00000" pt_clust_6="13000.00000" pt_clust_7="13000.00000" pt_clust_8="13000.00000" pt_clust_9="33.69011" pt_clust_10="29.67165"></scales>
<clustering>
<clus scale="   29.672">  1 10  2 -1</clus>
<clus scale="   33.690">  1  9  2 -1</clus>
<clus scale="   74.784">  5  6 -1 -1</clus>
<clus scale="   91.407">  2  5  1 -1</clus>
<clus scale="   98.586">  7  8 -1 -1</clus>
<clus scale="   29.672">  1  5  2 -1</clus>
</clustering>
</event>
<event>
10    2  0.1133532E-006  0.1307700E+03  0.7546771E-02  0.1226414E+00
         -1   -1    0    0    0  501 -0.00000000000E+00  0.00000000000E+00  0.13057993584E+03  0.13057993584E+03  0.00000000000E+00 0.  1.
          1   -1    0    0  503    0  0.00000000000E+00 -0.00000000000E+00 -0.73585237149E+03  0.73585237149E+03  0.00000000000E+00 0. -1.
         23    2    1    2    0    0 -0.94595981317E+02 -0.26702991139E+02  0.19542795711E+02  0.13576989241E+03  0.91597453048E+02 0.  0.
         23    2    1    2    0    0  0.72055536964E+02  0.10297335754E+03 -0.19048505889E+03  0.24604589994E+03  0.91970182382E+02 0.  0.
        -11    1    4    4    0    0  0.82889403787E+02  0.45298818059E+02 -0.94995085952E+02  0.13396530347E+03  0.00000000000E+00 0. -1.
         11    1    4    4    0    0 -0.10833866823E+02  0.57674539480E+02 -0.95489972934E+02  0.11208059647E+03  0.00000000000E+00 0.  1.
        -11    1    3    3    0    0 -0.27488997231E+02 -0.11190423576E+02  0.51810624769E+02  0.59709391117E+02  0.00000000000E+00 0.  1.
         11    1    3    3    0    0 -0.67106984086E+02 -0.15512567563E+02 -0.32267829058E+02  0.76060501297E+02  0.00000000000E+00 0. -1.
         21    1    1    2  502  501  0.26993938454E+02 -0.20109551480E+02  0.11248245668E+02  0.35490700255E+02  0.00000000000E+00 0.  1.
         21    1    1    2  503  502 -0.44534941010E+01 -0.56160814921E+02 -0.44557841814E+03  0.44912581473E+03  0.00000000000E+00 0. -1.
<scales pt_clust_5="13000.00000" pt_clust_6="13000.00000" pt_clust_7="13000.00000" pt_clust_8="13000.00000" pt_clust_9="33.66106" pt_clust_10="56.63543"></scales>
<clustering>
<clus scale="   33.661">  1  9  2 -1</clus>
<clus scale="   56.635">  2 10  1 -1</clus>
<clus scale="   91.597">  7  8 -1 -1</clus>
<clus scale="   91.970">  5  6 -1 -1</clus>
<clus scale="  130.508">  1  7  2 -1</clus>
<clus scale="   56.635">  2  5  1 -1</clus>
</clustering>
</event>
<event>
10    2  0.1133532E-006  0.1692902E+03  0.7546771E-02  0.1179368E+00
         -2   -1    0    0    0  501 -0.00000000000E+00  0.00000000000E+00  0.19749494369E+03  0.19749494369E+03  0.00000000000E+00 0.  1.
          2   -1    0    0  503    0  0.00000000000E+00 -0.00000000000E+00 -0.43365826596E+03  0.43365826596E+03  0.00000000000E+00 0. -1.
         23    2    1    2    0    0 -0.16085734108E+03 -0.29279794762E+02 -0.19213232604E+02  0.18911198853E+03  0.93068820445E+02 0.  0.
         23    2    1    2    0    0  0.11625238523E+03 -0.43734053615E+01 -0.22206848661E+03  0.26556243347E+03  0.87608501755E+02 0.  0.
        -11    1    3    3    0    0 -0.41146296594E+02 -0.72828390557E+01 -0.48403969101E+02  0.63945302352E+02  0.00000000000E+00 0. -1.
         11    1    3    3    0    0 -0.11971104448E+03 -0.21996955706E+02  0.29190736497E+02  0.12516668618E+03  0.00000000000E+00 0.  1.
        -13    1    4    4    0    0  0.54465652321E+02 -0.37665076966E+02 -0.15469875836E+03  0.16827617522E+03  0.00000000000E+00 0. -1.
         13    1    4    4    0    0  0.61786732906E+02  0.33291671604E+02 -0.67369728248E+02  0.97286258257E+02  0.00000000000E+00 0.  1.
         21    1    1    2  502  501  0.13853511830E+02  0.41287411753E+02  0.82263790870E+02  0.93080080831E+02  0.00000000000E+00 0.  1.
         21    1    1    2  503  502  0.30751444019E+02 -0.76342116299E+01 -0.77145393923E+02  0.83398706824E+02  0.00000000000E+00 0. -1.
<scales pt_clust_5="13000.00000" pt_clust_6="13000.00000" pt_clust_7="13000.00000" pt_clust_8="13000.00000" pt_clust_9="43.59125" pt_clust_10="31.68489"></scales>
<clustering>
<clus scale="   31.685">  2 10  1 -1</clus>
<clus scale="   43.591">  1  9  2 -1</clus>
<clus scale="   87.609">  7  8 -1 -1</clus>
<clus scale="   93.069">  5  6 -1 -1</clus>
<clus scale="  166.351">  2  7  1 -1</clus>
<clus scale="   31.685">  2  5  1 -1</clus>
</clustering>
</event>
<event>
10    2  0.1133532E-006  0.1294531E+03  0.7546771E-02  0.1230009E+00
         -2   -1    0    0    0  501 -0.00000000000E+00  0.00000000000E+00  0.30372849916E+03  0.30372849916E+03  0.00000000000E+00 0.  1.
          2   -1    0    0  503    0  0.00000000000E+00 -0.00000000000E+00 -0.18095116629E+03  0.18095116629E+03  0.00000000000E+00 0. -1.
         23    2    1    2    0    0  0.32503735320E+02 -0.15587116773E+03 -0.12088090667E+02  0.18436893141E+03  0.92160008648E+02 0.  0.
         23    2    1    2    0    0  0.26696103847E+02  0.46599399343E+02 -0.36728566777E+01  0.10113336852E+03  0.85617068234E+02 0.  0.
        -11    1    3    3    0    0  0.34611853996E+02 -0.56033829847E+02 -0.44378968576E+02  0.79418281121E+02  0.00000000000E+00 0.  1.
         11    1    3    3    0    0 -0.21081186753E+01 -0.99837337884E+02  0.32290877909E+02  0.10495065029E+03  0.00000000000E+00 0. -1.
        -11    1    4    4    0    0  0.52245766366E+02  0.52336312659E+02  0.33354902145E+01  0.74025909119E+02  0.00000000000E+00 0.  1.
         11    1    4    4    0    0 -0.25549662519E+02 -0.57369133162E+01 -0.70083468922E+01  0.27107459405E+02  0.00000000000E+00 0. -1.
         21    1    1    2  502  501 -0.31510502040E+02  0.90302514941E+02  0.13497368496E+03  0.16542476107E+03  0.00000000000E+00 0.  1.
         21    1    1    2  503  502 -0.27689337127E+02  0.18969253447E+02  0.35645952539E+01  0.33752604436E+02  0.00000000000E+00 0.  1.
<scales pt_clust_5="13000.00000" pt_clust_6="13000.00000" pt_clust_7="13000.00000" pt_clust_8="13000.00000" pt_clust_9="98.14091" pt_clust_10="33.56385"></scales>
<clustering>
<clus scale="   33.564">  2 10  1 -1</clus>
<clus scale="   85.617">  7  8 -1 -1</clus>
<clus scale="   92.160">  5  6 -1 -1</clus>
<clus scale="   98.141">  1  9  2 -1</clus>
<clus scale="  124.880">  2  7  1 -1</clus>
<clus scale="   33.564">  2  5  1 -1</clus>
</clustering>
</event>
<event>
10    2  0.1133532E-006  0.1017608E+03  0.7546771E-02  0.1277656E+00
         -1   -1    0    0    0  501 -0.00000000000E+00  0.00000000000E+00  0.60899925926E+02  0.60899925926E+02  0.00000000000E+00 0.  1.
          1   -1    0    0  503    0  0.00000000000E+00 -0.00000000000E+00 -0.28000251794E+03  0.28000251794E+03  0.00000000000E+00 0. -1.
         23    2    1    2    0    0  0.24833761129E+02 -0.13887261666E+02 -0.76625380759E+02  0.12198130665E+03  0.90545118406E+02 0.  0.
         23    2    1    2    0    0 -0.61527350608E+02  0.23564308477E+02 -0.90037971389E+02  0.14230370311E+03  0.88332418285E+02 0.  0.
        -13    1    4    4    0    0 -0.28960222755E+02  0.56490619276E+02 -0.58025239526E+02  0.86004726558E+02  0.00000000000E+00 0. -1.
         13    1    4    4    0    0 -0.32567127853E+02 -0.32926310799E+02 -0.32012731863E+02  0.56298976551E+02  0.00000000000E+00 0.  1.
        -13    1    3    3    0    0  0.50595644573E+02 -0.19357515041E+02 -0.16964974097E+02  0.56766565727E+02  0.00000000000E+00 0.  1.
         13    1    3    3    0    0 -0.25761883444E+02  0.54702533750E+01 -0.59660406662E+02  0.65214740923E+02  0.00000000000E+00 0. -1.
         21    1    1    2  502  501  0.11493168134E+02 -0.17159133317E+02 -0.33359608157E+01  0.20920263012E+02  0.00000000000E+00 0.  1.
         21    1    1    2  503  502  0.25200421345E+02  0.74820865056E+01 -0.49103279053E+02  0.55697171097E+02  0.00000000000E+00 0. -1.
<scales pt_clust_5="13000.00000" pt_clust_6="13000.00000" pt_clust_7="13000.00000" pt_clust_8="13000.00000" pt_clust_9="20.65257" pt_clust_10="26.70496"></scales>
<clustering>
<clus scale="   20.653">  1  9  2 -1</clus>
<clus scale="   26.705">  2 10  1 -1</clus>
<clus scale="   88.332">  5  6 -1 -1</clus>
<clus scale="   90.545">  7  8 -1 -1</clus>
<clus scale="   99.797">  2  5  1 -1</clus>
<clus scale="   26.705">  2  5  1 -1</clus>
</clustering>
</event>
<event>
10    2  0.1133532E-006  0.1024092E+03  0.7546771E-02  0.1277330E+00
         -1   -1    0    0    0  501 -0.00000000000E+00  0.00000000000E+00  0.25751535267E+02  0.25751535267E+02  0.00000000000E+00 0.  1.
          1   -1    0    0  503    0  0.00000000000E+00 -0.00000000000E+00 -0.89851282274E+03  0.89851282274E+03  0.00000000000E+00 0. -1.
         23    2    1    2    0    0  0.46393512384E+02 -0.14580527711E+02 -0.19769510336E+03  0.22276920086E+03  0.90431262202E+02 0.  0.
         23    2    1    2    0    0 -0.13825039116E+02  0.51777082076E+02 -0.35339625462E+03  0.36763836926E+03  0.86006161617E+02 0.  0.
        -11    1    3    3    0    0  0.43109686692E+02  0.20712173874E+02 -0.17320365540E+03  0.17968568523E+03  0.00000000000E+00 0. -1.
         11    1    3    3    0    0  0.32838256919E+01 -0.35292701586E+02 -0.24491447957E+02  0.43083515634E+02  0.00000000000E+00 0.  1.
        -13    1    4    4    0    0 -0.40802708798E+02 -0.23305297531E+01 -0.14041885370E+03  0.14624550211E+03  0.00000000000E+00 0.  1.
         13    1    4    4    0    0  0.26977669682E+02  0.54107611829E+02 -0.21297740092E+03  0.22139286715E+03  0.00000000000E+00 0. -1.
         21    1    1    2  502  501  0.15281980143E+01 -0.22174140511E+02 -0.20017574873E+02  0.29912057775E+02  0.00000000000E+00 0. -1.
         21    1    1    2  503  502 -0.34096671282E+02 -0.15022413854E+02 -0.30165235462E+03  0.30394473011E+03  0.00000000000E+00 0.  1.
<scales pt_clust_5="13000.00000" pt_clust_6="13000.00000" pt_clust_7="13000.00000" pt_clust_8="13000.00000" pt_clust_9="22.22674" pt_clust_10="37.69242"></scales>
<clustering>
<clus scale="   22.227">  1  9  2 -1</clus>
<clus scale="   37.692">  2 10  1 -1</clus>
<clus scale="   86.006">  7  8 -1 -1</clus>
<clus scale="   90.431">  5  6 -1 -1</clus>
<clus scale="   98.524">  2  7  1 -1</clus>
<clus scale="   37.692">  2  5  1 -1</clus>
</clustering>
</event>
<event>
10    2  0.1133532E-006  0.9266776E+02  0.7546771E-02  0.1296903E+00
         -2   -1    0    0    0  501 -0.00000000000E+00  0.00000000000E+00  0.50572310819E+03  0.50572310819E+03  0.00000000000E+00 0.  1.
          2   -1    0    0  503    0  0.00000000000E+00 -0.00000000000E+00 -0.12079896804E+03  0.12079896804E+03  0.00000000000E+00 0. -1.
         23    2    1    2    0    0 -0.52631012971E+01 -0.13233561518E+02  0.28314774774E+03  0.29772907356E+03  0.90923741695E+02 0.  0.
         23    2    1    2    0    0 -0.54854511999E+01 -0.20809992021E+02  0.23782648918E+02  0.97045787986E+02  0.91592164695E+02 0.  0.
        -11    1    3    3    0    0  0.15215897924E+02 -0.47495633722E+02  0.18899212316E+03  0.19546196916E+03  0.00000000000E+00 0.  1.
         11    1    3    3    0    0 -0.20478999221E+02  0.34262072204E+02  0.94155624581E+02  0.10226710439E+03  0.00000000000E+00 0. -1.
        -11    1    4    4    0    0  0.41454672371E+02 -0.13998488869E+02  0.23386756275E+02  0.49612376692E+02  0.00000000000E+00 0.  1.
         11    1    4    4    0    0 -0.46940123570E+02 -0.68115031516E+01  0.39589264317E+00  0.47433411294E+02  0.00000000000E+00 0. -1.
         21    1    1    2  502  501  0.27558697146E+02  0.10382858222E+02  0.15065351977E+03  0.15350494635E+03  0.00000000000E+00 0.  1.
         21    1    1    2  503  502 -0.16810144649E+02  0.23660695317E+02 -0.72659776276E+02  0.78242268337E+02  0.00000000000E+00 0. -1.
<scales pt_clust_5="13000.00000" pt_clust_6="13000.00000" pt_clust_7="13000.00000" pt_clust_8="13000.00000" pt_clust_9="29.23073" pt_clust_10="29.02429"></scales>
<clustering>
<clus scale="   29.024">  2 10  1 -1</clus>
<clus scale="   29.231">  1  9  2 -1</clus>
<clus scale="   90.924">  5  6 -1 -1</clus>
<clus scale="   91.592">  7  8 -1 -1</clus>
<clus scale="   92.007">  1  5  2 -1</clus>
<clus scale="   29.024">  2  5  1 -1</clus>
</clustering>
</event>
<event>
10    2  0.1133532E-006  0.1976409E+03  0.7546771E-02  0.1175295E+00
         -2   -1    0    0    0  501 -0.00000000000E+00  0.00000000000E+00  0.78717617478E+02  0.78717617478E+02  0.00000000000E+00 0.  1.
          2   -1    0    0  503    0  0.00000000000E+00 -0.00000000000E+00 -0.13748540817E+04  0.13748540817E+04  0.00000000000E+00 0. -1.
         23    2    1    2    0    0  0.28487020202E+02 -0.38195406859E+02 -0.16689553192E+03  0.19966303462E+03  0.98695538876E+02 0.  0.
         23    2    1    2    0    0  0.88227503305E+02  0.16602374136E+03 -0.47570971489E+03  0.51953035511E+03  0.90906996468E+02 0.  0.
        -11    1    4    4    0    0  0.45487070687E+02  0.46955296987E+02 -0.27191179208E+03  0.27966032287E+03  0.00000000000E+00 0. -1.
         11    1    4    4    0    0  0.42740432618E+02  0.11906844438E+03 -0.20379792280E+03  0.23987003224E+03  0.00000000000E+00 0.  1.
        -13    1    3    3    0    0 -0.81591401061E+01 -0.60421870757E+02 -0.64997490339E+02  0.89118167527E+02  0.00000000000E+00 0.  1.
         13    1    3    3    0    0  0.36646160308E+02  0.22226463898E+02 -0.10189804158E+03  0.11054486709E+03  0.00000000000E+00 0. -1.
         21    1    1    2  502  501  0.23161669880E+02 -0.22648011131E+02  0.20274396458E+02  0.38215788773E+02  0.00000000000E+00 0.  1.
         21    1    1    2  503  502 -0.13987619339E+03 -0.10518032337E+03 -0.67380561384E+03  0.69616252064E+03  0.00000000000E+00 0.  1.
<scales pt_clust_5="13000.00000" pt_clust_6="13000.00000" pt_clust_7="13000.00000" pt_clust_8="13000.00000" pt_clust_9="32.39437" pt_clust_10="175.49318"></scales>
<clustering>
<clus scale="   32.394">  1  9  2 -1</clus>
<clus scale="   90.907">  5  6 -1 -1</clus>
<clus scale="   98.696">  7  8 -1 -1</clus>
<clus scale="  114.614">  1  7  2 -1</clus>
<clus scale="  175.493">  2 10  1 -1</clus>
<clus scale="  175.493">  2  5  1 -1</clus>
</clustering>
</event>
<event>
10    2  0.1133532E-006  0.2636432E+03  0.7546771E-02  0.1105180E+00
          1   -1    0    0  503    0  0.00000000000E+00  0.00000000000E+00  0.89587278214E+03  0.89587278214E+03  0.00000000000E+00 0. -1.
         -1   -1    0    0    0  501 -0.00000000000E+00 -0.00000000000E+00 -0.19414720156E+03  0.19414720156E+03  0.00000000000E+00 0.  1.
         23    2    1    2    0    0  0.30038245910E+02 -0.23974072947E+03 -0.14423011652E+02  0.25948412107E+03  0.93520437537E+02 0.  0.
         23    2    1    2    0    0 -0.20297927799E+02  0.23851048389E+03  0.70525931764E+03  0.75013438402E+03  0.89507721291E+02 0.  0.
        -11    1    4    4    0    0  0.86092137596E+01  0.22125824989E+03  0.62666165935E+03  0.66463085018E+03  0.00000000000E+00 0. -1.
         11    1    4    4    0    0 -0.28907141558E+02  0.17252234006E+02  0.78597658283E+02  0.85503533838E+02  0.00000000000E+00 0.  1.
        -13    1    3    3    0    0  0.11130972994E+02 -0.21680151898E+03 -0.39428587656E+02  0.22063864285E+03  0.00000000000E+00 0.  1.
         13    1    3    3    0    0  0.18907272916E+02 -0.22939210488E+02  0.25005576004E+02  0.38845478221E+02  0.00000000000E+00 0. -1.
         21    1    1    2  502  501 -0.29422850975E+02 -0.99236537350E+01 -0.23705763367E+02  0.39065922231E+02  0.00000000000E+00 0. -1.
         21    1    1    2  503  502  0.19682532864E+02  0.11153899310E+02  0.34595037958E+02  0.41335556378E+02  0.00000000000E+00 0.  1.
<scales pt_clust_5="13000.00000" pt_clust_6="13000.00000" pt_clust_7="13000.00000" pt_clust_8="13000.00000" pt_clust_9="30.85245" pt_clust_10="22.62325"></scales>
<clustering>
<clus scale="   22.623">  1 10  2 -1</clus>
<clus scale="   30.852">  2  9  1 -1</clus>
<clus scale="   89.508">  5  6 -1 -1</clus>
<clus scale="   93.520">  7  8 -1 -1</clus>
<clus scale="  262.247">  1  5  2 -1</clus>
<clus scale="   22.623">  1  5  2 -1</clus>
</clustering>
</event>
<event>
10    2  0.1133532E-006  0.1477133E+03  0.7546771E-02  0.1207013E+00
          1   -1    0    0  503    0  0.00000000000E+00  0.00000000000E+00  0.77748582308E+03  0.77748582308E+03  0.00000000000E+00 0. -1.
         -1   -1    0    0    0  501 -0.00000000000E+00 -0.00000000000E+00 -0.67750215168E+02  0.67750215168E+02  0.00000000000E+00 0.  1.
         23    2    1    2    0    0  0.44023180663E+01 -0.82767347625E+02  0.20525036047E+03  0.23908472090E+03  0.90354740101E+02 0.  0.
         23    2    1    2    0    0 -0.27037099335E+02  0.15535398327E+03  0.31964723794E+03  0.36330322308E+03  0.70349202663E+02 0.  0.
        -11    1    4    4    0    0  0.19955797634E+02  0.20261827255E+02  0.38509196189E+02  0.47872055461E+02  0.00000000000E+00 0.  1.
         11    1    4    4    0    0 -0.46992896970E+02  0.13509215601E+03  0.28113804175E+03  0.31543116762E+03  0.00000000000E+00 0. -1.
        -13    1    3    3    0    0 -0.27515717810E+02 -0.54245199910E+02  0.17857140417E+03  0.18864623724E+03  0.00000000000E+00 0.  1.
         13    1    3    3    0    0  0.31918035876E+02 -0.28522147715E+02  0.26678956304E+02  0.50438483661E+02  0.00000000000E+00 0. -1.
         21    1    1    2  502  501  0.64481100544E+01 -0.27963975364E+02 -0.18433386757E+02  0.34107943192E+02  0.00000000000E+00 0.  1.
         21    1    1    2  503  502  0.16186671215E+02 -0.44622660279E+02  0.20327139625E+03  0.20874015107E+03  0.00000000000E+00 0. -1.
<scales pt_clust_5="13000.00000" pt_clust_6="13000.00000" pt_clust_7="13000.00000" pt_clust_8="13000.00000" pt_clust_9="28.69777" pt_clust_10="49.34619"></scales>
<clustering>
<clus scale="   28.698">  2  9  1 -1</clus>
<clus scale="   49.346">  1 10  2 -1</clus>
<clus scale="   70.349">  5  6 -1 -1</clus>
<clus scale="   90.355">  7  8 -1 -1</clus>
<clus scale="  136.397">  1  5  2 -1</clus>
<clus scale="   49.346">  1  5  2 -1</clus>
</clustering>
</event>
<event>
10    2  0.1133532E-006  0.2427922E+03  0.7546771E-02  0.1118072E+00
          2   -1    0    0  503    0  0.00000000000E+00  0.00000000000E+00  0.74225151376E+03  0.74225151376E+03  0.00000000000E+00 0. -1.
         -2   -1    0    0    0  501 -0.00000000000E+00 -0.00000000000E+00 -0.34687823431E+03  0.34687823431E+03  0.00000000000E+00 0.  1.
         23    2    1    2    0    0  0.23517436444E+03  0.94311939448E+02  0.22562054444E+03  0.35211144465E+03  0.94213140094E+02 0.  0.
         23    2    1    2    0    0 -0.17725645410E+03 -0.86680618945E+02  0.15920916712E+03  0.26979161873E+03  0.92231114165E+02 0.  0.
        -11    1    4    4    0    0 -0.16094539798E+03 -0.10233550268E+03  0.15708054678E+03  0.24708353732E+03  0.00000000000E+00 0. -1.
         11    1    4    4    0    0 -0.16311056121E+02  0.15654883733E+02  0.21286203355E+01  0.22708081403E+02  0.00000000000E+00 0.  1.
        -13    1    3    3    0    0  0.12095717882E+02  0.26473221464E+02  0.22095182998E+01  0.29189378494E+02  0.00000000000E+00 0. -1.
         13    1    3    3    0    0  0.22307864656E+03  0.67838717984E+02  0.22341102614E+03  0.32292206615E+03  0.00000000000E+00 0.  1.
         21    1    1    2  502  501 -0.61715594844E+02  0.23835136456E+02 -0.22245392513E+03  0.23208334103E+03  0.00000000000E+00 0.  1.
         21    1    1    2  503  502  0.37976844986E+01 -0.31466456959E+02  0.23299749302E+03  0.23514334368E+03  0.00000000000E+00 0.  1.
<scales pt_clust_5="13000.00000" pt_clust_6="13000.00000" pt_clust_7="13000.00000" pt_clust_8="13000.00000" pt_clust_9="66.01792" pt_clust_10="31.69480"></scales>
<clustering>
<clus scale="   31.695">  1 10  2 -1</clus>
<clus scale="   66.018">  2  9  1 -1</clus>
<clus scale="   92.231">  5  6 -1 -1</clus>
<clus scale="   94.213">  7  8 -1 -1</clus>
<clus scale="  242.030">  1  5  2 -1</clus>
<clus scale="   31.695">  1  5  2 -1</clus>
</clustering>
</event>
<event>
10    2  0.1133532E-006  0.1051737E+03  0.7546771E-02  0.1270847E+00
         -2   -1    0    0    0  501 -0.00000000000E+00  0.00000000000E+00  0.27080106963E+03  0.27080106963E+03  0.00000000000E+00 0.  1.
          2   -1    0    0  503    0  0.00000000000E+00 -0.00000000000E+00 -0.83150734619E+02  0.83150734619E+02  0.00000000000E+00 0. -1.
         23    2    1    2    0    0  0.42474482116E+02 -0.14764500296E+02  0.66694736535E+02  0.12078618803E+03  0.90105733655E+02 0.  0.
         23    2    1    2    0    0 -0.49674908391E+02  0.11522578155E+02  0.18360072751E+02  0.10725888512E+03  0.92558142997E+02 0.  0.
        -11    1    4    4    0    0  0.86234096747E+01  0.36773577764E+02 -0.77720868451E+01  0.38562475930E+02  0.00000000000E+00 0.  1.
         11    1    4    4    0    0 -0.58298318066E+02 -0.25250999609E+02  0.26132159596E+02  0.68696409191E+02  0.00000000000E+00 0. -1.
        -13    1    3    3    0    0  0.24733400202E+02 -0.46537325465E+01  0.87849742903E+02  0.91383672723E+02  0.00000000000E+00 0.  1.
         13    1    3    3    0    0  0.17741081913E+02 -0.10110767750E+02 -0.21155006369E+02  0.29402515307E+02  0.00000000000E+00 0. -1.
         21    1    1    2  502  501  0.22197074290E+02  0.24846115917E+02  0.91474267112E+02  0.97352869125E+02  0.00000000000E+00 0.  1.
         21    1    1    2  503  502 -0.14996648014E+02 -0.21604193775E+02  0.11121258610E+02  0.28553861970E+02  0.00000000000E+00 0. -1.
<scales pt_clust_5="13000.00000" pt_clust_6="13000.00000" pt_clust_7="13000.00000" pt_clust_8="13000.00000" pt_clust_9="32.28676" pt_clust_10="26.29906"></scales>
<clustering>
<clus scale="   26.299">  2 10  1 -1</clus>
<clus scale="   32.287">  1  9  2 -1</clus>
<clus scale="   90.106">  7  8 -1 -1</clus>
<clus scale="   92.558">  5  6 -1 -1</clus>
<clus scale="  103.022">  1  7  2 -1</clus>
<clus scale="   26.299">  2  5  1 -1</clus>
</clustering>
</event>
<event>
10    2  0.2131218E-006  0.1316198E+03  0.7546771E-02  0.1226288E+00
          1   -1    0    0  503    0  0.00000000000E+00  0.00000000000E+00  0.39668133245E+03  0.39668133245E+03  0.00000000000E+00 0. -1.
         -1   -1    0    0    0  501 -0.00000000000E+00 -0.00000000000E+00 -0.54768997794E+03  0.54768997794E+03  0.00000000000E+00 0.  1.
         23    2    1    2    0    0  0.58215574751E+01  0.52378849120E+02 -0.29277432220E+03  0.31271208956E+03  0.96408572501E+02 0.  0.
         23    2    1    2    0    0  0.10611954617E+02 -0.75208731370E+02  0.32223384002E+03  0.34357459340E+03  0.91868856090E+02 0.  0.
        -11    1    3    3    0    0 -0.38882477417E+02  0.62332493585E+01 -0.16575180059E+03  0.17036537162E+03  0.00000000000E+00 0. -1.
         11    1    3    3    0    0  0.44704034892E+02  0.46145599761E+02 -0.12702252160E+03  0.14234671794E+03  0.00000000000E+00 0.  1.
        -13    1    4    4    0    0  0.28745903622E+02  0.10914763936E+02  0.71059888055E+02  0.77427170536E+02  0.00000000000E+00 0.  1.
         13    1    4    4    0    0 -0.18133949005E+02 -0.86123495306E+02  0.25117395197E+03  0.26614742287E+03  0.00000000000E+00 0. -1.
         21    1    1    2  502  501  0.12845445236E+02  0.38346378712E+02 -0.22721434410E+03  0.23078519967E+03  0.00000000000E+00 0. -1.
         21    1    1    2  503  502 -0.29278957329E+02 -0.15516496462E+02  0.46746180776E+02  0.57299427762E+02  0.00000000000E+00 0.  1.
<scales pt_clust_5="13000.00000" pt_clust_6="13000.00000" pt_clust_7="13000.00000" pt_clust_8="13000.00000" pt_clust_9="40.31648" pt_clust_10="33.13637"></scales>
<clustering>
<clus scale="   33.136">  1 10  2 -1</clus>
<clus scale="   40.316">  2  9  1 -1</clus>
<clus scale="   91.869">  7  8 -1 -1</clus>
<clus scale="   96.409">  5  6 -1 -1</clus>
<clus scale="  128.332">  1  7  2 -1</clus>
<clus scale="   33.136">  1  5  2 -1</clus>
</clustering>
</event>
<event>
10    2  0.1133532E-006  0.1449024E+03  0.7546771E-02  0.1224186E+00
         -1   -1    0    0    0  501 -0.00000000000E+00  0.00000000000E+00  0.56528775487E+03  0.56528775487E+03  0.00000000000E+00 0.  1.
          1   -1    0    0  503    0  0.00000000000E+00 -0.00000000000E+00 -0.55358281427E+03  0.55358281427E+03  0.00000000000E+00 0. -1.
         23    2    1    2    0    0 -0.60631281974E+02 -0.43303923032E+02 -0.32131318518E+03  0.34265408299E+03  0.92834667638E+02 0.  0.
         23    2    1    2    0    0 -0.10095892304E+02 -0.43818717486E+02 -0.19293113386E+03  0.21741693893E+03  0.89586248250E+02 0.  0.
        -11    1    4    4    0    0  0.29351456494E+02  0.95194237907E+01 -0.88207218115E+02  0.93448599536E+02  0.00000000000E+00 0.  1.
         11    1    4    4    0    0 -0.39447348798E+02 -0.53338141277E+02 -0.10472391575E+03  0.12396833939E+03  0.00000000000E+00 0. -1.
        -13    1    3    3    0    0 -0.83178207218E+02 -0.25851043664E+02 -0.27295716529E+03  0.28651789595E+03  0.00000000000E+00 0.  1.
         13    1    3    3    0    0  0.22546925244E+02 -0.17452879369E+02 -0.48356019894E+02  0.56136187048E+02  0.00000000000E+00 0. -1.
         21    1    1    2  502  501  0.45177479690E+01 -0.25413676754E+02  0.11892503479E+02  0.28420004431E+02  0.00000000000E+00 0. -1.
         21    1    1    2  503  502  0.66209426309E+02  0.11253631727E+03  0.51405675617E+03  0.53037954278E+03  0.00000000000E+00 0.  1.
<scales pt_clust_5="13000.00000" pt_clust_6="13000.00000" pt_clust_7="13000.00000" pt_clust_8="13000.00000" pt_clust_9="25.81211" pt_clust_10="111.25844"></scales>
<clustering>
<clus scale="   25.812">  1  9  2 -1</clus>
<clus scale="   89.586">  5  6 -1 -1</clus>
<clus scale="   92.835">  7  8 -1 -1</clus>
<clus scale="  100.479">  2  5  1 -1</clus>
<clus scale="  111.258">  1 10  2 -1</clus>
<clus scale="  100.479">  2  5  1 -1</clus>
</clustering>
</event>
<event>
10    2  0.1133532E-006  0.1027392E+03  0.7546771E-02  0.1274920E+00
         -1   -1    0    0    0  501 -0.00000000000E+00  0.00000000000E+00  0.57846308255E+02  0.57846308255E+02  0.00000000000E+00 0.  1.
          1   -1    0    0  503    0  0.00000000000E+00 -0.00000000000E+00 -0.53544275633E+03  0.53544275633E+03  0.00000000000E+00 0. -1.
         23    2    1    2    0    0 -0.35881324383E+02 -0.37294978238E+02 -0.47038155712E+02  0.11603345359E+03  0.92589359100E+02 0.  0.
         23    2    1    2    0    0  0.64994648855E+01  0.44187527897E+02 -0.36017985605E+03  0.37441140522E+03  0.91976034839E+02 0.  0.
        -11    1    4    4    0    0 -0.24025587118E+02  0.60260670796E+02 -0.18999632821E+03  0.20076648628E+03  0.00000000000E+00 0.  1.
         11    1    4    4    0    0  0.30525052003E+02 -0.16073142899E+02 -0.17018352784E+03  0.17364491893E+03  0.00000000000E+00 0. -1.
        -13    1    3    3    0    0  0.24390588490E+02 -0.37883354678E+02 -0.26941723096E+02  0.52496721916E+02  0.00000000000E+00 0. -1.
         13    1    3    3    0    0 -0.60271912874E+02  0.58837643951E+00 -0.20096432616E+02  0.63536731677E+02  0.00000000000E+00 0.  1.
         21    1    1    2  502  501  0.66572285547E+01  0.30456856941E+02 -0.26737201766E+02  0.41070875143E+02  0.00000000000E+00 0. -1.
         21    1    1    2  503  502  0.22724630943E+02 -0.37349406600E+02 -0.43641234542E+02  0.61773330631E+02  0.00000000000E+00 0. -1.
<scales pt_clust_5="13000.00000" pt_clust_6="13000.00000" pt_clust_7="13000.00000" pt_clust_8="13000.00000" pt_clust_9="31.17593" pt_clust_10="39.87011"></scales>
<clustering>
<clus scale="   31.176">  1  9  2 -1</clus>
<clus scale="   39.870">  1 10  2 -1</clus>
<clus scale="   91.976">  5  6 -1 -1</clus>
<clus scale="   92.589">  7  8 -1 -1</clus>
<clus scale="  102.187">  2  5  1 -1</clus>
<clus scale="  102.187">  2  5  1 -1</clus>
</clustering>
</event>
<event>
10    2  0.1133532E-006  0.1663684E+03  0.7546771E-02  0.1185254E+00
          2   -1    0    0  503    0  0.00000000000E+00  0.00000000000E+00  0.54602545233E+03  0.54602545233E+03  0.00000000000E+00 0. -1.
         -2   -1    0    0    0  501 -0.00000000000E+00 -0.00000000000E+00 -0.10703649442E+03  0.10703649442E+03  0.00000000000E+00 0.  1.
         23    2    1    2    0    0  0.85726914199E+02 -0.93019332241E+02  0.72473419784E+02  0.18439159688E+03  0.11289891247E+03 0.  0.
         23    2    1    2    0    0 -0.76224335404E+02  0.79943100932E+02  0.13677912608E+03  0.19894626161E+03  0.93113033372E+02 0.  0.
        -11    1    3    3    0    0  0.79913755029E+02 -0.10068717312E+02  0.59709315645E+02  0.10026360100E+03  0.00000000000E+00 0.  1.
         11    1    3    3    0    0  0.58131591697E+01 -0.82950614929E+02  0.12764104139E+02  0.84127995882E+02  0.00000000000E+00 0. -1.
        -13    1    4    4    0    0 -0.54830509490E+02  0.80838186045E+02  0.14597598024E+03  0.17564220421E+03  0.00000000000E+00 0. -1.
         13    1    4    4    0    0 -0.21393825914E+02 -0.89508511248E+00 -0.91968541640E+01  0.23304057396E+02  0.00000000000E+00 0.  1.
         21    1    1    2  502  501  0.73453154040E+01 -0.25954354466E+02 -0.80642519623E+01  0.28153407144E+02  0.00000000000E+00 0.  1.
         21    1    1    2  503  502 -0.16847894199E+02  0.39030585774E+02  0.23780066402E+03  0.24157068111E+03  0.00000000000E+00 0. -1.
<scales pt_clust_5="13000.00000" pt_clust_6="13000.00000" pt_clust_7="13000.00000" pt_clust_8="13000.00000" pt_clust_9="26.97373" pt_clust_10="41.94488"></scales>
<clustering>
<clus scale="   26.974">  2  9  1 -1</clus>
<clus scale="   41.945">  1 10  2 -1</clus>
<clus scale="   93.113">  7  8 -1 -1</clus>
<clus scale="  112.899">  5  6 -1 -1</clus>
<clus scale="  153.630">  1  7  2 -1</clus>
<clus scale="   41.945">  1  5  2 -1</clus>
</clustering>
</event>
<event>
10    2  0.1133532E-006  0.1262125E+03  0.7546771E-02  0.1241155E+00
          2   -1    0    0  503    0  0.00000000000E+00  0.00000000000E+00  0.83837231839E+02  0.83837231839E+02  0.00000000000E+00 0. -1.
         -2   -1    0    0    0  501 -0.00000000000E+00 -0.00000000000E+00 -0.42667645856E+03  0.42667645856E+03  0.00000000000E+00 0.  1.
         23    2    1    2    0    0  0.42561564531E+02 -0.30895962312E+02 -0.20470876255E+03  0.23847870730E+03  0.11045528104E+03 0.  0.
         23    2    1    2    0    0 -0.67861876271E+02  0.29817737899E+02 -0.60766618580E+01  0.11536593521E+03  0.88193205201E+02 0.  0.
        -11    1    4    4    0    0 -0.42928090152E+02  0.53946330185E+02  0.20201451636E+02  0.71840977950E+02  0.00000000000E+00 0. -1.
         11    1    4    4    0    0 -0.24933786119E+02 -0.24128592286E+02 -0.26278113494E+02  0.43524957263E+02  0.00000000000E+00 0.  1.
        -11    1    3    3    0    0 -0.20223713357E+02 -0.24859355780E+02 -0.96388679340E+01  0.33464816252E+02  0.00000000000E+00 0.  1.
         11    1    3    3    0    0  0.62785277888E+02 -0.60366065319E+01 -0.19506989462E+03  0.20501389105E+03  0.00000000000E+00 0. -1.
         21    1    1    2  502  501 -0.61418776227E+01 -0.19841566236E+02 -0.11199912315E+03  0.11390879685E+03  0.00000000000E+00 0.  1.
         21    1    1    2  503  502  0.31442189363E+02  0.20919790649E+02 -0.20054679157E+02  0.42760251038E+02  0.00000000000E+00 0. -1.
<scales pt_clust_5="13000.00000" pt_clust_6="13000.00000" pt_clust_7="13000.00000" pt_clust_8="13000.00000" pt_clust_9="20.77042" pt_clust_10="36.17730"></scales>
<clustering>
<clus scale="   20.770">  2  9  1 -1</clus>
<clus scale="   36.177">  1 10  2 -1</clus>
<clus scale="   88.193">  5  6 -1 -1</clus>
<clus scale="  107.272">  1  5  2 -1</clus>
<clus scale="  110.455">  7  8 -1 -1</clus>
<clus scale="   36.177">  1  5  2 -1</clus>
</clustering>
</event>
<event>
10    2  0.1133532E-006  0.1051324E+03  0.7546771E-02  0.1272817E+00
          1   -1    0    0  502    0  0.00000000000E+00  0.00000000000E+00  0.51544423129E+03  0.51544423129E+03  0.00000000000E+00 0. -1.
         -1   -1    0    0    0  501 -0.00000000000E+00 -0.00000000000E+00 -0.63086064334E+02  0.63086064334E+02  0.00000000000E+00 0.  1.
         23    2    1    2    0    0  0.24974711468E+02 -0.13862160388E+02  0.98246475614E+02  0.13479812561E+03  0.87762571712E+02 0.  0.
         23    2    1    2    0    0 -0.21930798708E+02  0.73935914083E+02  0.12694139911E+03  0.17594390640E+03  0.94311505492E+02 0.  0.
        -13    1    3    3    0    0 -0.14631845076E+02 -0.25952114294E+02  0.18112618797E+01  0.29847676564E+02  0.00000000000E+00 0.  1.
         13    1    3    3    0    0  0.39606556544E+02  0.12089953906E+02  0.96435213734E+02  0.10495044904E+03  0.00000000000E+00 0. -1.
        -13    1    4    4    0    0 -0.13149640243E+02 -0.20654378861E+02  0.13430879760E+02  0.27926778113E+02  0.00000000000E+00 0.  1.
         13    1    4    4    0    0 -0.87811584657E+01  0.94590292945E+02  0.11351051935E+03  0.14801712829E+03  0.00000000000E+00 0. -1.
         21    1    1    2  502  503  0.61902357836E+02 -0.20351329201E+02  0.93665647670E+02  0.11410228770E+03  0.00000000000E+00 0. -1.
         21    1    1    2  503  501 -0.64946270595E+02 -0.39722424494E+02  0.13350464456E+03  0.15368597591E+03  0.00000000000E+00 0.  1.
<scales pt_clust_5="13000.00000" pt_clust_6="13000.00000" pt_clust_7="13000.00000" pt_clust_8="13000.00000" pt_clust_9="65.16194" pt_clust_10="63.80810"></scales>
<clustering>
<clus scale="   65.162">  1  9  2 -1</clus>
<clus scale="   63.808">  1 10  2 -1</clus>
<clus scale="   87.763">  5  6 -1 -1</clus>
<clus scale="   94.312">  7  8 -1 -1</clus>
<clus scale="   99.300">  2  5  1 -1</clus>
<clus scale="   65.162">  1  5  2 -1</clus>
</clustering>
</event>
<event>
10    2  0.1133532E-006  0.1190428E+03  0.7546771E-02  0.1244998E+00
          3   -1    0    0  503    0  0.00000000000E+00  0.00000000000E+00  0.69602545144E+02  0.69602545144E+02  0.00000000000E+00 0. -1.
         -3   -1    0    0    0  501 -0.00000000000E+00 -0.00000000000E+00 -0.53409757051E+03  0.53409757051E+03  0.00000000000E+00 0.  1.
         23    2    1    2    0    0  0.36882646322E+02 -0.76745870156E+02 -0.25042857827E+03  0.27968287412E+03  0.90872322920E+02 0.  0.
         23    2    1    2    0    0  0.11686821878E+02  0.52097776930E+02 -0.46022912164E+02  0.11577698812E+03  0.91844664334E+02 0.  0.
        -11    1    4    4    0    0  0.42635519082E+02  0.59674798208E+02 -0.24494395395E+02  0.77322987748E+02  0.00000000000E+00 0. -1.
         11    1    4    4    0    0 -0.30948697204E+02 -0.75770212780E+01 -0.21528516769E+02  0.38454000368E+02  0.00000000000E+00 0.  1.
        -13    1    3    3    0    0  0.30464524643E+02  0.61775821507E+01 -0.26638670381E+02  0.40937373421E+02  0.00000000000E+00 0. -1.
         13    1    3    3    0    0  0.64181216791E+01 -0.82923452307E+02 -0.22378990789E+03  0.23874550070E+03  0.00000000000E+00 0.  1.
         21    1    1    2  502  501  0.20797034087E+02 -0.29957401976E+01 -0.11435906323E+03  0.11627332639E+03  0.00000000000E+00 0. -1.
         21    1    1    2  503  502 -0.69366502288E+02  0.27643833424E+02 -0.53684471693E+02  0.91966927028E+02  0.00000000000E+00 0.  1.
<scales pt_clust_5="13000.00000" pt_clust_6="13000.00000" pt_clust_7="13000.00000" pt_clust_8="13000.00000" pt_clust_9="21.01169" pt_clust_10="71.12455"></scales>
<clustering>
<clus scale="   21.012">  2  9  1 -1</clus>
<clus scale="   71.125">  1 10  2 -1</clus>
<clus scale="   90.872">  7  8 -1 -1</clus>
<clus scale="   91.845">  5  6 -1 -1</clus>
<clus scale="  118.294">  2  7  1 -1</clus>
<clus scale="   71.125">  1  5  2 -1</clus>
</clustering>
</event>
<event>
10    2  0.1133532E-006  0.1245986E+03  0.7546771E-02  0.1241977E+00
          2   -1    0    0  502    0  0.00000000000E+00  0.00000000000E+00  0.21067214345E+03  0.21067214345E+03  0.00000000000E+00 0. -1.
         -2   -1    0    0    0  501 -0.00000000000E+00 -0.00000000000E+00 -0.28593787018E+03  0.28593787018E+03  0.00000000000E+00 0.  1.
         23    2    1    2    0    0 -0.66309494829E+02  0.56368468817E+02 -0.22332938021E+03  0.25663103383E+03  0.91701265413E+02 0.  0.
         23    2    1    2    0    0  0.51330956663E+01 -0.89109829173E+02  0.96888583639E+02  0.14920693463E+03  0.70059984129E+02 0.  0.
        -11    1    3    3    0    0 -0.62810858361E+02 -0.66802426392E+01 -0.10621088973E+03  0.12357419903E+03  0.00000000000E+00 0. -1.
         11    1    3    3    0    0 -0.34986364681E+01  0.63048711456E+02 -0.11711849048E+03  0.13305683480E+03  0.00000000000E+00 0.  1.
        -11    1    4    4    0    0 -0.22858869003E+02 -0.52226260981E+02  0.21892730667E+02  0.61068829072E+02  0.00000000000E+00 0.  1.
         11    1    4    4    0    0  0.27991964669E+02 -0.36883568192E+02  0.74995852972E+02  0.88138105560E+02  0.00000000000E+00 0. -1.
         21    1    1    2  502  503  0.24268087969E+02  0.18739812097E+02  0.68497777829E+01  0.31417194445E+02  0.00000000000E+00 0.  1.
         21    1    1    2  503  501  0.36908311193E+02  0.14001548259E+02  0.44325292059E+02  0.59354850728E+02  0.00000000000E+00 0. -1.
<scales pt_clust_5="13000.00000" pt_clust_6="13000.00000" pt_clust_7="13000.00000" pt_clust_8="13000.00000" pt_clust_9="25.02289" pt_clust_10="74.97117"></scales>
<clustering>
<clus scale="   25.023">  9 10 -1 -1</clus>
<clus scale="   70.060">  7  8 -1 -1</clus>
<clus scale="   74.971">  1  9  2 -1</clus>
<clus scale="   91.701">  5  6 -1 -1</clus>
<clus scale="  109.654">  1  7  2 -1</clus>
<clus scale="   74.971">  1  5  2 -1</clus>
</clustering>
</event>
<event>
10    2  0.1140406E-006  0.2389999E+03  0.7546771E-02  0.1120482E+00
          2   -1    0    0  503    0  0.00000000000E+00  0.00000000000E+00  0.11665873955E+04  0.11665873955E+04  0.00000000000E+00 0. -1.
         -2   -1    0    0    0  501 -0.00000000000E+00 -0.00000000000E+00 -0.18145322285E+03  0.18145322285E+03  0.00000000000E+00 0.  1.
         23    2    1    2    0    0 -0.20740050332E+03  0.60818736263E+02  0.10632560595E+01  0.23471499809E+03  0.91521103331E+02 0.  0.
         23    2    1    2    0    0  0.21077436798E+03 -0.10583797444E+02  0.94900376327E+03  0.97645290364E+03  0.91182670284E+02 0.  0.
        -11    1    4    4    0    0  0.14484917672E+03 -0.45642120876E+02  0.70983918555E+03  0.72590368268E+03  0.00000000000E+00 0.  1.
         11    1    4    4    0    0  0.65925191265E+02  0.35058323432E+02  0.23916457772E+03  0.25054922096E+03  0.00000000000E+00 0. -1.
        -11    1    3    3    0    0 -0.17699749097E+03  0.82221691259E+02  0.13185555439E+02  0.19560771251E+03  0.00000000000E+00 0.  1.
         11    1    3    3    0    0 -0.30403012352E+02 -0.21402954995E+02 -0.12122299380E+02  0.39107285573E+02  0.00000000000E+00 0. -1.
         21    1    1    2  502  501 -0.12869620324E+02 -0.23034440057E+02 -0.44786272640E+02  0.51980984725E+02  0.00000000000E+00 0.  1.
         21    1    1    2  503  502  0.94957556650E+01 -0.27200498763E+02  0.79853425984E+02  0.84891731929E+02  0.00000000000E+00 0. -1.
<scales pt_clust_5="13000.00000" pt_clust_6="13000.00000" pt_clust_7="13000.00000" pt_clust_8="13000.00000" pt_clust_9="26.38584" pt_clust_10="29.14415"></scales>
<clustering>
<clus scale="   26.386">  2  9  1 -1</clus>
<clus scale="   29.144">  1 10  2 -1</clus>
<clus scale="   91.183">  5  6 -1 -1</clus>
<clus scale="   91.521">  7  8 -1 -1</clus>
<clus scale="  238.871">  1  5  2 -1</clus>
<clus scale="   29.144">  1  5  2 -1</clus>
</clustering>
</event>
<event>
10    2  0.1133532E-006  0.1116663E+03  0.7546771E-02  0.1258153E+00
         -1   -1    0    0    0  501 -0.00000000000E+00  0.00000000000E+00  0.24548966163E+03  0.24548966163E+03  0.00000000000E+00 0.  1.
          1   -1    0    0  503    0  0.00000000000E+00 -0.00000000000E+00 -0.46017995541E+03  0.46017995541E+03  0.00000000000E+00 0. -1.
         23    2    1    2    0    0  0.50102264183E+02  0.46222207189E+02  0.42012700044E+02  0.12205482823E+03  0.92117234081E+02 0.  0.
         23    2    1    2    0    0 -0.43685574406E+02 -0.23897275561E+02 -0.86091516653E+01  0.10358157333E+03  0.90418558111E+02 0.  0.
        -11    1    4    4    0    0 -0.29261883230E+02  0.23564734109E+01  0.38096559587E+02  0.48095307770E+02  0.00000000000E+00 0.  1.
         11    1    4    4    0    0 -0.14423691175E+02 -0.26253748972E+02 -0.46705711253E+02  0.55486265560E+02  0.00000000000E+00 0. -1.
        -13    1    3    3    0    0 -0.77648670051E+00  0.45322891354E+02  0.53261501248E+02  0.69939652040E+02  0.00000000000E+00 0. -1.
         13    1    3    3    0    0  0.50878750884E+02  0.89931583511E+00 -0.11248801204E+02  0.52115176187E+02  0.00000000000E+00 0.  1.
         21    1    1    2  502  501  0.35379543152E+02  0.16792929164E+02  0.11032592649E+03  0.11707059664E+03  0.00000000000E+00 0. -1.
         21    1    1    2  503  502 -0.41796232929E+02 -0.39117860792E+02 -0.35841976864E+03  0.36296261884E+03  0.00000000000E+00 0. -1.
<scales pt_clust_5="13000.00000" pt_clust_6="13000.00000" pt_clust_7="13000.00000" pt_clust_8="13000.00000" pt_clust_9="39.16267" pt_clust_10="56.60364"></scales>
<clustering>
<clus scale="   39.163">  1  9  2 -1</clus>
<clus scale="   56.604">  2 10  1 -1</clus>
<clus scale="   90.419">  5  6 -1 -1</clus>
<clus scale="   92.117">  7  8 -1 -1</clus>
<clus scale="  110.269">  2  5  1 -1</clus>
<clus scale="   56.604">  2  5  1 -1</clus>
</clustering>
</event>
<event>
10    2  0.1133532E-006  0.1487364E+03  0.7546771E-02  0.1203075E+00
          2   -1    0    0  503    0  0.00000000000E+00  0.00000000000E+00  0.24905977892E+03  0.24905977892E+03  0.00000000000E+00 0. -1.
         -2   -1    0    0    0  501 -0.00000000000E+00 -0.00000000000E+00 -0.19228303520E+03  0.19228303520E+03  0.00000000000E+00 0.  1.
         23    2    1    2    0    0 -0.11732379487E+03 -0.39698040574E+02 -0.93813964063E+02  0.18123418768E+03  0.93295035584E+02 0.  0.
         23    2    1    2    0    0  0.99708391675E+02  0.39848723230E+01  0.10854570573E+03  0.17166999941E+03  0.87924830888E+02 0.  0.
        -11    1    3    3    0    0 -0.62727231376E+02  0.26528178644E+02 -0.30745308287E+02  0.74724318664E+02  0.00000000000E+00 0.  1.
         11    1    3    3    0    0 -0.54596563491E+02 -0.66226219218E+02 -0.63068655777E+02  0.10650986902E+03  0.00000000000E+00 0. -1.
        -13    1    4    4    0    0  0.12783891212E+02  0.24776177642E+02  0.68064945007E+02  0.73553542348E+02  0.00000000000E+00 0. -1.
         13    1    4    4    0    0  0.86924500462E+02 -0.20791305319E+02  0.40480760724E+02  0.98116457062E+02  0.00000000000E+00 0.  1.
         21    1    1    2  502  501 -0.46131165334E+01  0.30604073386E+02 -0.92490766549E+01  0.32302253341E+02  0.00000000000E+00 0.  1.
         21    1    1    2  503  502  0.22228519725E+02  0.51090948654E+01  0.51294078708E+02  0.56136373681E+02  0.00000000000E+00 0.  1.
<scales pt_clust_5="13000.00000" pt_clust_6="13000.00000" pt_clust_7="13000.00000" pt_clust_8="13000.00000" pt_clust_9="31.08138" pt_clust_10="22.80811"></scales>
<clustering>
<clus scale="   22.808">  1 10  2 -1</clus>
<clus scale="   31.081">  2  9  1 -1</clus>
<clus scale="   87.925">  7  8 -1 -1</clus>
<clus scale="   93.295">  5  6 -1 -1</clus>
<clus scale="  145.428">  1  7  2 -1</clus>
<clus scale="   22.808">  1  5  2 -1</clus>
</clustering>
</event>
<event>
10    2  0.1133532E-006  0.1130834E+03  0.7546771E-02  0.1259151E+00
          2   -1    0    0  503    0  0.00000000000E+00  0.00000000000E+00  0.29564958282E+03  0.29564958282E+03  0.00000000000E+00 0. -1.
         -2   -1    0    0    0  501 -0.00000000000E+00 -0.00000000000E+00 -0.27177104020E+03  0.27177104020E+03  0.00000000000E+00 0.  1.
         23    2    1    2    0    0 -0.86126565730E+02  0.19882333345E+02  0.93478406064E+02  0.15800458556E+03  0.91728644133E+02 0.  0.
         23    2    1    2    0    0  0.54698673203E+02  0.13369525175E+02  0.10281453233E+03  0.14214927785E+03  0.80404602358E+02 0.  0.
        -11    1    4    4    0    0  0.29991989023E+02  0.15959977870E+02  0.11092937010E+03  0.11601536730E+03  0.00000000000E+00 0. -1.
         11    1    4    4    0    0  0.24706684180E+02 -0.25904526945E+01 -0.81148377694E+01  0.26133910545E+02  0.00000000000E+00 0.  1.
        -13    1    3    3    0    0 -0.43811982417E+01 -0.30257790477E+02  0.31059259326E+02  0.43582179529E+02  0.00000000000E+00 0.  1.
         13    1    3    3    0    0 -0.81745367488E+02  0.50140123822E+02  0.62419146738E+02  0.11442240603E+03  0.00000000000E+00 0. -1.
         21    1    1    2  502  501  0.41879111692E+02  0.61949587627E+01 -0.20852309069E+03  0.21277715305E+03  0.00000000000E+00 0.  1.
         21    1    1    2  503  502 -0.10451219165E+02 -0.39446817283E+02  0.36108694911E+02  0.54489606568E+02  0.00000000000E+00 0.  1.
<scales pt_clust_5="13000.00000" pt_clust_6="13000.00000" pt_clust_7="13000.00000" pt_clust_8="13000.00000" pt_clust_9="42.19915" pt_clust_10="40.80783"></scales>
<clustering>
<clus scale="   40.808">  1 10  2 -1</clus>
<clus scale="   42.199">  2  9  1 -1</clus>
<clus scale="   80.405">  5  6 -1 -1</clus>
<clus scale="   91.729">  7  8 -1 -1</clus>
<clus scale="  104.109">  1  5  2 -1</clus>
<clus scale="   40.808">  1  5  2 -1</clus>
</clustering>
</event>
<event>
10    2  0.1133532E-006  0.2407687E+03  0.7546771E-02  0.1119384E+00
         -2   -1    0    0    0  501 -0.00000000000E+00  0.00000000000E+00  0.46863633558E+03  0.46863633558E+03  0.00000000000E+00 0.  1.
          2   -1    0    0  503    0  0.00000000000E+00 -0.00000000000E+00 -0.27951898365E+03  0.27951898365E+03  0.00000000000E+00 0. -1.
         23    2    1    2    0    0  0.18239104154E+03  0.14088070851E+03  0.27325713298E+03  0.36902153119E+03  0.91616394232E+02 0.  0.
         23    2    1    2    0    0 -0.11605122114E+03 -0.18633763872E+03 -0.10271698316E+03  0.25853264750E+03  0.89993053410E+02 0.  0.
        -11    1    3    3    0    0  0.17562938611E+02  0.16612179564E+02 -0.27830706872E+01  0.24334477700E+02  0.00000000000E+00 0. -1.
         11    1    3    3    0    0  0.16482810293E+03  0.12426852894E+03  0.27604020367E+03  0.34468705349E+03  0.00000000000E+00 0.  1.
        -13    1    4    4    0    0 -0.97101573760E+02 -0.13930625012E+03 -0.11656906103E+03  0.20596915531E+03  0.00000000000E+00 0. -1.
         13    1    4    4    0    0 -0.18949647375E+02 -0.47031388599E+02  0.13852077877E+02  0.52563492185E+02  0.00000000000E+00 0.  1.
         21    1    1    2  502  501 -0.23287285316E+02  0.16328943926E+02  0.51669926229E+02  0.58980618373E+02  0.00000000000E+00 0.  1.
         21    1    1    2  503  502 -0.43052535086E+02  0.29127986287E+02 -0.33092724123E+02  0.61620522168E+02  0.00000000000E+00 0. -1.
<scales pt_clust_5="13000.00000" pt_clust_6="13000.00000" pt_clust_7="13000.00000" pt_clust_8="13000.00000" pt_clust_9="28.44173" pt_clust_10="52.96181"></scales>
<clustering>
<clus scale="   28.442">  1  9  2 -1</clus>
<clus scale="   52.962">  2 10  1 -1</clus>
<clus scale="   89.993">  7  8 -1 -1</clus>
<clus scale="   91.616">  5  6 -1 -1</clus>
<clus scale="  240.156">  2  7  1 -1</clus>
<clus scale="   52.962">  2  5  1 -1</clus>
</clustering>
</event>
<event>
10    2  0.1133532E-006  0.9546179E+02  0.7546771E-02  0.1291286E+00
          1   -1    0    0  503    0  0.00000000000E+00  0.00000000000E+00  0.14549112704E+03  0.14549112704E+03  0.00000000000E+00 0. -1.
         -1   -1    0    0    0  501 -0.00000000000E+00 -0.00000000000E+00 -0.23385055629E+03  0.23385055629E+03  0.00000000000E+00 0.  1.
         23    2    1    2    0    0  0.84168580787E+01  0.13786670619E+02 -0.97562244103E+02  0.13500143199E+03  0.91902553708E+02 0.  0.
         23    2    1    2    0    0 -0.22190873085E+02  0.18037148001E+02  0.30831194848E+01  0.98265271684E+02  0.93961611507E+02 0.  0.
        -11    1    3    3    0    0  0.42674974530E+02 -0.88481880609E+01 -0.21576021155E+02  0.48630942537E+02  0.00000000000E+00 0.  1.
         11    1    3    3    0    0 -0.34258116452E+02  0.22634858679E+02 -0.75986222949E+02  0.86370489452E+02  0.00000000000E+00 0. -1.
        -13    1    4    4    0    0  0.92543916268E+01  0.39154161840E+02 -0.28206162111E+02  0.49135320645E+02  0.00000000000E+00 0.  1.
         13    1    4    4    0    0 -0.31445264712E+02 -0.21117013839E+02  0.31289281596E+02  0.49129951039E+02  0.00000000000E+00 0. -1.
         21    1    1    2  502  501 -0.84039793275E+01  0.25467322298E+02 -0.53890745109E+02  0.60194881693E+02  0.00000000000E+00 0. -1.
         21    1    1    2  503  502  0.22177994334E+02 -0.57291140917E+02  0.60010440479E+02  0.85880097967E+02  0.00000000000E+00 0. -1.
<scales pt_clust_5="13000.00000" pt_clust_6="13000.00000" pt_clust_7="13000.00000" pt_clust_8="13000.00000" pt_clust_9="26.81812" pt_clust_10="59.47466"></scales>
<clustering>
<clus scale="   26.818">  2  9  1 -1</clus>
<clus scale="   59.475">  1 10  2 -1</clus>
<clus scale="   91.903">  5  6 -1 -1</clus>
<clus scale="   93.436">  2  5  1 -1</clus>
<clus scale="   93.962">  7  8 -1 -1</clus>
<clus scale="   59.475">  1  5  2 -1</clus>
</clustering>
</event>
<event>
10    2  0.1133532E-006  0.1491601E+03  0.7546771E-02  0.1201594E+00
         -1   -1    0    0    0  501 -0.00000000000E+00  0.00000000000E+00  0.56382121502E+03  0.56382121502E+03  0.00000000000E+00 0.  1.
          1   -1    0    0  503    0  0.00000000000E+00 -0.00000000000E+00 -0.39617939952E+03  0.39617939952E+03  0.00000000000E+00 0. -1.
         23    2    1    2    0    0  0.95808719313E+02  0.54547621045E+02  0.19331975029E+03  0.24027299098E+03  0.90575000316E+02 0.  0.
         23    2    1    2    0    0 -0.14912141214E+03 -0.43117389469E+02  0.12938438749E+03  0.22163505889E+03  0.91024583328E+02 0.  0.
        -11    1    4    4    0    0  0.34508358307E+01 -0.20632025132E+02  0.35148593697E+02  0.40902473860E+02  0.00000000000E+00 0.  1.
         11    1    4    4    0    0 -0.15257224797E+03 -0.22485364337E+02  0.94235793794E+02  0.18073258503E+03  0.00000000000E+00 0. -1.
        -13    1    3    3    0    0  0.81466266926E+02  0.72791711334E+02  0.18640035927E+03  0.21605665882E+03  0.00000000000E+00 0.  1.
         13    1    3    3    0    0  0.14342452386E+02 -0.18244090290E+02  0.69193910248E+01  0.24216332156E+02  0.00000000000E+00 0. -1.
         21    1    1    2  502  501 -0.13987881310E+02 -0.15685899349E+02  0.16736973949E+03  0.16868413666E+03  0.00000000000E+00 0.  1.
         21    1    1    2  503  502  0.67300574135E+02  0.42556677728E+01 -0.32243206178E+03  0.32940842802E+03  0.00000000000E+00 0. -1.
<scales pt_clust_5="13000.00000" pt_clust_6="13000.00000" pt_clust_7="13000.00000" pt_clust_8="13000.00000" pt_clust_9="21.01686" pt_clust_10="67.30336"></scales>
<clustering>
<clus scale="   21.017">  1  9  2 -1</clus>
<clus scale="   67.303">  2 10  1 -1</clus>
<clus scale="   90.575">  7  8 -1 -1</clus>
<clus scale="   91.025">  5  6 -1 -1</clus>
<clus scale="  148.886">  1  7  2 -1</clus>
<clus scale="   67.303">  2  5  1 -1</clus>
</clustering>
</event>
<event>
10    2  0.1133532E-006  0.1652004E+03  0.7546771E-02  0.1184394E+00
          3   -1    0    0  503    0  0.00000000000E+00  0.00000000000E+00  0.59434678334E+03  0.59434678334E+03  0.00000000000E+00 0. -1.
         -3   -1    0    0    0  501 -0.00000000000E+00 -0.00000000000E+00 -0.89485118007E+02  0.89485118007E+02  0.00000000000E+00 0.  1.
         23    2    1    2    0    0 -0.13626492466E+03  0.30304289677E+02  0.10559607870E+03  0.19358129932E+03  0.82684387555E+02 0.  0.
         23    2    1    2    0    0  0.13789656326E+03  0.55894934526E+02  0.20834651854E+03  0.27219906007E+03  0.92435656825E+02 0.  0.
        -11    1    4    4    0    0  0.17442883556E+02 -0.12412041322E+02  0.81993888274E+02  0.84742614255E+02  0.00000000000E+00 0. -1.
         11    1    4    4    0    0  0.12045367970E+03  0.68306975848E+02  0.12635263027E+03  0.18745644582E+03  0.00000000000E+00 0.  1.
        -11    1    3    3    0    0 -0.41729379082E+02  0.39893199143E+02  0.73122422110E+02  0.93164891625E+02  0.00000000000E+00 0.  1.
         11    1    3    3    0    0 -0.94535545574E+02 -0.95889094659E+01  0.32473656586E+02  0.10041640769E+03  0.00000000000E+00 0. -1.
         21    1    1    2  502  501  0.77398734363E+01 -0.64377334085E+02  0.72462188709E+02  0.97237418606E+02  0.00000000000E+00 0. -1.
         21    1    1    2  503  502 -0.93715120413E+01 -0.21821890118E+02  0.11845687939E+03  0.12081412335E+03  0.00000000000E+00 0.  1.
<scales pt_clust_5="13000.00000" pt_clust_6="13000.00000" pt_clust_7="13000.00000" pt_clust_8="13000.00000" pt_clust_9="68.54660" pt_clust_10="23.74911"></scales>
<clustering>
<clus scale="   23.749">  1 10  2 -1</clus>
<clus scale="   68.547">  1  9  2 -1</clus>
<clus scale="   82.684">  7  8 -1 -1</clus>
<clus scale="   92.436">  5  6 -1 -1</clus>
<clus scale="  159.948">  2  7  1 -1</clus>
<clus scale="   23.749">  1  5  2 -1</clus>
</clustering>
</event>
<event>
10    2  0.1133532E-006  0.1762367E+03  0.7546771E-02  0.1188023E+00
          2   -1    0    0  503    0  0.00000000000E+00  0.00000000000E+00  0.57153631439E+03  0.57153631439E+03  0.00000000000E+00 0. -1.
         -2   -1    0    0    0  501 -0.00000000000E+00 -0.00000000000E+00 -0.24671658406E+03  0.24671658406E+03  0.00000000000E+00 0.  1.
         23    2    1    2    0    0  0.53631375182E+02  0.57697631297E+02 -0.68530175891E+02  0.13851963675E+03  0.91027268965E+02 0.  0.
         23    2    1    2    0    0  0.59027292164E+02 -0.14013558796E+03  0.38918291887E+03  0.42833326908E+03  0.94254128952E+02 0.  0.
        -11    1    3    3    0    0  0.61186295475E+02  0.27791676983E+01 -0.52876922644E+02  0.80916348628E+02  0.00000000000E+00 0. -1.
         11    1    3    3    0    0 -0.75549202929E+01  0.54918463599E+02 -0.15653253247E+02  0.57603288117E+02  0.00000000000E+00 0.  1.
        -13    1    4    4    0    0  0.30291439828E+02 -0.16651942945E+02  0.24852629651E+02  0.42573603692E+02  0.00000000000E+00 0.  1.
         13    1    4    4    0    0  0.28735852336E+02 -0.12348364502E+03  0.36433028922E+03  0.38575966539E+03  0.00000000000E+00 0. -1.
         21    1    1    2  502  501 -0.13560563664E+03  0.70395366021E+02 -0.73482064201E+02  0.16954058513E+03  0.00000000000E+00 0.  1.
         21    1    1    2  503  502  0.22946969299E+02  0.12042590642E+02  0.77649051546E+02  0.81859407494E+02  0.00000000000E+00 0. -1.
<scales pt_clust_5="13000.00000" pt_clust_6="13000.00000" pt_clust_7="13000.00000" pt_clust_8="13000.00000" pt_clust_9="148.91452" pt_clust_10="25.91500"></scales>
<clustering>
<clus scale="   25.915">  1 10  2 -1</clus>
<clus scale="   91.027">  5  6 -1 -1</clus>
<clus scale="   94.254">  7  8 -1 -1</clus>
<clus scale="  121.527">  2  5  1 -1</clus>
<clus scale="  148.915">  2  9  1 -1</clus>
<clus scale="   25.915">  1  5  2 -1</clus>
</clustering>
</event>
<event>
10    2  0.1133532E-006  0.1059495E+03  0.7546771E-02  0.1274146E+00
         -2   -1    0    0    0  501 -0.00000000000E+00  0.00000000000E+00  0.87011488155E+03  0.87011488155E+03  0.00000000000E+00 0.  1.
          2   -1    0    0  503    0  0.00000000000E+00 -0.00000000000E+00 -0.27844676886E+02  0.27844676886E+02  0.00000000000E+00 0. -1.
         23    2    1    2    0    0 -0.15452168092E+01  0.19703398021E+02  0.58222701083E+03  0.59207621946E+03  0.10571350875E+03 0.  0.
         23    2    1    2    0    0  0.11616365547E+02 -0.58403417409E+01  0.11617882479E+03  0.15020117910E+03  0.94307079973E+02 0.  0.
        -11    1    4    4    0    0  0.30823085608E+02  0.29452752602E+02  0.22360723564E+02  0.48140722891E+02  0.00000000000E+00 0.  1.
         11    1    4    4    0    0 -0.19206720061E+02 -0.35293094343E+02  0.93818101224E+02  0.10206045621E+03  0.00000000000E+00 0. -1.
        -11    1    3    3    0    0 -0.42677589241E+02 -0.22766975225E+02  0.27108436693E+03  0.27536602146E+03  0.00000000000E+00 0. -1.
         11    1    3    3    0    0  0.41132372432E+02  0.42470373247E+02  0.31114264390E+03  0.31671019800E+03  0.00000000000E+00 0.  1.
         21    1    1    2  502  501  0.10679379482E+02 -0.17178774903E+02  0.12737509551E+03  0.12897121543E+03  0.00000000000E+00 0. -1.
         21    1    1    2  503  502 -0.20750528219E+02  0.33157186224E+01  0.16489273547E+02  0.26710944451E+02  0.00000000000E+00 0. -1.
<scales pt_clust_5="13000.00000" pt_clust_6="13000.00000" pt_clust_7="13000.00000" pt_clust_8="13000.00000" pt_clust_9="20.22769" pt_clust_10="20.63264"></scales>
<clustering>
<clus scale="   20.228">  1  9  2 -1</clus>
<clus scale="   20.633">  2 10  1 -1</clus>
<clus scale="   94.307">  5  6 -1 -1</clus>
<clus scale="   94.572">  2  5  1 -1</clus>
<clus scale="  105.714">  7  8 -1 -1</clus>
<clus scale="   20.633">  2  5  1 -1</clus>
</clustering>
</event>
<event>
10    2  0.1133532E-006  0.1002307E+03  0.7546771E-02  0.1280104E+00
          2   -1    0    0  503    0  0.00000000000E+00  0.00000000000E+00  0.18406425541E+03  0.18406425541E+03  0.00000000000E+00 0. -1.
         -2   -1    0    0    0  501 -0.00000000000E+00 -0.00000000000E+00 -0.39074703088E+03  0.39074703088E+03  0.00000000000E+00 0.  1.
         23    2    1    2    0    0  0.11339500346E+02  0.21034869880E+01 -0.20433923235E+03  0.22443685341E+03  0.92110641973E+02 0.  0.
         23    2    1    2    0    0 -0.49978123847E+02  0.38260298981E+02 -0.84537955317E+02  0.13957648940E+03  0.91505558098E+02 0.  0.
        -11    1    4    4    0    0 -0.25465607961E+02 -0.28025027054E+02 -0.15935517742E+02  0.41083330633E+02  0.00000000000E+00 0. -1.
         11    1    4    4    0    0 -0.24512515886E+02  0.66285326035E+02 -0.68602437575E+02  0.98493158767E+02  0.00000000000E+00 0.  1.
        -11    1    3    3    0    0  0.33798557424E+02  0.36463985261E+02 -0.13491522676E+03  0.14378485009E+03  0.00000000000E+00 0. -1.
         11    1    3    3    0    0 -0.22459057078E+02 -0.34360498273E+02 -0.69424005598E+02  0.80652003321E+02  0.00000000000E+00 0.  1.
         21    1    1    2  502  501  0.45779675864E+02  0.17839022144E+02 -0.47577072083E+02  0.68392888675E+02  0.00000000000E+00 0. -1.
         21    1    1    2  503  502 -0.71410523630E+01 -0.58202808113E+02  0.12977148429E+03  0.14240505481E+03  0.00000000000E+00 0. -1.
<scales pt_clust_5="13000.00000" pt_clust_6="13000.00000" pt_clust_7="13000.00000" pt_clust_8="13000.00000" pt_clust_9="49.13257" pt_clust_10="58.20310"></scales>
<clustering>
<clus scale="   49.133">  2  9  1 -1</clus>
<clus scale="   58.203">  1 10  2 -1</clus>
<clus scale="   91.506">  5  6 -1 -1</clus>
<clus scale="   92.111">  7  8 -1 -1</clus>
<clus scale="   99.675">  1  5  2 -1</clus>
<clus scale="   58.203">  1  5  2 -1</clus>
</clustering>
</event>
<event>
10    2  0.1133532E-006  0.1022573E+03  0.7546771E-02  0.1275930E+00
         -1   -1    0    0    0  501 -0.00000000000E+00  0.00000000000E+00  0.19207006259E+03  0.19207006259E+03  0.00000000000E+00 0.  1.
          1   -1    0    0  503    0  0.00000000000E+00 -0.00000000000E+00 -0.25209016135E+03  0.25209016135E+03  0.00000000000E+00 0. -1.
         23    2    1    2    0    0 -0.85268422496E+01  0.73964197906E+02  0.16401328699E+02  0.11904371381E+03  0.91427526505E+02 0.  0.
         23    2    1    2    0    0 -0.32948535756E+02 -0.17854896231E+02 -0.11430546375E+03  0.15150220137E+03  0.92101979606E+02 0.  0.
        -11    1    4    4    0    0 -0.45406346201E+02 -0.47818488110E+02 -0.86500695592E+02  0.10876908760E+03  0.00000000000E+00 0.  1.
         11    1    4    4    0    0  0.12457810445E+02  0.29963591879E+02 -0.27804768160E+02  0.42733113762E+02  0.00000000000E+00 0. -1.
        -13    1    3    3    0    0 -0.37359911854E+02  0.26119763417E+02 -0.22634373748E+02  0.50895185722E+02  0.00000000000E+00 0.  1.
         13    1    3    3    0    0  0.28833069604E+02  0.47844434489E+02  0.39035702448E+02  0.68148528084E+02  0.00000000000E+00 0. -1.
         21    1    1    2  502  501 -0.75291362731E+01 -0.33196175935E+02  0.91391964210E+02  0.97525202444E+02  0.00000000000E+00 0.  1.
         21    1    1    2  503  502  0.49004514279E+02 -0.22913125740E+02 -0.53507927922E+02  0.76089106325E+02  0.00000000000E+00 0. -1.
<scales pt_clust_5="13000.00000" pt_clust_6="13000.00000" pt_clust_7="13000.00000" pt_clust_8="13000.00000" pt_clust_9="34.03930" pt_clust_10="55.06871"></scales>
<clustering>
<clus scale="   34.039">  1  9  2 -1</clus>
<clus scale="   55.069">  2 10  1 -1</clus>
<clus scale="   91.428">  7  8 -1 -1</clus>
<clus scale="   92.102">  5  6 -1 -1</clus>
<clus scale="  101.650">  1  7  2 -1</clus>
<clus scale="   55.069">  2  5  1 -1</clus>
</clustering>
</event>
<event>
10    2  0.1133532E-006  0.1424135E+03  0.7546771E-02  0.1210162E+00
          2   -1    0    0  503    0  0.00000000000E+00  0.00000000000E+00  0.28467443249E+03  0.28467443249E+03  0.00000000000E+00 0. -1.
         -2   -1    0    0    0  501 -0.00000000000E+00 -0.00000000000E+00 -0.18268990896E+03  0.18268990896E+03  0.00000000000E+00 0.  1.
         23    2    1    2    0    0 -0.80269206616E+02 -0.74333594201E+02  0.34698688918E+02  0.14635102223E+03  0.90807455292E+02 0.  0.
         23    2    1    2    0    0  0.83286705912E+02  0.70805026868E+02  0.54252472087E+02  0.15199180911E+03  0.90598852625E+02 0.  0.
        -11    1    4    4    0    0  0.81829909538E+02  0.45979594587E+02  0.17292770412E+01  0.93878898654E+02  0.00000000000E+00 0. -1.
         11    1    4    4    0    0  0.14567963734E+01  0.24825432281E+02  0.52523195046E+02  0.58112910454E+02  0.00000000000E+00 0.  1.
        -11    1    3    3    0    0 -0.12063745058E+02 -0.41571915396E+02 -0.24984551949E+02  0.49979855248E+02  0.00000000000E+00 0.  1.
         11    1    3    3    0    0 -0.68205461557E+02 -0.32761678806E+02  0.59683240867E+02  0.96371166979E+02  0.00000000000E+00 0. -1.
         21    1    1    2  502  501 -0.28413604827E+02  0.18042535837E+02 -0.71794180128E+02  0.79292309456E+02  0.00000000000E+00 0.  1.
         21    1    1    2  503  502  0.25396105531E+02 -0.14513968504E+02  0.84827542654E+02  0.89729200657E+02  0.00000000000E+00 0. -1.
<scales pt_clust_5="13000.00000" pt_clust_6="13000.00000" pt_clust_7="13000.00000" pt_clust_8="13000.00000" pt_clust_9="33.10314" pt_clust_10="29.25094"></scales>
<clustering>
<clus scale="   29.251">  1 10  2 -1</clus>
<clus scale="   33.103">  2  9  1 -1</clus>
<clus scale="   90.599">  5  6 -1 -1</clus>
<clus scale="   90.807">  7  8 -1 -1</clus>
<clus scale="  142.281">  1  5  2 -1</clus>
<clus scale="   29.251">  1  5  2 -1</clus>
</clustering>
</event>
<event>
10    2  0.1133532E-006  0.1584406E+03  0.7546771E-02  0.1191740E+00
          1   -1    0    0  503    0  0.00000000000E+00  0.00000000000E+00  0.49299518104E+03  0.49299518104E+03  0.00000000000E+00 0. -1.
         -1   -1    0    0    0  501 -0.00000000000E+00 -0.00000000000E+00 -0.15916470001E+03  0.15916470001E+03  0.00000000000E+00 0.  1.
         23    2    1    2    0    0  0.14515439455E+03 -0.18427078683E+02  0.59242283738E+02  0.17803394543E+03  0.82323034782E+02 0.  0.
         23    2    1    2    0    0 -0.91666089792E+02 -0.11213476988E+03  0.13760499083E+03  0.21922059547E+03  0.90253295473E+02 0.  0.
        -13    1    4    4    0    0 -0.22828510490E+02 -0.34282617367E+02  0.10094243375E+03  0.10902207885E+03  0.00000000000E+00 0. -1.
         13    1    4    4    0    0 -0.68837579302E+02 -0.77852152510E+02  0.36662557084E+02  0.11019851663E+03  0.00000000000E+00 0.  1.
        -13    1    3    3    0    0  0.11170784938E+02  0.24714233947E+02  0.89051948988E+01  0.28546143206E+02  0.00000000000E+00 0. -1.
         13    1    3    3    0    0  0.13398360961E+03 -0.43141312631E+02  0.50337088839E+02  0.14948780222E+03  0.00000000000E+00 0.  1.
         21    1    1    2  502  501 -0.27528450994E+02  0.12796685768E+03  0.16853020533E+02  0.13197483313E+03  0.00000000000E+00 0. -1.
         21    1    1    2  503  502 -0.25959853765E+02  0.25949908762E+01  0.12013018593E+03  0.12293050702E+03  0.00000000000E+00 0. -1.
<scales pt_clust_5="13000.00000" pt_clust_6="13000.00000" pt_clust_7="13000.00000" pt_clust_8="13000.00000" pt_clust_9="132.58964" pt_clust_10="26.08923"></scales>
<clustering>
<clus scale="   26.089">  1 10  2 -1</clus>
<clus scale="   82.323">  7  8 -1 -1</clus>
<clus scale="   90.253">  5  6 -1 -1</clus>
<clus scale="  132.590">  2  9  1 -1</clus>
<clus scale="  154.061">  2  7  1 -1</clus>
<clus scale="   26.089">  1  5  2 -1</clus>
</clustering>
</event>
<event>
10    2  0.1133532E-006  0.3235212E+03  0.7546771E-02  0.1074255E+00
         -1   -1    0    0    0  501 -0.00000000000E+00  0.00000000000E+00  0.84933666136E+03  0.84933666136E+03  0.00000000000E+00 0.  1.
          1   -1    0    0  503    0  0.00000000000E+00 -0.00000000000E+00 -0.27530364812E+03  0.27530364812E+03  0.00000000000E+00 0. -1.
         23    2    1    2    0    0 -0.90771840147E+02 -0.33088604109E+03  0.60368519298E+03  0.70030882990E+03  0.90948039300E+02 0.  0.
         23    2    1    2    0    0  0.32038092391E+02  0.29641463507E+03 -0.58207229598E+02  0.31900580279E+03  0.97409164788E+02 0.  0.
        -11    1    3    3    0    0 -0.10697585956E+03 -0.30565415141E+03  0.53518938957E+03  0.62553655170E+03  0.00000000000E+00 0.  1.
         11    1    3    3    0    0  0.16204019410E+02 -0.25231889683E+02  0.68495803412E+02  0.74772278199E+02  0.00000000000E+00 0. -1.
        -11    1    4    4    0    0  0.11455208316E+02  0.49074979013E+02  0.26267586047E+02  0.56829230502E+02  0.00000000000E+00 0.  1.
         11    1    4    4    0    0  0.20582884075E+02  0.24733965606E+03 -0.84474815646E+02  0.26217657228E+03  0.00000000000E+00 0. -1.
         21    1    1    2  502  501  0.36174288404E+02  0.32824251279E+02  0.52962307097E+02  0.72048709819E+02  0.00000000000E+00 0. -1.
         21    1    1    2  503  502  0.22559459352E+02  0.16471547407E+01 -0.24407257243E+02  0.33276966975E+02  0.00000000000E+00 0.  1.
<scales pt_clust_5="13000.00000" pt_clust_6="13000.00000" pt_clust_7="13000.00000" pt_clust_8="13000.00000" pt_clust_9="49.53951" pt_clust_10="22.61951"></scales>
<clustering>
<clus scale="   22.620">  2 10  1 -1</clus>
<clus scale="   49.540">  1  9  2 -1</clus>
<clus scale="   90.948">  5  6 -1 -1</clus>
<clus scale="   97.409">  7  8 -1 -1</clus>
<clus scale="  321.635">  1  5  2 -1</clus>
<clus scale="   22.620">  2  5  1 -1</clus>
</clustering>
</event>
<event>
10    2  0.1133532E-006  0.1219183E+03  0.7546771E-02  0.1240400E+00
          2   -1    0    0  503    0  0.00000000000E+00  0.00000000000E+00  0.43692833098E+03  0.43692833098E+03  0.00000000000E+00 0. -1.
         -2   -1    0    0    0  501 -0.00000000000E+00 -0.00000000000E+00 -0.57978408849E+02  0.57978408849E+02  0.00000000000E+00 0.  1.
         23    2    1    2    0    0 -0.64648684548E+02 -0.19056839743E+02  0.11813321402E+03  0.16335288812E+03  0.90477037126E+02 0.  0.
         23    2    1    2    0    0  0.70523983584E+02  0.67728441657E+02  0.19972340864E+03  0.24061603942E+03  0.91901384103E+02 0.  0.
        -11    1    3    3    0    0 -0.39331076877E+02  0.20972654302E+02  0.10520241496E+03  0.11425556420E+03  0.00000000000E+00 0. -1.
         11    1    3    3    0    0 -0.25317607671E+02 -0.40029494045E+02  0.12930799060E+02  0.49097323919E+02  0.00000000000E+00 0.  1.
        -13    1    4    4    0    0  0.90089426485E+02  0.40655576434E+02  0.13001957791E+03  0.16332198658E+03  0.00000000000E+00 0. -1.
         13    1    4    4    0    0 -0.19565442901E+02  0.27072865222E+02  0.69703830728E+02  0.77294052846E+02  0.00000000000E+00 0.  1.
         21    1    1    2  502  501 -0.11658426184E+02 -0.20009261552E+02 -0.55126775346E-01  0.23157989720E+02  0.00000000000E+00 0.  1.
         21    1    1    2  503  502  0.57831271482E+01 -0.28662340362E+02  0.61148426246E+02  0.67779822565E+02  0.00000000000E+00 0.  1.
<scales pt_clust_5="13000.00000" pt_clust_6="13000.00000" pt_clust_7="13000.00000" pt_clust_8="13000.00000" pt_clust_9="23.15792" pt_clust_10="30.49737"></scales>
<clustering>
<clus scale="   23.158">  2  9  1 -1</clus>
<clus scale="   30.497">  1 10  2 -1</clus>
<clus scale="   90.477">  5  6 -1 -1</clus>
<clus scale="   91.901">  7  8 -1 -1</clus>
<clus scale="  120.848">  2  5  1 -1</clus>
<clus scale="   30.497">  1  5  2 -1</clus>
</clustering>
</event>
<event>
10    2  0.1133532E-006  0.4171691E+03  0.7546771E-02  0.1038151E+00
         -1   -1    0    0    0  501 -0.00000000000E+00  0.00000000000E+00  0.43841628273E+03  0.43841628273E+03  0.00000000000E+00 0.  1.
          1   -1    0    0  503    0  0.00000000000E+00 -0.00000000000E+00 -0.50678024605E+03  0.50678024605E+03  0.00000000000E+00 0. -1.
         23    2    1    2    0    0 -0.40448962532E+03 -0.82597343603E+02  0.24906195774E+02  0.42525950541E+03  0.98950240976E+02 0.  0.
         23    2    1    2    0    0  0.39424813067E+03  0.74387897276E+02 -0.10184483166E+03  0.42369941608E+03  0.90463681410E+02 0.  0.
        -11    1    3    3    0    0 -0.36363842836E+03 -0.10413866859E+03  0.19456296467E+02  0.37875627565E+03  0.00000000000E+00 0. -1.
         11    1    3    3    0    0 -0.40851196966E+02  0.21541324982E+02  0.54498993067E+01  0.46503229759E+02  0.00000000000E+00 0.  1.
        -11    1    4    4    0    0  0.62495547555E+02  0.46760711209E+02 -0.25983846246E+02  0.82264316946E+02  0.00000000000E+00 0. -1.
         11    1    4    4    0    0  0.33175258311E+03  0.27627186068E+02 -0.75860985417E+02  0.34143509914E+03  0.00000000000E+00 0.  1.
         21    1    1    2  502  501  0.19057679432E+02 -0.11655959048E+02  0.47029690783E+02  0.52065807799E+02  0.00000000000E+00 0.  1.
         21    1    1    2  503  502 -0.88161847778E+01  0.19865405375E+02 -0.38455018207E+02  0.44171799489E+02  0.00000000000E+00 0. -1.
<scales pt_clust_5="13000.00000" pt_clust_6="13000.00000" pt_clust_7="13000.00000" pt_clust_8="13000.00000" pt_clust_9="22.24291" pt_clust_10="21.73383"></scales>
<clustering>
<clus scale="   21.734">  2 10  1 -1</clus>
<clus scale="   22.243">  1  9  2 -1</clus>
<clus scale="   90.464">  7  8 -1 -1</clus>
<clus scale="   98.950">  5  6 -1 -1</clus>
<clus scale="  415.238">  2  7  1 -1</clus>
<clus scale="   21.734">  2  5  1 -1</clus>
</clustering>
</event>
<event>
10    2  0.1133532E-006  0.1072897E+03  0.7546771E-02  0.1265804E+00
          3   -1    0    0  503    0  0.00000000000E+00  0.00000000000E+00  0.54210932093E+02  0.54210932093E+02  0.00000000000E+00 0. -1.
         -3   -1    0    0    0  501 -0.00000000000E+00 -0.00000000000E+00 -0.57044496633E+03  0.57044496633E+03  0.00000000000E+00 0.  1.
         23    2    1    2    0    0  0.30357207431E+02  0.10673324865E+02 -0.24738710343E+03  0.26567828779E+03  0.91373375522E+02 0.  0.
         23    2    1    2    0    0 -0.55678368281E+02 -0.49645168581E+02 -0.53936358760E+02  0.12992927862E+03  0.91693855789E+02 0.  0.
        -13    1    4    4    0    0 -0.30455058131E+02  0.32953963011E+01 -0.63509075085E+02  0.70510799319E+02  0.00000000000E+00 0.  1.
         13    1    4    4    0    0 -0.25223310150E+02 -0.52940564882E+02  0.95727163245E+01  0.59418479304E+02  0.00000000000E+00 0. -1.
        -13    1    3    3    0    0  0.12487269463E+02 -0.37963005338E+02 -0.67164529584E+02  0.78154946786E+02  0.00000000000E+00 0. -1.
         13    1    3    3    0    0  0.17869937969E+02  0.48636330202E+02 -0.18022257385E+03  0.18752334101E+03  0.00000000000E+00 0.  1.
         21    1    1    2  502  501  0.23094507512E+02  0.18930570342E+02 -0.20389691289E+03  0.20607201134E+03  0.00000000000E+00 0.  1.
         21    1    1    2  503  502  0.22266533382E+01  0.20041273374E+02 -0.11013659160E+02  0.22976320672E+02  0.00000000000E+00 0. -1.
<scales pt_clust_5="13000.00000" pt_clust_6="13000.00000" pt_clust_7="13000.00000" pt_clust_8="13000.00000" pt_clust_9="30.18872" pt_clust_10="20.16459"></scales>
<clustering>
<clus scale="   20.165">  1 10  2 -1</clus>
<clus scale="   30.189">  2  9  1 -1</clus>
<clus scale="   91.373">  7  8 -1 -1</clus>
<clus scale="   91.694">  5  6 -1 -1</clus>
<clus scale="  107.016">  2  7  1 -1</clus>
<clus scale="   20.165">  1  5  2 -1</clus>
</clustering>
</event>
<event>
10    2  0.1133532E-006  0.1111811E+03  0.7546771E-02  0.1259166E+00
          1   -1    0    0  503    0  0.00000000000E+00  0.00000000000E+00  0.27402090240E+03  0.27402090240E+03  0.00000000000E+00 0. -1.
         -1   -1    0    0    0  501 -0.00000000000E+00 -0.00000000000E+00 -0.35144747000E+03  0.35144747000E+03  0.00000000000E+00 0.  1.
         23    2    1    2    0    0 -0.28363454601E+02 -0.22773736228E+02 -0.20031340806E+03  0.22273960836E+03  0.90356754395E+02 0.  0.
         23    2    1    2    0    0  0.50052990077E+02 -0.46461229381E+02  0.20541582658E+03  0.23378570914E+03  0.88295800217E+02 0.  0.
        -13    1    4    4    0    0  0.24892723473E+02  0.13931718414E+02  0.14558741985E+02  0.32026511332E+02  0.00000000000E+00 0.  1.
         13    1    4    4    0    0  0.25160266604E+02 -0.60392947795E+02  0.19085708460E+03  0.20175919781E+03  0.00000000000E+00 0. -1.
        -13    1    3    3    0    0  0.14768151804E+02  0.18599003794E+02 -0.15150985496E+02  0.28170438608E+02  0.00000000000E+00 0. -1.
         13    1    3    3    0    0 -0.43131606405E+02 -0.41372740022E+02 -0.18516242257E+03  0.19456916976E+03  0.00000000000E+00 0.  1.
         21    1    1    2  502  501 -0.42477702957E+02  0.30769160996E+02 -0.10676381376E+03  0.11895212670E+03  0.00000000000E+00 0.  1.
         21    1    1    2  503  502  0.20788167480E+02  0.38465804613E+02  0.24234827637E+02  0.49990928200E+02  0.00000000000E+00 0. -1.
<scales pt_clust_5="13000.00000" pt_clust_6="13000.00000" pt_clust_7="13000.00000" pt_clust_8="13000.00000" pt_clust_9="52.61010" pt_clust_10="43.72375"></scales>
<clustering>
<clus scale="   43.724">  1 10  2 -1</clus>
<clus scale="   52.610">  2  9  1 -1</clus>
<clus scale="   88.296">  5  6 -1 -1</clus>
<clus scale="   90.357">  7  8 -1 -1</clus>
<clus scale="  109.513">  1  5  2 -1</clus>
<clus scale="   43.724">  1  5  2 -1</clus>
</clustering>
</event>
<event>
10    2  0.1133532E-006  0.1931944E+03  0.7546771E-02  0.1158753E+00
          2   -1    0    0  503    0  0.00000000000E+00  0.00000000000E+00  0.97479811621E+03  0.97479811621E+03  0.00000000000E+00 0. -1.
         -2   -1    0    0    0  501 -0.00000000000E+00 -0.00000000000E+00 -0.86431062725E+02  0.86431062725E+02  0.00000000000E+00 0.  1.
         23    2    1    2    0    0 -0.98480890049E+02  0.14075899550E+03  0.29857555751E+03  0.34931135430E+03  0.57961005727E+02 0.  0.
         23    2    1    2    0    0  0.11008419568E+03 -0.11593198900E+03  0.53383047529E+03  0.56479642091E+03  0.91985131994E+02 0.  0.
        -11    1    3    3    0    0 -0.17493067919E+02  0.23356413427E+02  0.10428114013E+03  0.10828705214E+03  0.00000000000E+00 0. -1.
         11    1    3    3    0    0 -0.80987822131E+02  0.11740258207E+03  0.19429441737E+03  0.24102430216E+03  0.00000000000E+00 0.  1.
        -11    1    4    4    0    0  0.11138243674E+03 -0.93770068090E+02  0.51651017360E+03  0.53663920125E+03  0.00000000000E+00 0. -1.
         11    1    4    4    0    0 -0.12982410601E+01 -0.22161920910E+02  0.17320301692E+02  0.28157219660E+02  0.00000000000E+00 0.  1.
         21    1    1    2  502  501 -0.32690809579E+02 -0.42423619219E+01 -0.37027328887E+02  0.49575293747E+02  0.00000000000E+00 0. -1.
         21    1    1    2  503  502  0.21087503952E+02 -0.20584644579E+02  0.92988349571E+02  0.97546109975E+02  0.00000000000E+00 0.  1.
<scales pt_clust_5="13000.00000" pt_clust_6="13000.00000" pt_clust_7="13000.00000" pt_clust_8="13000.00000" pt_clust_9="32.83507" pt_clust_10="29.46880"></scales>
<clustering>
<clus scale="   29.469">  1 10  2 -1</clus>
<clus scale="   32.835">  2  9  1 -1</clus>
<clus scale="   57.961">  5  6 -1 -1</clus>
<clus scale="   91.985">  7  8 -1 -1</clus>
<clus scale="  179.506">  2  5  1 -1</clus>
<clus scale="   29.469">  1  5  2 -1</clus>
</clustering>
</event>
<event>
10    2  0.1133532E-006  0.1155534E+03  0.7546771E-02  0.1251458E+00
         -2   -1    0    0    0  501 -0.00000000000E+00  0.00000000000E+00  0.46060660771E+02  0.46060660771E+02  0.00000000000E+00 0.  1.
          2   -1    0    0  503    0  0.00000000000E+00 -0.00000000000E+00 -0.61430901724E+03  0.61430901724E+03  0.00000000000E+00 0. -1.
         23    2    1    2    0    0  0.47824685388E+02  0.61715169148E+02 -0.11885404731E+03  0.16843379140E+03  0.90264582693E+02 0.  0.
         23    2    1    2    0    0 -0.55108582438E+02 -0.10475112604E+02 -0.32491196815E+03  0.34120710313E+03  0.87794170304E+02 0.  0.
        -11    1    4    4    0    0 -0.26872379981E+01 -0.41223386505E+02 -0.16620215061E+03  0.17125928796E+03  0.00000000000E+00 0.  1.
         11    1    4    4    0    0 -0.52421344440E+02  0.30748273901E+02 -0.15870981753E+03  0.16994781517E+03  0.00000000000E+00 0. -1.
        -11    1    3    3    0    0  0.66471433059E+02  0.38286211040E+02 -0.11500976020E+03  0.13824445851E+03  0.00000000000E+00 0.  1.
         11    1    3    3    0    0 -0.18646747671E+02  0.23428958109E+02 -0.38442871074E+01  0.30189332886E+02  0.00000000000E+00 0. -1.
         21    1    1    2  502  501  0.32638802885E+02 -0.16603388818E+02 -0.31448864693E+02  0.48270022420E+02  0.00000000000E+00 0. -1.
         21    1    1    2  503  502 -0.25354905834E+02 -0.34636667727E+02 -0.93033476323E+02  0.10245876106E+03  0.00000000000E+00 0. -1.
<scales pt_clust_5="13000.00000" pt_clust_6="13000.00000" pt_clust_7="13000.00000" pt_clust_8="13000.00000" pt_clust_9="36.61917" pt_clust_10="42.43085"></scales>
<clustering>
<clus scale="   36.619">  1  9  2 -1</clus>
<clus scale="   42.431">  2 10  1 -1</clus>
<clus scale="   87.794">  5  6 -1 -1</clus>
<clus scale="   90.265">  7  8 -1 -1</clus>
<clus scale="  113.634">  2  5  1 -1</clus>
<clus scale="   42.431">  2  5  1 -1</clus>
</clustering>
</event>
<event>
10    2  0.1133532E-006  0.9419179E+02  0.7546771E-02  0.1294835E+00
         -1   -1    0    0    0  501 -0.00000000000E+00  0.00000000000E+00  0.56307370729E+02  0.56307370729E+02  0.00000000000E+00 0.  1.
          1   -1    0    0  502    0  0.00000000000E+00 -0.00000000000E+00 -0.42137029364E+03  0.42137029364E+03  0.00000000000E+00 0. -1.
         23    2    1    2    0    0 -0.21609487181E+02 -0.16489697298E+02 -0.40643101844E+02  0.10000981400E+03  0.87242312651E+02 0.  0.
         23    2    1    2    0    0  0.27670541668E+02  0.22541401858E+00 -0.83642323414E+02  0.12631931882E+03  0.90525258092E+02 0.  0.
        -11    1    4    4    0    0  0.14948167503E+02  0.38591494894E+02 -0.73965891326E+02  0.84756735835E+02  0.00000000000E+00 0.  1.
         11    1    4    4    0    0  0.12722374165E+02 -0.38366080876E+02 -0.96764320887E+01  0.41562582982E+02  0.00000000000E+00 0. -1.
        -13    1    3    3    0    0  0.28537905249E+02 -0.76079602139E+01 -0.39174852270E+02  0.49060800492E+02  0.00000000000E+00 0.  1.
         13    1    3    3    0    0 -0.50147392429E+02 -0.88817370838E+01 -0.14682495743E+01  0.50949013513E+02  0.00000000000E+00 0. -1.
         21    1    1    2  502  503  0.21158763138E+02 -0.17488523690E+02 -0.11761849889E+03  0.12077935668E+03  0.00000000000E+00 0.  1.
         21    1    1    2  503  501 -0.27219817625E+02  0.33752806969E+02 -0.12315899876E+03  0.13056917487E+03  0.00000000000E+00 0. -1.
<scales pt_clust_5="13000.00000" pt_clust_6="13000.00000" pt_clust_7="13000.00000" pt_clust_8="13000.00000" pt_clust_9="27.45071" pt_clust_10="32.15177"></scales>
<clustering>
<clus scale="   27.451">  2  9  1 -1</clus>
<clus scale="   32.152">  2 10  1 -1</clus>
<clus scale="   87.242">  7  8 -1 -1</clus>
<clus scale="   90.525">  5  6 -1 -1</clus>
<clus scale="   91.041">  1  7  2 -1</clus>
<clus scale="   27.451">  2  5  1 -1</clus>
</clustering>
</event>
<event>
10    2  0.1133532E-006  0.1015949E+03  0.7546771E-02  0.1277723E+00
         -1   -1    0    0    0  501 -0.00000000000E+00  0.00000000000E+00  0.10098379544E+03  0.10098379544E+03  0.00000000000E+00 0.  1.
          1   -1    0    0  503    0  0.00000000000E+00 -0.00000000000E+00 -0.32450883307E+03  0.32450883307E+03  0.00000000000E+00 0. -1.
         23    2    1    2    0    0 -0.44912465928E+02  0.46455020313E+02 -0.90808969819E+02  0.14481646985E+03  0.92468061691E+02 0.  0.
         23    2    1    2    0    0  0.39868451548E+02  0.33748164531E+02 -0.11072225668E+03  0.15247328901E+03  0.90885937848E+02 0.  0.
        -13    1    4    4    0    0  0.43835468489E+02  0.67502313591E+01 -0.66071432405E+01  0.44841590771E+02  0.00000000000E+00 0.  1.
         13    1    4    4    0    0 -0.39670169407E+01  0.26997933172E+02 -0.10411511344E+03  0.10763169824E+03  0.00000000000E+00 0. -1.
        -13    1    3    3    0    0 -0.31561287771E+02  0.72051380684E+02 -0.44866958557E+02  0.90556945147E+02  0.00000000000E+00 0. -1.
         13    1    3    3    0    0 -0.13351178156E+02 -0.25596360371E+02 -0.45942011262E+02  0.54259524705E+02  0.00000000000E+00 0.  1.
         21    1    1    2  502  501  0.22330156834E+02  0.37228488060E+01  0.22271380891E+02  0.31757045113E+02  0.00000000000E+00 0.  1.
         21    1    1    2  503  502 -0.17286142455E+02 -0.83926033649E+02 -0.44265192033E+02  0.96445824538E+02  0.00000000000E+00 0. -1.
<scales pt_clust_5="13000.00000" pt_clust_6="13000.00000" pt_clust_7="13000.00000" pt_clust_8="13000.00000" pt_clust_9="22.63836" pt_clust_10="83.14711"></scales>
<clustering>
<clus scale="   22.638">  1  9  2 -1</clus>
<clus scale="   83.147">  1 10  2 -1</clus>
<clus scale="   90.886">  5  6 -1 -1</clus>
<clus scale="   92.468">  7  8 -1 -1</clus>
<clus scale="  100.157">  2  5  1 -1</clus>
<clus scale="  100.157">  2  5  1 -1</clus>
</clustering>
</event>
<event>
10    2  0.1133532E-006  0.1879199E+03  0.7546771E-02  0.1160604E+00
          2   -1    0    0  503    0  0.00000000000E+00  0.00000000000E+00  0.51839905328E+03  0.51839905328E+03  0.00000000000E+00 0. -1.
         -2   -1    0    0    0  501 -0.00000000000E+00 -0.00000000000E+00 -0.14147677325E+03  0.14147677325E+03  0.00000000000E+00 0.  1.
         23    2    1    2    0    0  0.16085180619E+03  0.13667834085E+03  0.57438567606E+02  0.23712018680E+03  0.91501483750E+02 0.  0.
         23    2    1    2    0    0 -0.82035153426E+02 -0.77641124766E+02  0.16237374118E+03  0.21888026317E+03  0.93730609344E+02 0.  0.
        -11    1    4    4    0    0 -0.13430977747E+02 -0.69500248855E+02  0.48913484180E+02  0.86041877529E+02  0.00000000000E+00 0. -1.
         11    1    4    4    0    0 -0.68604175679E+02 -0.81408759117E+01  0.11346025700E+03  0.13283838564E+03  0.00000000000E+00 0.  1.
        -13    1    3    3    0    0  0.13551975108E+03  0.10215304261E+03  0.54893764056E+01  0.16979687954E+03  0.00000000000E+00 0.  1.
         13    1    3    3    0    0  0.25332055109E+02  0.34525298240E+02  0.51949191200E+02  0.67323307264E+02  0.00000000000E+00 0. -1.
         21    1    1    2  502  501 -0.19201609438E+02 -0.21572452186E+02 -0.29329665940E+01  0.29028861351E+02  0.00000000000E+00 0.  1.
         21    1    1    2  503  502 -0.59615043329E+02 -0.37464763894E+02  0.16004293784E+03  0.17484651520E+03  0.00000000000E+00 0. -1.
<scales pt_clust_5="13000.00000" pt_clust_6="13000.00000" pt_clust_7="13000.00000" pt_clust_8="13000.00000" pt_clust_9="28.88031" pt_clust_10="72.04742"></scales>
<clustering>
<clus scale="   28.880">  2  9  1 -1</clus>
<clus scale="   72.047">  1 10  2 -1</clus>
<clus scale="   91.501">  7  8 -1 -1</clus>
<clus scale="   93.731">  5  6 -1 -1</clus>
<clus scale="  186.818">  2  7  1 -1</clus>
<clus scale="   72.047">  1  5  2 -1</clus>
</clustering>
</event>
<event>
10    2  0.1133532E-006  0.3006688E+03  0.7546771E-02  0.1108066E+00
         -2   -1    0    0    0  501 -0.00000000000E+00  0.00000000000E+00  0.23814185391E+03  0.23814185391E+03  0.00000000000E+00 0.  1.
          2   -1    0    0  503    0  0.00000000000E+00 -0.00000000000E+00 -0.21280439498E+04  0.21280439498E+04  0.00000000000E+00 0. -1.
         23    2    1    2    0    0 -0.14362495381E+02  0.29494641185E+03  0.10772631660E+03  0.32422433285E+03  0.79478245985E+02 0.  0.
         23    2    1    2    0    0 -0.10403039831E+03 -0.82334320148E+02 -0.57542464243E+03  0.59839368172E+03  0.96748204971E+02 0.  0.
        -11    1    4    4    0    0 -0.76644967385E+02 -0.85570046873E+02 -0.54644912858E+03  0.55839352976E+03  0.00000000000E+00 0. -1.
         11    1    4    4    0    0 -0.27385430929E+02  0.32357267245E+01 -0.28975513845E+02  0.40000151965E+02  0.00000000000E+00 0.  1.
        -11    1    3    3    0    0  0.21895327494E+02  0.59029811215E+02  0.45137315881E+02  0.77468066086E+02  0.00000000000E+00 0. -1.
         11    1    3    3    0    0 -0.36257822875E+02  0.23591660064E+03  0.62589000724E+02  0.24675626677E+03  0.00000000000E+00 0.  1.
         21    1    1    2  502  501  0.85689595819E+02 -0.18058715131E+03 -0.10832655219E+04  0.11015528208E+04  0.00000000000E+00 0. -1.
         21    1    1    2  503  502  0.32703297876E+02 -0.32024940394E+02 -0.33893824823E+03  0.34201496840E+03  0.00000000000E+00 0. -1.
<scales pt_clust_5="13000.00000" pt_clust_6="13000.00000" pt_clust_7="13000.00000" pt_clust_8="13000.00000" pt_clust_9="293.40856" pt_clust_10="21.41991"></scales>
<clustering>
<clus scale="   21.420">  9 10 -1 -1</clus>
<clus scale="   79.478">  7  8 -1 -1</clus>
<clus scale="   96.748">  5  6 -1 -1</clus>
<clus scale="  164.200">  2  5  1 -1</clus>
<clus scale="  293.409">  2  9  1 -1</clus>
<clus scale="  164.200">  2  5  1 -1</clus>
</clustering>
</event>
<event>
10    2  0.1133532E-006  0.1328475E+03  0.7546771E-02  0.1224124E+00
         -2   -1    0    0    0  501 -0.00000000000E+00  0.00000000000E+00  0.11514733072E+03  0.11514733072E+03  0.00000000000E+00 0.  1.
          2   -1    0    0  503    0  0.00000000000E+00 -0.00000000000E+00 -0.38581472471E+03  0.38581472471E+03  0.00000000000E+00 0. -1.
         23    2    1    2    0    0  0.11121031941E+03  0.75025656160E+01 -0.50055842189E+02  0.15102237991E+03  0.88758933411E+02 0.  0.
         23    2    1    2    0    0 -0.87041899297E+02 -0.85007683730E+01 -0.65912744874E+02  0.13880798585E+03  0.85291334272E+02 0.  0.
        -11    1    4    4    0    0 -0.10040790878E+03  0.70027577121E+01 -0.61218141336E+02  0.11780682319E+03  0.00000000000E+00 0.  1.
         11    1    4    4    0    0  0.13366009484E+02 -0.15503526085E+02 -0.46946035389E+01  0.21001162658E+02  0.00000000000E+00 0. -1.
        -13    1    3    3    0    0  0.68572031433E+02 -0.29104468410E+02 -0.57809824969E+02  0.94292997827E+02  0.00000000000E+00 0.  1.
         13    1    3    3    0    0  0.42638287980E+02  0.36607034026E+02  0.77539827800E+01  0.56729382078E+02  0.00000000000E+00 0. -1.
         21    1    1    2  502  501 -0.11611334644E+02 -0.18953905669E+02  0.22935898110E+02  0.31939459207E+02  0.00000000000E+00 0.  1.
         21    1    1    2  503  502 -0.12557085473E+02  0.19952108426E+02 -0.17763470504E+03  0.17919223047E+03  0.00000000000E+00 0. -1.
<scales pt_clust_5="13000.00000" pt_clust_6="13000.00000" pt_clust_7="13000.00000" pt_clust_8="13000.00000" pt_clust_9="22.22777" pt_clust_10="23.48786"></scales>
<clustering>
<clus scale="   22.228">  1  9  2 -1</clus>
<clus scale="   23.488">  2 10  1 -1</clus>
<clus scale="   85.291">  5  6 -1 -1</clus>
<clus scale="   88.759">  7  8 -1 -1</clus>
<clus scale="  130.556">  2  5  1 -1</clus>
<clus scale="   23.488">  2  5  1 -1</clus>
</clustering>
</event>
<event>
10    2  0.1133532E-006  0.9540658E+02  0.7546771E-02  0.1296781E+00
          1   -1    0    0  503    0  0.00000000000E+00  0.00000000000E+00  0.19564758845E+03  0.19564758845E+03  0.00000000000E+00 0. -1.
         -1   -1    0    0    0  501 -0.00000000000E+00 -0.00000000000E+00 -0.11287799234E+03  0.11287799234E+03  0.00000000000E+00 0.  1.
         23    2    1    2    0    0 -0.17079214850E+01 -0.18932123369E+02 -0.24475606322E+02  0.85996801079E+02  0.80218777104E+02 0.  0.
         23    2    1    2    0    0  0.51696388324E+02 -0.12014260477E+02  0.93995088591E+02  0.14159531982E+03  0.91636776978E+02 0.  0.
        -13    1    3    3    0    0 -0.40778874386E+02 -0.11854129148E+02 -0.16098582559E+02  0.45415870953E+02  0.00000000000E+00 0.  1.
         13    1    3    3    0    0  0.39070952901E+02 -0.70779942207E+01 -0.83770237634E+01  0.40580930126E+02  0.00000000000E+00 0. -1.
        -13    1    4    4    0    0 -0.80978687891E+01  0.30494110502E+02  0.19776617673E+02  0.37236821304E+02  0.00000000000E+00 0.  1.
         13    1    4    4    0    0  0.59794257113E+02 -0.42508370979E+02  0.74218470918E+02  0.10435849852E+03  0.00000000000E+00 0. -1.
         21    1    1    2  502  501 -0.25304005400E+02  0.16304188755E+01 -0.18318609471E+02  0.31281342809E+02  0.00000000000E+00 0. -1.
         21    1    1    2  503  502 -0.24684461439E+02  0.29315964970E+02  0.31568723314E+02  0.49652117078E+02  0.00000000000E+00 0.  1.
<scales pt_clust_5="13000.00000" pt_clust_6="13000.00000" pt_clust_7="13000.00000" pt_clust_8="13000.00000" pt_clust_9="25.35648" pt_clust_10="40.16936"></scales>
<clustering>
<clus scale="   25.356">  2  9  1 -1</clus>
<clus scale="   40.169">  1 10  2 -1</clus>
<clus scale="   80.219">  5  6 -1 -1</clus>
<clus scale="   84.500">  2  5  1 -1</clus>
<clus scale="   91.637">  7  8 -1 -1</clus>
<clus scale="   40.169">  1  5  2 -1</clus>
</clustering>
</event>
<event>
10    2  0.1133532E-006  0.1117833E+03  0.7546771E-02  0.1258657E+00
         -3   -1    0    0    0  501 -0.00000000000E+00  0.00000000000E+00  0.24579960654E+03  0.24579960654E+03  0.00000000000E+00 0.  1.
          3   -1    0    0  503    0  0.00000000000E+00 -0.00000000000E+00 -0.10768518650E+03  0.10768518650E+03  0.00000000000E+00 0. -1.
         23    2    1    2    0    0 -0.78400508436E+02  0.23520935312E+02  0.10170314393E+03  0.16041876107E+03  0.93224327815E+02 0.  0.
         23    2    1    2    0    0  0.43710594790E+02  0.59691178829E+01  0.36862866078E+02  0.10651852740E+03  0.89672065436E+02 0.  0.
        -11    1    4    4    0    0  0.51740828241E+02 -0.17448690476E+02 -0.80897422513E+01  0.55199764819E+02  0.00000000000E+00 0. -1.
         11    1    4    4    0    0 -0.80302334511E+01  0.23417808359E+02  0.44952608329E+02  0.51318762584E+02  0.00000000000E+00 0.  1.
        -11    1    3    3    0    0 -0.31008726106E+02 -0.30251021889E+02  0.69375217677E+02  0.81789890866E+02  0.00000000000E+00 0. -1.
         11    1    3    3    0    0 -0.47391782330E+02  0.53771957202E+02  0.32327926257E+02  0.78628870206E+02  0.00000000000E+00 0.  1.
         21    1    1    2  502  501  0.15338576905E+02  0.14944688502E+02  0.24081503450E+02  0.32226300817E+02  0.00000000000E+00 0.  1.
         21    1    1    2  503  502  0.19351336741E+02 -0.44434741698E+02 -0.24533093424E+02  0.54321203745E+02  0.00000000000E+00 0. -1.
<scales pt_clust_5="13000.00000" pt_clust_6="13000.00000" pt_clust_7="13000.00000" pt_clust_8="13000.00000" pt_clust_9="21.41531" pt_clust_10="47.96671"></scales>
<clustering>
<clus scale="   21.415">  1  9  2 -1</clus>
<clus scale="   47.967">  2 10  1 -1</clus>
<clus scale="   89.672">  5  6 -1 -1</clus>
<clus scale="   93.224">  7  8 -1 -1</clus>
<clus scale="  108.838">  2  5  1 -1</clus>
<clus scale="   47.967">  2  5  1 -1</clus>
</clustering>
</event>
<event>
10    2  0.1133532E-006  0.1433883E+03  0.7546771E-02  0.1209978E+00
         -2   -1    0    0    0  501 -0.00000000000E+00  0.00000000000E+00  0.95812252465E+02  0.95812252465E+02  0.00000000000E+00 0.  1.
          2   -1    0    0  503    0  0.00000000000E+00 -0.00000000000E+00 -0.50085732382E+03  0.50085732382E+03  0.00000000000E+00 0. -1.
         23    2    1    2    0    0 -0.97242481846E+02  0.66371522555E+02 -0.50222558935E+01  0.14961075684E+03  0.92178501977E+02 0.  0.
         23    2    1    2    0    0  0.49057407323E+02 -0.51353670616E+02 -0.20475690976E+03  0.23757331971E+03  0.97323488654E+02 0.  0.
        -13    1    3    3    0    0 -0.19094674896E+02  0.14990280575E+02  0.39238130093E+02  0.46140502536E+02  0.00000000000E+00 0.  1.
         13    1    3    3    0    0 -0.78147806951E+02  0.51381241980E+02 -0.44260385986E+02  0.10347025431E+03  0.00000000000E+00 0. -1.
        -13    1    4    4    0    0 -0.14809698714E+01 -0.60622955358E+02 -0.66100317329E+02  0.89702775537E+02  0.00000000000E+00 0.  1.
         13    1    4    4    0    0  0.50538377195E+02  0.92692847415E+01 -0.13865659243E+03  0.14787054417E+03  0.00000000000E+00 0. -1.
         21    1    1    2  502  501  0.27535630281E+02 -0.25750824949E+02 -0.51368915055E+02  0.63718767678E+02  0.00000000000E+00 0. -1.
         21    1    1    2  503  502  0.20649444242E+02  0.10732973010E+02 -0.14389699065E+03  0.14576673205E+03  0.00000000000E+00 0. -1.
<scales pt_clust_5="13000.00000" pt_clust_6="13000.00000" pt_clust_7="13000.00000" pt_clust_8="13000.00000" pt_clust_9="39.11425" pt_clust_10="23.27222"></scales>
<clustering>
<clus scale="   23.272">  2 10  1 -1</clus>
<clus scale="   39.114">  2  9  1 -1</clus>
<clus scale="   92.179">  5  6 -1 -1</clus>
<clus scale="   97.323">  7  8 -1 -1</clus>
<clus scale="  139.947">  1  5  2 -1</clus>
<clus scale="   23.272">  2  5  1 -1</clus>
</clustering>
</event>
<event>
10    2  0.1133532E-006  0.9458096E+02  0.7546771E-02  0.1292542E+00
          2   -1    0    0  503    0  0.00000000000E+00  0.00000000000E+00  0.65476967707E+03  0.65476967707E+03  0.00000000000E+00 0. -1.
         -2   -1    0    0    0  501 -0.00000000000E+00 -0.00000000000E+00 -0.84345313025E+02  0.84345313025E+02  0.00000000000E+00 0.  1.
         23    2    1    2    0    0  0.33328856663E+01  0.41482829245E+02 -0.31379697398E+02  0.10434957356E+03  0.90400303342E+02 0.  0.
         23    2    1    2    0    0 -0.49211789446E+02  0.53180798147E+01  0.27920199427E+03  0.29785079219E+03  0.91166104500E+02 0.  0.
        -11    1    4    4    0    0 -0.64546016333E+02 -0.25163088422E+02  0.19806618619E+03  0.20983227434E+03  0.00000000000E+00 0.  1.
         11    1    4    4    0    0  0.15334226887E+02  0.30481168236E+02  0.81135808076E+02  0.88018517844E+02  0.00000000000E+00 0. -1.
        -13    1    3    3    0    0  0.31410102158E+02  0.49129404905E+02  0.41079024756E+01  0.58456546311E+02  0.00000000000E+00 0. -1.
         13    1    3    3    0    0 -0.28077216492E+02 -0.76465756601E+01 -0.35487599874E+02  0.45893027249E+02  0.00000000000E+00 0.  1.
         21    1    1    2  502  501  0.80664166663E+01 -0.21067574979E+02  0.17897484833E+02  0.28796349711E+02  0.00000000000E+00 0. -1.
         21    1    1    2  503  502  0.37812487113E+02 -0.25733334080E+02  0.30470458234E+03  0.30811827464E+03  0.00000000000E+00 0. -1.
<scales pt_clust_5="13000.00000" pt_clust_6="13000.00000" pt_clust_7="13000.00000" pt_clust_8="13000.00000" pt_clust_9="22.55903" pt_clust_10="46.13981"></scales>
<clustering>
<clus scale="   22.559">  2  9  1 -1</clus>
<clus scale="   46.140">  1 10  2 -1</clus>
<clus scale="   90.400">  7  8 -1 -1</clus>
<clus scale="   91.166">  5  6 -1 -1</clus>
<clus scale="   93.843">  2  7  1 -1</clus>
<clus scale="   46.140">  1  5  2 -1</clus>
</clustering>
</event>
<event>
10    2  0.1133532E-006  0.3002801E+03  0.7546771E-02  0.1126765E+00
         -1   -1    0    0    0  501 -0.00000000000E+00  0.00000000000E+00  0.15635095169E+03  0.15635095169E+03  0.00000000000E+00 0.  1.
          1   -1    0    0  503    0  0.00000000000E+00 -0.00000000000E+00 -0.13225626937E+04  0.13225626937E+04  0.00000000000E+00 0. -1.
         23    2    1    2    0    0 -0.31634312631E+03  0.60794309266E+02 -0.45383313691E+03  0.56336032887E+03  0.87415229677E+02 0.  0.
         23    2    1    2    0    0 -0.82595814044E+01  0.45979731542E+02 -0.13758486711E+03  0.17188960440E+03  0.91837269365E+02 0.  0.
        -11    1    3    3    0    0 -0.44586256092E+02  0.17740562796E+02 -0.25695345996E+02  0.54432642839E+02  0.00000000000E+00 0.  1.
         11    1    3    3    0    0 -0.27175687022E+03  0.43053746470E+02 -0.42813779091E+03  0.50892768603E+03  0.00000000000E+00 0. -1.
        -13    1    4    4    0    0  0.68790600677E+01  0.67407196079E+02 -0.12630493341E+03  0.14333174022E+03  0.00000000000E+00 0. -1.
         13    1    4    4    0    0 -0.15138641472E+02 -0.21427464537E+02 -0.11279933701E+02  0.28557864178E+02  0.00000000000E+00 0.  1.
         21    1    1    2  502  501  0.22362009338E+03 -0.16892295120E+03 -0.18394977529E+03  0.33522892094E+03  0.00000000000E+00 0.  1.
         21    1    1    2  503  502  0.10098261434E+03  0.62148910395E+02 -0.39084396266E+03  0.40843479114E+03  0.00000000000E+00 0. -1.
<scales pt_clust_5="13000.00000" pt_clust_6="13000.00000" pt_clust_7="13000.00000" pt_clust_8="13000.00000" pt_clust_9="287.27463" pt_clust_10="125.30152"></scales>
<clustering>
<clus scale="   87.415">  5  6 -1 -1</clus>
<clus scale="   91.837">  7  8 -1 -1</clus>
<clus scale="  103.036">  2  7  1 -1</clus>
<clus scale="  125.302">  2 10  1 -1</clus>
<clus scale="  287.275">  1  9  2 -1</clus>
<clus scale="  103.036">  2  5  1 -1</clus>
</clustering>
</event>
<event>
10    2  0.1133532E-006  0.2530729E+03  0.7546771E-02  0.1111963E+00
         -2   -1    0    0    0  501 -0.00000000000E+00  0.00000000000E+00  0.70221929963E+03  0.70221929963E+03  0.00000000000E+00 0.  1.
          2   -1    0    0  503    0  0.00000000000E+00 -0.00000000000E+00 -0.83092162645E+03  0.83092162645E+03  0.00000000000E+00 0. -1.
         23    2    1    2    0    0  0.20455298687E+03 -0.22838226588E+03  0.17548406971E+02  0.32147440103E+03  0.95065556967E+02 0.  0.
         23    2    1    2    0    0 -0.21694986923E+03  0.49051694489E+02 -0.38937834503E+03  0.45634510283E+03  0.84628853257E+02 0.  0.
        -11    1    4    4    0    0 -0.19121865333E+03  0.17070203381E+02 -0.35140481781E+03  0.40042641172E+03  0.00000000000E+00 0. -1.
         11    1    4    4    0    0 -0.25731215904E+02  0.31981491108E+02 -0.37973527221E+02  0.55918691106E+02  0.00000000000E+00 0.  1.
        -13    1    3    3    0    0  0.18398687433E+03 -0.23579611608E+03  0.17779534975E+02  0.29961156545E+03  0.00000000000E+00 0.  1.
         13    1    3    3    0    0  0.20566112532E+02  0.74138501956E+01 -0.23112800397E+00  0.21862835579E+02  0.00000000000E+00 0. -1.
         21    1    1    2  502  501 -0.46222188004E+02  0.71326971222E+02  0.48053583446E+03  0.48799458572E+03  0.00000000000E+00 0.  1.
         21    1    1    2  503  502  0.58619070373E+02  0.10800360017E+03 -0.23740822322E+03  0.26732683651E+03  0.00000000000E+00 0.  1.
<scales pt_clust_5="13000.00000" pt_clust_6="13000.00000" pt_clust_7="13000.00000" pt_clust_8="13000.00000" pt_clust_9="84.99428" pt_clust_10="125.77973"></scales>
<clustering>
<clus scale="   84.629">  5  6 -1 -1</clus>
<clus scale="   84.994">  1  9  2 -1</clus>
<clus scale="   95.066">  7  8 -1 -1</clus>
<clus scale="  125.780">  2 10  1 -1</clus>
<clus scale="  249.340">  2  5  1 -1</clus>
<clus scale="  125.780">  2  5  1 -1</clus>
</clustering>
</event>
<event>
10    2  0.1133532E-006  0.1988470E+03  0.7546771E-02  0.1154486E+00
          1   -1    0    0  503    0  0.00000000000E+00  0.00000000000E+00  0.63014087178E+03  0.63014087178E+03  0.00000000000E+00 0. -1.
         -1   -1    0    0    0  501 -0.00000000000E+00 -0.00000000000E+00 -0.23292267715E+03  0.23292267715E+03  0.00000000000E+00 0.  1.
         23    2    1    2    0    0 -0.16043959968E+03  0.61819264185E+02  0.12337340788E+02  0.20901511656E+03  0.11820584758E+03 0.  0.
         23    2    1    2    0    0  0.14738284199E+03  0.12552430701E+01  0.34481166577E+03  0.38490043091E+03  0.86775452249E+02 0.  0.
        -11    1    4    4    0    0  0.51146756868E+02 -0.28520803300E+02  0.64909674191E+02  0.87422495746E+02  0.00000000000E+00 0.  1.
         11    1    4    4    0    0  0.96236085117E+02  0.29776046370E+02  0.27990199158E+03  0.29747793516E+03  0.00000000000E+00 0. -1.
        -13    1    3    3    0    0 -0.11562094429E+03 -0.10035185497E+02 -0.21115554658E+02  0.11796090181E+03  0.00000000000E+00 0.  1.
         13    1    3    3    0    0 -0.44818655385E+02  0.71854449682E+02  0.33452895445E+02  0.91054214748E+02  0.00000000000E+00 0. -1.
         21    1    1    2  502  501  0.20462826071E+02  0.31084494743E+02 -0.96313526991E+02  0.10325341905E+03  0.00000000000E+00 0.  1.
         21    1    1    2  503  502 -0.74060683785E+01 -0.94159001998E+02  0.13638271506E+03  0.16589458241E+03  0.00000000000E+00 0.  1.
<scales pt_clust_5="13000.00000" pt_clust_6="13000.00000" pt_clust_7="13000.00000" pt_clust_8="13000.00000" pt_clust_9="37.21523" pt_clust_10="90.85928"></scales>
<clustering>
<clus scale="   37.215">  2  9  1 -1</clus>
<clus scale="   86.775">  5  6 -1 -1</clus>
<clus scale="   90.859">  1 10  2 -1</clus>
<clus scale="  118.206">  7  8 -1 -1</clus>
<clus scale="  181.927">  1  5  2 -1</clus>
<clus scale="   90.859">  1  5  2 -1</clus>
</clustering>
</event>
<event>
10    2  0.1133532E-006  0.1054843E+03  0.7546771E-02  0.1270873E+00
          3   -1    0    0  503    0  0.00000000000E+00  0.00000000000E+00  0.66361697573E+02  0.66361697573E+02  0.00000000000E+00 0. -1.
         -3   -1    0    0    0  501 -0.00000000000E+00 -0.00000000000E+00 -0.34577576340E+03  0.34577576340E+03  0.00000000000E+00 0.  1.
         23    2    1    2    0    0 -0.73494089921E+02  0.97580445035E+01 -0.12624188389E+03  0.17094725197E+03  0.88257288765E+02 0.  0.
         23    2    1    2    0    0  0.30185420260E+02  0.27124085024E+02 -0.41280008127E+02  0.10885955555E+03  0.92192668786E+02 0.  0.
        -13    1    4    4    0    0  0.58615457886E+02  0.58926379485E+01 -0.43616061517E+02  0.73299767445E+02  0.00000000000E+00 0.  1.
         13    1    4    4    0    0 -0.28430037626E+02  0.21231447076E+02  0.23360533902E+01  0.35559788101E+02  0.00000000000E+00 0. -1.
        -13    1    3    3    0    0 -0.44264922128E+02  0.12888786010E+02 -0.13301715928E+03  0.14078021451E+03  0.00000000000E+00 0.  1.
         13    1    3    3    0    0 -0.29229167793E+02 -0.31307415063E+01  0.67752753841E+01  0.30167037455E+02  0.00000000000E+00 0. -1.
         21    1    1    2  502  501  0.26255289836E+02 -0.82395710017E+01 -0.85481051978E+02  0.89801119269E+02  0.00000000000E+00 0.  1.
         21    1    1    2  503  502  0.17053379826E+02 -0.28642558526E+02 -0.26411121832E+02  0.42529534195E+02  0.00000000000E+00 0.  1.
<scales pt_clust_5="13000.00000" pt_clust_6="13000.00000" pt_clust_7="13000.00000" pt_clust_8="13000.00000" pt_clust_9="27.51783" pt_clust_10="36.15696"></scales>
<clustering>
<clus scale="   27.518">  2  9  1 -1</clus>
<clus scale="   36.157">  1 10  2 -1</clus>
<clus scale="   88.257">  7  8 -1 -1</clus>
<clus scale="   92.193">  5  6 -1 -1</clus>
<clus scale="  102.063">  2  7  1 -1</clus>
<clus scale="   36.157">  1  5  2 -1</clus>
</clustering>
</event>
<event>
10    2  0.1133532E-006  0.2329956E+03  0.7546771E-02  0.1124856E+00
         -1   -1    0    0    0  501 -0.00000000000E+00  0.00000000000E+00  0.57679801414E+03  0.57679801414E+03  0.00000000000E+00 0.  1.
          1   -1    0    0  503    0  0.00000000000E+00 -0.00000000000E+00 -0.19378020679E+03  0.19378020679E+03  0.00000000000E+00 0. -1.
         23    2    1    2    0    0  0.87130274070E+02 -0.21066602337E+03  0.37358134559E+03  0.44611490792E+03  0.86507983647E+02 0.  0.
         23    2    1    2    0    0 -0.35733835775E+02  0.20023531375E+03  0.58960375658E+02  0.23054571036E+03  0.91125796441E+02 0.  0.
        -11    1    4    4    0    0  0.21301155471E+02  0.75369343239E+02  0.50121345203E+02  0.92986162248E+02  0.00000000000E+00 0. -1.
         11    1    4    4    0    0 -0.57034991246E+02  0.12486597051E+03  0.88390304554E+01  0.13755954812E+03  0.00000000000E+00 0.  1.
        -13    1    3    3    0    0  0.44090196540E+02 -0.16060829669E+03  0.32130762540E+03  0.36190822115E+03  0.00000000000E+00 0.  1.
         13    1    3    3    0    0  0.43040077530E+02 -0.50057726682E+02  0.52273720188E+02  0.84206686770E+02  0.00000000000E+00 0. -1.
         21    1    1    2  502  501 -0.19593047424E+02  0.60486752469E+01  0.12544373800E+02  0.24038204875E+02  0.00000000000E+00 0.  1.
         21    1    1    2  503  502 -0.31803390872E+02  0.43820343718E+01 -0.62068287694E+02  0.69879397776E+02  0.00000000000E+00 0. -1.
<scales pt_clust_5="13000.00000" pt_clust_6="13000.00000" pt_clust_7="13000.00000" pt_clust_8="13000.00000" pt_clust_9="20.50546" pt_clust_10="32.24537"></scales>
<clustering>
<clus scale="   20.505">  1  9  2 -1</clus>
<clus scale="   32.245">  2 10  1 -1</clus>
<clus scale="   86.508">  7  8 -1 -1</clus>
<clus scale="   91.126">  5  6 -1 -1</clus>
<clus scale="  231.229">  1  7  2 -1</clus>
<clus scale="   32.245">  2  5  1 -1</clus>
</clustering>
</event>
<event>
10    2  0.1133532E-006  0.9683224E+02  0.7546771E-02  0.1292007E+00
          1   -1    0    0  503    0  0.00000000000E+00  0.00000000000E+00  0.54194371713E+03  0.54194371713E+03  0.00000000000E+00 0. -1.
         -1   -1    0    0    0  501 -0.00000000000E+00 -0.00000000000E+00 -0.22003081992E+03  0.22003081992E+03  0.00000000000E+00 0.  1.
         23    2    1    2    0    0  0.75137190522E+01  0.20688810246E+02 -0.75924782130E+02  0.11497413949E+03  0.83486510090E+02 0.  0.
         23    2    1    2    0    0 -0.46818615133E+02  0.65950331767E+02 -0.69840295738E+02  0.14129365132E+03  0.92438087451E+02 0.  0.
        -11    1    3    3    0    0  0.42352020381E+02 -0.54974084912E+01 -0.39526376475E+02  0.58191490509E+02  0.00000000000E+00 0. -1.
         11    1    3    3    0    0 -0.34838301329E+02  0.26186218737E+02 -0.36398405655E+02  0.56782648982E+02  0.00000000000E+00 0.  1.
        -11    1    4    4    0    0 -0.34407129878E+02  0.15590703418E+02  0.15981695182E+02  0.41016279700E+02  0.00000000000E+00 0. -1.
         11    1    4    4    0    0 -0.12411485255E+02  0.50359628349E+02 -0.85821990921E+02  0.10027737162E+03  0.00000000000E+00 0.  1.
         21    1    1    2  502  501 -0.15969099916E+02 -0.33714129124E+02  0.60664508659E+01  0.37794926655E+02  0.00000000000E+00 0. -1.
         21    1    1    2  503  502  0.55273995996E+02 -0.52925012889E+02  0.46161152421E+03  0.46791181958E+03  0.00000000000E+00 0. -1.
<scales pt_clust_5="13000.00000" pt_clust_6="13000.00000" pt_clust_7="13000.00000" pt_clust_8="13000.00000" pt_clust_9="37.30489" pt_clust_10="76.71002"></scales>
<clustering>
<clus scale="   37.305">  2  9  1 -1</clus>
<clus scale="   76.710">  1 10  2 -1</clus>
<clus scale="   83.487">  5  6 -1 -1</clus>
<clus scale="   88.327">  2  5  1 -1</clus>
<clus scale="   92.438">  7  8 -1 -1</clus>
<clus scale="   76.710">  1  5  2 -1</clus>
</clustering>
</event>
<event>
10    2  0.1133532E-006  0.1913258E+03  0.7546771E-02  0.1157433E+00
          1   -1    0    0  503    0  0.00000000000E+00  0.00000000000E+00  0.62731514134E+03  0.62731514134E+03  0.00000000000E+00 0. -1.
         -1   -1    0    0    0  501 -0.00000000000E+00 -0.00000000000E+00 -0.11709108580E+03  0.11709108580E+03  0.00000000000E+00 0.  1.
         23    2    1    2    0    0 -0.24064532891E+02 -0.14567456067E+03  0.54344714444E+02  0.18037339357E+03  0.88210168060E+02 0.  0.
         23    2    1    2    0    0  0.14586494912E+02  0.16290348675E+03  0.34729313867E+03  0.39423406346E+03  0.89764473998E+02 0.  0.
        -13    1    4    4    0    0  0.29775336175E+02  0.81717456589E+02  0.95161318695E+02  0.12891853991E+03  0.00000000000E+00 0.  1.
         13    1    4    4    0    0 -0.15188841263E+02  0.81186030161E+02  0.25213181998E+03  0.26531552355E+03  0.00000000000E+00 0. -1.
        -13    1    3    3    0    0 -0.42721446904E+01 -0.71028327007E+02  0.71921226435E+02  0.10117280894E+03  0.00000000000E+00 0. -1.
         13    1    3    3    0    0 -0.19792388201E+02 -0.74646233666E+02 -0.17576511991E+02  0.79200584625E+02  0.00000000000E+00 0.  1.
         21    1    1    2  502  501  0.29747916628E+02 -0.45717211208E+02 -0.12233910086E+01  0.54557296761E+02  0.00000000000E+00 0.  1.
         21    1    1    2  503  502 -0.20269878648E+02  0.28488285130E+02  0.10980959344E+03  0.11524147335E+03  0.00000000000E+00 0. -1.
<scales pt_clust_5="13000.00000" pt_clust_6="13000.00000" pt_clust_7="13000.00000" pt_clust_8="13000.00000" pt_clust_9="52.73403" pt_clust_10="34.96356"></scales>
<clustering>
<clus scale="   34.964">  1 10  2 -1</clus>
<clus scale="   52.734">  2  9  1 -1</clus>
<clus scale="   88.210">  7  8 -1 -1</clus>
<clus scale="   89.764">  5  6 -1 -1</clus>
<clus scale="  190.602">  2  7  1 -1</clus>
<clus scale="   34.964">  1  5  2 -1</clus>
</clustering>
</event>
<event>
10    2  0.1133532E-006  0.1150078E+03  0.7546771E-02  0.1252874E+00
          4   -1    0    0  503    0  0.00000000000E+00  0.00000000000E+00  0.25520900554E+03  0.25520900554E+03  0.00000000000E+00 0. -1.
         -4   -1    0    0    0  501 -0.00000000000E+00 -0.00000000000E+00 -0.44276731489E+03  0.44276731489E+03  0.00000000000E+00 0.  1.
         23    2    1    2    0    0  0.39946826161E+01 -0.54429140850E+02 -0.46453048111E+02  0.11355277870E+03  0.88078709164E+02 0.  0.
         23    2    1    2    0    0 -0.78845274205E+02  0.68071563010E+02  0.17717888826E+03  0.22510172317E+03  0.91804751368E+02 0.  0.
        -11    1    4    4    0    0 -0.22552826476E+02  0.31425101702E+01 -0.53191374305E+01  0.23383724580E+02  0.00000000000E+00 0.  1.
         11    1    4    4    0    0 -0.56292447728E+02  0.64929052840E+02  0.18249802569E+03  0.20171799859E+03  0.00000000000E+00 0. -1.
        -13    1    3    3    0    0 -0.34432334541E+02 -0.26153767329E+02  0.48317511733E+01  0.43508057033E+02  0.00000000000E+00 0. -1.
         13    1    3    3    0    0  0.38427017157E+02 -0.28275373521E+02 -0.51284799284E+02  0.70044721663E+02  0.00000000000E+00 0.  1.
         21    1    1    2  502  501  0.50454660676E+02  0.63984358614E+01 -0.32336797677E+03  0.32734303286E+03  0.00000000000E+00 0.  1.
         21    1    1    2  503  502  0.24395930913E+02 -0.20040858021E+02  0.50838272734E+01  0.31978785704E+02  0.00000000000E+00 0.  1.
<scales pt_clust_5="13000.00000" pt_clust_6="13000.00000" pt_clust_7="13000.00000" pt_clust_8="13000.00000" pt_clust_9="51.04118" pt_clust_10="31.57210"></scales>
<clustering>
<clus scale="   31.572">  1 10  2 -1</clus>
<clus scale="   51.041">  2  9  1 -1</clus>
<clus scale="   88.079">  7  8 -1 -1</clus>
<clus scale="   91.805">  5  6 -1 -1</clus>
<clus scale="  112.056">  2  7  1 -1</clus>
<clus scale="   31.572">  1  5  2 -1</clus>
</clustering>
</event>
<event>
10    2  0.1133532E-006  0.1391550E+03  0.7546771E-02  0.1226090E+00
          1   -1    0    0  503    0  0.00000000000E+00  0.00000000000E+00  0.41002490531E+03  0.41002490531E+03  0.00000000000E+00 0. -1.
         -1   -1    0    0    0  501 -0.00000000000E+00 -0.00000000000E+00 -0.11409988717E+03  0.11409988717E+03  0.00000000000E+00 0.  1.
         23    2    1    2    0    0  0.65263135687E+02 -0.11728295212E+02  0.62846719310E+02  0.12957819317E+03  0.91891067183E+02 0.  0.
         23    2    1    2    0    0  0.81097395481E+02 -0.13299160777E+02  0.85270961564E+02  0.14746766571E+03  0.87874457682E+02 0.  0.
        -11    1    3    3    0    0 -0.80593455863E+01 -0.35244009656E+02  0.23346373653E+02  0.43036570852E+02  0.00000000000E+00 0.  1.
         11    1    3    3    0    0  0.73322481273E+02  0.23515714444E+02  0.39500345656E+02  0.86541622315E+02  0.00000000000E+00 0. -1.
        -11    1    4    4    0    0  0.53469039980E+02 -0.21437692848E+02  0.15089633073E+00  0.57606732946E+02  0.00000000000E+00 0.  1.
         11    1    4    4    0    0  0.27628355501E+02  0.81385320706E+01  0.85120065234E+02  0.89860932765E+02  0.00000000000E+00 0. -1.
         21    1    1    2  502  501 -0.30784443241E+02 -0.32347238493E+02 -0.73746404456E+01  0.45259375885E+02  0.00000000000E+00 0.  1.
         21    1    1    2  503  502 -0.11557608793E+03  0.57374694481E+02  0.15518197772E+03  0.20181955771E+03  0.00000000000E+00 0.  1.
<scales pt_clust_5="13000.00000" pt_clust_6="13000.00000" pt_clust_7="13000.00000" pt_clust_8="13000.00000" pt_clust_9="44.65452" pt_clust_10="107.89898"></scales>
<clustering>
<clus scale="   44.655">  2  9  1 -1</clus>
<clus scale="   87.874">  7  8 -1 -1</clus>
<clus scale="   91.891">  5  6 -1 -1</clus>
<clus scale="  109.041">  2  5  1 -1</clus>
<clus scale="  107.899">  1 10  2 -1</clus>
<clus scale="  107.899">  1  5  2 -1</clus>
</clustering>
</event>
<event>
10    2  0.1133532E-006  0.1326420E+03  0.7546771E-02  0.1223773E+00
         -3   -1    0    0    0  501 -0.00000000000E+00  0.00000000000E+00  0.32741218322E+03  0.32741218322E+03  0.00000000000E+00 0.  1.
          3   -1    0    0  503    0  0.00000000000E+00 -0.00000000000E+00 -0.19594400523E+03  0.19594400523E+03  0.00000000000E+00 0. -1.
         23    2    1    2    0    0 -0.59319003005E+01  0.63547190054E+02  0.24758704271E+03  0.27169314238E+03  0.91893346299E+02 0.  0.
         23    2    1    2    0    0  0.26366922310E+01 -0.11052198199E+03 -0.12492717521E+03  0.19009933390E+03  0.91153151313E+02 0.  0.
        -11    1    3    3    0    0 -0.32927572952E+02 -0.53304842899E+01  0.44952161428E+02  0.55976208699E+02  0.00000000000E+00 0. -1.
         11    1    3    3    0    0  0.26995672652E+02  0.68877674343E+02  0.20263488128E+03  0.21571693368E+03  0.00000000000E+00 0.  1.
        -11    1    4    4    0    0 -0.24633374396E+02 -0.94609973027E+02 -0.52228766927E+02  0.11084085089E+03  0.00000000000E+00 0.  1.
         11    1    4    4    0    0  0.27270066627E+02 -0.15912008967E+02 -0.72698408285E+02  0.79258483018E+02  0.00000000000E+00 0. -1.
         21    1    1    2  502  501 -0.11880237883E+02  0.33271867936E+02  0.17404371773E+02  0.39383618484E+02  0.00000000000E+00 0.  1.
         21    1    1    2  503  502  0.15175445953E+02  0.13702924004E+02 -0.85960612768E+01  0.22180093679E+02  0.00000000000E+00 0. -1.
<scales pt_clust_5="13000.00000" pt_clust_6="13000.00000" pt_clust_7="13000.00000" pt_clust_8="13000.00000" pt_clust_9="35.82261" pt_clust_10="20.44662"></scales>
<clustering>
<clus scale="   20.447">  2 10  1 -1</clus>
<clus scale="   35.823">  1  9  2 -1</clus>
<clus scale="   91.153">  7  8 -1 -1</clus>
<clus scale="   91.893">  5  6 -1 -1</clus>
<clus scale="  132.130">  2  7  1 -1</clus>
<clus scale="   20.447">  2  5  1 -1</clus>
</clustering>
</event>
<event>
10    2  0.1133532E-006  0.1655887E+03  0.7546771E-02  0.1182588E+00
          2   -1    0    0  503    0  0.00000000000E+00  0.00000000000E+00  0.84273381419E+03  0.84273381419E+03  0.00000000000E+00 0. -1.
         -2   -1    0    0    0  501 -0.00000000000E+00 -0.00000000000E+00 -0.14499555108E+03  0.14499555108E+03  0.00000000000E+00 0.  1.
         23    2    1    2    0    0  0.53955065735E+02  0.13422905670E+03  0.13630854557E+03  0.21851973594E+03  0.90786929771E+02 0.  0.
         23    2    1    2    0    0 -0.95162222905E+02 -0.79244644069E+02  0.28592953695E+03  0.32443666984E+03  0.90376381626E+02 0.  0.
        -11    1    4    4    0    0 -0.66937949957E+02 -0.44902867633E+02  0.79274543093E+02  0.11305489750E+03  0.00000000000E+00 0.  1.
         11    1    4    4    0    0 -0.28224272947E+02 -0.34341776435E+02  0.20665499386E+03  0.21138177234E+03  0.00000000000E+00 0. -1.
        -11    1    3    3    0    0  0.73054268145E+02  0.61968427211E+02  0.70609335244E+02  0.11900710184E+03  0.00000000000E+00 0.  1.
         11    1    3    3    0    0 -0.19099202410E+02  0.72260629494E+02  0.65699210328E+02  0.99512634099E+02  0.00000000000E+00 0. -1.
         21    1    1    2  502  501  0.13315146395E+02  0.26426703955E+02 -0.76700645082E+02  0.82211025790E+02  0.00000000000E+00 0.  1.
         21    1    1    2  503  502  0.27892010776E+02 -0.81411116591E+02  0.35220082567E+03  0.36256193371E+03  0.00000000000E+00 0. -1.
<scales pt_clust_5="13000.00000" pt_clust_6="13000.00000" pt_clust_7="13000.00000" pt_clust_8="13000.00000" pt_clust_9="29.59162" pt_clust_10="84.43815"></scales>
<clustering>
<clus scale="   29.592">  2  9  1 -1</clus>
<clus scale="   84.438">  1 10  2 -1</clus>
<clus scale="   90.376">  5  6 -1 -1</clus>
<clus scale="   90.787">  7  8 -1 -1</clus>
<clus scale="  165.364">  1  5  2 -1</clus>
<clus scale="   84.438">  1  5  2 -1</clus>
</clustering>
</event>
<event>
10    2  0.1133532E-006  0.2657018E+03  0.7546771E-02  0.1104009E+00
          1   -1    0    0  503    0  0.00000000000E+00  0.00000000000E+00  0.47388916042E+03  0.47388916042E+03  0.00000000000E+00 0. -1.
         -1   -1    0    0    0  501 -0.00000000000E+00 -0.00000000000E+00 -0.23788998808E+03  0.23788998808E+03  0.00000000000E+00 0.  1.
         23    2    1    2    0    0 -0.62560719300E+01  0.22096847724E+03 -0.60330006272E+02  0.24712847329E+03  0.92555746904E+02 0.  0.
         23    2    1    2    0    0 -0.16440595853E+02 -0.26870318172E+03  0.23539869255E+03  0.36819860298E+03  0.87669685341E+02 0.  0.
        -11    1    4    4    0    0 -0.31377842877E+02 -0.32353799070E+02  0.25719080931E+02  0.51892277478E+02  0.00000000000E+00 0.  1.
         11    1    4    4    0    0  0.14937247024E+02 -0.23634938265E+03  0.20967961162E+03  0.31630632551E+03  0.00000000000E+00 0. -1.
        -13    1    3    3    0    0 -0.46035818597E+02  0.75218811580E+02 -0.15528664524E+02  0.89544992218E+02  0.00000000000E+00 0. -1.
         13    1    3    3    0    0  0.39779746667E+02  0.14574966566E+03 -0.44801341748E+02  0.15758348107E+03  0.00000000000E+00 0.  1.
         21    1    1    2  502  501  0.36700954052E+01  0.34702686591E+02  0.41193156716E+01  0.35138509054E+02  0.00000000000E+00 0.  1.
         21    1    1    2  503  502  0.19026572378E+02  0.13032017890E+02  0.56811170394E+02  0.61313563167E+02  0.00000000000E+00 0.  1.
<scales pt_clust_5="13000.00000" pt_clust_6="13000.00000" pt_clust_7="13000.00000" pt_clust_8="13000.00000" pt_clust_9="35.61382" pt_clust_10="23.06174"></scales>
<clustering>
<clus scale="   23.062">  1 10  2 -1</clus>
<clus scale="   35.614">  2  9  1 -1</clus>
<clus scale="   87.670">  5  6 -1 -1</clus>
<clus scale="   92.556">  7  8 -1 -1</clus>
<clus scale="  264.039">  1  5  2 -1</clus>
<clus scale="   23.062">  1  5  2 -1</clus>
</clustering>
</event>
<event>
10    2  0.1133532E-006  0.2299384E+03  0.7546771E-02  0.1126771E+00
         -2   -1    0    0    0  501 -0.00000000000E+00  0.00000000000E+00  0.10767430155E+03  0.10767430155E+03  0.00000000000E+00 0.  1.
          2   -1    0    0  503    0  0.00000000000E+00 -0.00000000000E+00 -0.12094733910E+04  0.12094733910E+04  0.00000000000E+00 0. -1.
         23    2    1    2    0    0 -0.14732420294E+03  0.12847435964E+03 -0.14004776943E+03  0.25734922327E+03  0.91679676806E+02 0.  0.
         23    2    1    2    0    0  0.11060334884E+03 -0.22665452428E+03 -0.75192130451E+03  0.79822673601E+03  0.90415152259E+02 0.  0.
        -11    1    4    4    0    0 -0.13730941479E+02 -0.42373210952E+02 -0.10081608905E+03  0.11021756472E+03  0.00000000000E+00 0.  1.
         11    1    4    4    0    0  0.12433429032E+03 -0.18428131332E+03 -0.65110521546E+03  0.68800917129E+03  0.00000000000E+00 0. -1.
        -11    1    3    3    0    0 -0.48985280807E+02 -0.32885669578E+01 -0.49199293235E+02  0.69504984448E+02  0.00000000000E+00 0. -1.
         11    1    3    3    0    0 -0.98338922135E+02  0.13176292660E+03 -0.90848476195E+02  0.18784423882E+03  0.00000000000E+00 0.  1.
         21    1    1    2  502  501  0.18345241745E+02  0.31931188042E+02  0.39232568388E+01  0.37034316635E+02  0.00000000000E+00 0. -1.
         21    1    1    2  503  502  0.18375612355E+02  0.66248976593E+02 -0.21375327239E+03  0.22453741668E+03  0.00000000000E+00 0.  1.
<scales pt_clust_5="13000.00000" pt_clust_6="13000.00000" pt_clust_7="13000.00000" pt_clust_8="13000.00000" pt_clust_9="36.82592" pt_clust_10="70.95842"></scales>
<clustering>
<clus scale="   36.826">  1  9  2 -1</clus>
<clus scale="   70.958">  2 10  1 -1</clus>
<clus scale="   90.415">  5  6 -1 -1</clus>
<clus scale="   91.680">  7  8 -1 -1</clus>
<clus scale="  229.437">  2  5  1 -1</clus>
<clus scale="   70.958">  2  5  1 -1</clus>
</clustering>
</event>
<event>
10    2  0.1133532E-006  0.2015369E+03  0.7546771E-02  0.1148454E+00
         -3   -1    0    0    0  501 -0.00000000000E+00  0.00000000000E+00  0.34906645353E+03  0.34906645353E+03  0.00000000000E+00 0.  1.
          3   -1    0    0  502    0  0.00000000000E+00 -0.00000000000E+00 -0.17769547049E+03  0.17769547049E+03  0.00000000000E+00 0. -1.
         23    2    1    2    0    0  0.71541909679E+02 -0.15379439737E+03  0.12730439398E+03  0.23084125257E+03  0.91160921770E+02 0.  0.
         23    2    1    2    0    0 -0.74125506522E+02  0.16975210486E+03 -0.13193483798E+02  0.20684613056E+03  0.91109197624E+02 0.  0.
        -11    1    4    4    0    0  0.14069511091E+02  0.75673438068E+02 -0.11905819690E+02  0.77885614293E+02  0.00000000000E+00 0.  1.
         11    1    4    4    0    0 -0.88195017613E+02  0.94078666792E+02 -0.12876641087E+01  0.12896051627E+03  0.00000000000E+00 0. -1.
        -11    1    3    3    0    0 -0.68004410515E+01 -0.53524771847E+02  0.76979254530E+02  0.94005068096E+02  0.00000000000E+00 0. -1.
         11    1    3    3    0    0  0.78342350731E+02 -0.10026962552E+03  0.50325139454E+02  0.13683618447E+03  0.00000000000E+00 0.  1.
         21    1    1    2  502  503  0.30360304461E+02 -0.19240200547E+02  0.47249580110E+02  0.59367130844E+02  0.00000000000E+00 0.  1.
         21    1    1    2  503  501 -0.27776707618E+02  0.32824930557E+01  0.10010492741E+02  0.29707410047E+02  0.00000000000E+00 0.  1.
<scales pt_clust_5="13000.00000" pt_clust_6="13000.00000" pt_clust_7="13000.00000" pt_clust_8="13000.00000" pt_clust_9="31.91990" pt_clust_10="27.96999"></scales>
<clustering>
<clus scale="   27.970">  1 10  2 -1</clus>
<clus scale="   31.920">  1  9  2 -1</clus>
<clus scale="   91.109">  5  6 -1 -1</clus>
<clus scale="   91.161">  7  8 -1 -1</clus>
<clus scale="  201.513">  2  5  1 -1</clus>
<clus scale="  201.513">  2  5  1 -1</clus>
</clustering>
</event>
<event>
10    2  0.1133532E-006  0.1497122E+03  0.7546771E-02  0.1204510E+00
          1   -1    0    0  503    0  0.00000000000E+00  0.00000000000E+00  0.13131984370E+03  0.13131984370E+03  0.00000000000E+00 0. -1.
         -1   -1    0    0    0  501 -0.00000000000E+00 -0.00000000000E+00 -0.33627217858E+03  0.33627217858E+03  0.00000000000E+00 0.  1.
         23    2    1    2    0    0  0.99752794403E+02  0.52310919959E+02 -0.18640243282E+03  0.24240817966E+03  0.10643686517E+03 0.  0.
         23    2    1    2    0    0 -0.10040115438E+03 -0.45999040612E+00 -0.49306609553E+02  0.14332130869E+03  0.89606095707E+02 0.  0.
        -11    1    3    3    0    0  0.58930668812E+02 -0.21269268072E+02 -0.42489162907E+02  0.75700293629E+02  0.00000000000E+00 0.  1.
         11    1    3    3    0    0  0.40822125591E+02  0.73580188031E+02 -0.14391326991E+03  0.16670788603E+03  0.00000000000E+00 0. -1.
        -13    1    4    4    0    0 -0.14472742334E+02 -0.28628826346E+02 -0.41647487914E+02  0.52569793780E+02  0.00000000000E+00 0.  1.
         13    1    4    4    0    0 -0.85928412041E+02  0.28168835940E+02 -0.76591216397E+01  0.90751514910E+02  0.00000000000E+00 0. -1.
         21    1    1    2  502  501 -0.69006439739E+01 -0.32756832606E+02 -0.11077744330E+02  0.35261103061E+02  0.00000000000E+00 0. -1.
         21    1    1    2  503  502  0.75490039468E+01 -0.19094096946E+02  0.41834451826E+02  0.46601430861E+02  0.00000000000E+00 0. -1.
<scales pt_clust_5="13000.00000" pt_clust_6="13000.00000" pt_clust_7="13000.00000" pt_clust_8="13000.00000" pt_clust_9="35.88797" pt_clust_10="20.53222"></scales>
<clustering>
<clus scale="   20.532">  1 10  2 -1</clus>
<clus scale="   35.888">  1  9  2 -1</clus>
<clus scale="   89.606">  7  8 -1 -1</clus>
<clus scale="  106.437">  5  6 -1 -1</clus>
<clus scale="  138.254">  1  7  2 -1</clus>
<clus scale="   20.532">  1  5  2 -1</clus>
</clustering>
</event>
<event>
10    2  0.1133532E-006  0.1978642E+03  0.7546771E-02  0.1152457E+00
         -2   -1    0    0    0  501 -0.00000000000E+00  0.00000000000E+00  0.16314709318E+03  0.16314709318E+03  0.00000000000E+00 0.  1.
          2   -1    0    0  503    0  0.00000000000E+00 -0.00000000000E+00 -0.37247083548E+03  0.37247083548E+03  0.00000000000E+00 0. -1.
         23    2    1    2    0    0 -0.12461128940E+03  0.10805997779E+03 -0.82908046846E+02  0.20573486777E+03  0.90819377550E+02 0.  0.
         23    2    1    2    0    0  0.13100897847E+03 -0.12707452476E+03 -0.95149453151E+02  0.22857725503E+03  0.99412553523E+02 0.  0.
        -13    1    4    4    0    0 -0.11218457182E+02 -0.17405923620E+02  0.71244362687E+01  0.21899259137E+02  0.00000000000E+00 0.  1.
         13    1    4    4    0    0  0.14222743565E+03 -0.10966860114E+03 -0.10227388942E+03  0.20667799589E+03  0.00000000000E+00 0. -1.
        -13    1    3    3    0    0 -0.12628533543E+03  0.65291121416E+02 -0.46599934385E+02  0.14960772161E+03  0.00000000000E+00 0.  1.
         13    1    3    3    0    0  0.16740460283E+01  0.42768856376E+02 -0.36308112461E+02  0.56127146162E+02  0.00000000000E+00 0. -1.
         21    1    1    2  502  501  0.16791291464E+02 -0.17395129079E+02  0.22038444402E+02  0.32714385465E+02  0.00000000000E+00 0. -1.
         21    1    1    2  503  502 -0.23188980531E+02  0.36409676046E+02 -0.53304686697E+02  0.68591420395E+02  0.00000000000E+00 0.  1.
<scales pt_clust_5="13000.00000" pt_clust_6="13000.00000" pt_clust_7="13000.00000" pt_clust_8="13000.00000" pt_clust_9="24.17722" pt_clust_10="41.83414"></scales>
<clustering>
<clus scale="   24.177">  1  9  2 -1</clus>
<clus scale="   41.834">  2 10  1 -1</clus>
<clus scale="   90.819">  7  8 -1 -1</clus>
<clus scale="   99.413">  5  6 -1 -1</clus>
<clus scale="  193.689">  1  7  2 -1</clus>
<clus scale="   41.834">  2  5  1 -1</clus>
</clustering>
</event>
<event>
10    2  0.1133532E-006  0.1136715E+03  0.7546771E-02  0.1254492E+00
          1   -1    0    0  503    0  0.00000000000E+00  0.00000000000E+00  0.50563306351E+03  0.50563306351E+03  0.00000000000E+00 0. -1.
         -1   -1    0    0    0  501 -0.00000000000E+00 -0.00000000000E+00 -0.22707679590E+03  0.22707679590E+03  0.00000000000E+00 0.  1.
         23    2    1    2    0    0  0.12277624563E+02 -0.40173426876E+02 -0.14929046956E+03  0.17907398386E+03  0.89527666687E+02 0.  0.
         23    2    1    2    0    0  0.98642609867E+01  0.52010532957E+02  0.40505394472E+03  0.41854181730E+03  0.91138112304E+02 0.  0.
        -11    1    4    4    0    0 -0.33579259347E+02  0.18121158927E+02  0.77476173507E+02  0.86362610662E+02  0.00000000000E+00 0.  1.
         11    1    4    4    0    0  0.43443520334E+02  0.33889374030E+02  0.32757777121E+03  0.33217920664E+03  0.00000000000E+00 0. -1.
        -13    1    3    3    0    0 -0.23190846300E+02  0.87412500024E+01 -0.90721225298E+01  0.26391820909E+02  0.00000000000E+00 0.  1.
         13    1    3    3    0    0  0.35468470863E+02 -0.48914676879E+02 -0.14021834703E+03  0.15268216296E+03  0.00000000000E+00 0. -1.
         21    1    1    2  502  501  0.56062325910E+00 -0.29341300658E+02 -0.49376734191E+02  0.57439429855E+02  0.00000000000E+00 0.  1.
         21    1    1    2  503  502 -0.22702508809E+02  0.17504194577E+02  0.72169526649E+02  0.77654628392E+02  0.00000000000E+00 0. -1.
<scales pt_clust_5="13000.00000" pt_clust_6="13000.00000" pt_clust_7="13000.00000" pt_clust_8="13000.00000" pt_clust_9="29.17955" pt_clust_10="28.66707"></scales>
<clustering>
<clus scale="   28.667">  1 10  2 -1</clus>
<clus scale="   29.180">  2  9  1 -1</clus>
<clus scale="   89.528">  7  8 -1 -1</clus>
<clus scale="   91.138">  5  6 -1 -1</clus>
<clus scale="  112.384">  2  7  1 -1</clus>
<clus scale="   28.667">  1  5  2 -1</clus>
</clustering>
</event>
<event>
10    2  0.1133532E-006  0.1746865E+03  0.7546771E-02  0.1173139E+00
          1   -1    0    0  503    0  0.00000000000E+00  0.00000000000E+00  0.36864722591E+03  0.36864722591E+03  0.00000000000E+00 0. -1.
         -1   -1    0    0    0  501 -0.00000000000E+00 -0.00000000000E+00 -0.13137810167E+03  0.13137810167E+03  0.00000000000E+00 0.  1.
         23    2    1    2    0    0  0.15690895807E+03 -0.11317797964E+00  0.37740857287E+02  0.18554191825E+03  0.91547786355E+02 0.  0.
         23    2    1    2    0    0 -0.14908462076E+03 -0.99963783866E+01  0.13037288332E+03  0.21812030664E+03  0.90847276998E+02 0.  0.
        -11    1    3    3    0    0  0.79833665168E+02 -0.44391635401E+02  0.30734613750E+02  0.96377631585E+02  0.00000000000E+00 0.  1.
         11    1    3    3    0    0  0.77075292906E+02  0.44278457421E+02  0.70062435376E+01  0.89164286666E+02  0.00000000000E+00 0. -1.
        -11    1    4    4    0    0 -0.10301824923E+03 -0.11882520410E+02  0.30459064848E+02  0.10808195316E+03  0.00000000000E+00 0.  1.
         11    1    4    4    0    0 -0.46066371523E+02  0.18861420236E+01  0.99913818467E+02  0.11003835349E+03  0.00000000000E+00 0. -1.
         21    1    1    2  502  501 -0.20626177274E+02 -0.16849402213E+02  0.71924609792E+01  0.27587552244E+02  0.00000000000E+00 0.  1.
         21    1    1    2  503  502  0.12801839957E+02  0.26958958580E+02  0.61962922663E+02  0.68775550444E+02  0.00000000000E+00 0. -1.
<scales pt_clust_5="13000.00000" pt_clust_6="13000.00000" pt_clust_7="13000.00000" pt_clust_8="13000.00000" pt_clust_9="26.63347" pt_clust_10="29.16936"></scales>
<clustering>
<clus scale="   26.633">  2  9  1 -1</clus>
<clus scale="   29.169">  1 10  2 -1</clus>
<clus scale="   90.847">  7  8 -1 -1</clus>
<clus scale="   91.548">  5  6 -1 -1</clus>
<clus scale="  174.320">  1  7  2 -1</clus>
<clus scale="   29.169">  1  5  2 -1</clus>
</clustering>
</event>
<event>
10    2  0.2240003E-006  0.9766173E+02  0.7546771E-02  0.1291980E+00
         -2   -1    0    0    0  501 -0.00000000000E+00  0.00000000000E+00  0.17039485211E+03  0.17039485211E+03  0.00000000000E+00 0.  1.
          2   -1    0    0  503    0  0.00000000000E+00 -0.00000000000E+00 -0.44909938015E+03  0.44909938015E+03  0.00000000000E+00 0. -1.
         23    2    1    2    0    0 -0.57846166593E+02 -0.83475868543E+01  0.12372127188E+03  0.16502538507E+03  0.92252714894E+02 0.  0.
         23    2    1    2    0    0 -0.66305502265E+01 -0.27506293070E+02 -0.10397027588E+03  0.13417542287E+03  0.79954146118E+02 0.  0.
        -13    1    4    4    0    0 -0.30333322246E+02 -0.43649037354E+02 -0.49579661779E+02  0.72687631428E+02  0.00000000000E+00 0.  1.
         13    1    4    4    0    0  0.23702772019E+02  0.16142744284E+02 -0.54390614097E+02  0.61487791441E+02  0.00000000000E+00 0. -1.
        -13    1    3    3    0    0 -0.42416575628E+02 -0.32512964132E+02  0.12539121203E+03  0.13630559335E+03  0.00000000000E+00 0.  1.
         13    1    3    3    0    0 -0.15429590965E+02  0.24165377277E+02 -0.16699401462E+01  0.28719791719E+02  0.00000000000E+00 0. -1.
         21    1    1    2  502  501  0.20156515502E+02  0.20619108899E+02 -0.14092050184E+02  0.32093903585E+02  0.00000000000E+00 0. -1.
         21    1    1    2  503  502  0.44320201317E+02  0.15234771025E+02 -0.28436347385E+03  0.28819952074E+03  0.00000000000E+00 0. -1.
<scales pt_clust_5="13000.00000" pt_clust_6="13000.00000" pt_clust_7="13000.00000" pt_clust_8="13000.00000" pt_clust_9="28.83458" pt_clust_10="47.17198"></scales>
<clustering>
<clus scale="   28.835">  1  9  2 -1</clus>
<clus scale="   47.172">  2 10  1 -1</clus>
<clus scale="   79.954">  5  6 -1 -1</clus>
<clus scale="   86.139">  2  5  1 -1</clus>
<clus scale="   92.253">  7  8 -1 -1</clus>
<clus scale="   47.172">  2  5  1 -1</clus>
</clustering>
</event>
<event>
10    2  0.1133532E-006  0.1081887E+03  0.7546771E-02  0.1264937E+00
         -3   -1    0    0    0  501 -0.00000000000E+00  0.00000000000E+00  0.97224816740E+02  0.97224816740E+02  0.00000000000E+00 0.  1.
          3   -1    0    0  503    0  0.00000000000E+00 -0.00000000000E+00 -0.33859250939E+03  0.33859250939E+03  0.00000000000E+00 0. -1.
         23    2    1    2    0    0 -0.64916407605E+02 -0.36418054386E+02  0.13169750996E+02  0.12239332423E+03  0.96261460680E+02 0.  0.
         23    2    1    2    0    0  0.24684123306E+02 -0.36614295047E+01 -0.21166257923E+03  0.23292194830E+03  0.93962091013E+02 0.  0.
        -11    1    4    4    0    0  0.55620329553E+02 -0.12716233174E+02 -0.17518943557E+03  0.18424619937E+03  0.00000000000E+00 0.  1.
         11    1    4    4    0    0 -0.30936206247E+02  0.90548036689E+01 -0.36473143657E+02  0.48675748938E+02  0.00000000000E+00 0. -1.
        -13    1    3    3    0    0 -0.17403885380E+02  0.27339720406E+02  0.26381323389E+02  0.41789110567E+02  0.00000000000E+00 0.  1.
         13    1    3    3    0    0 -0.47512522226E+02 -0.63757774791E+02 -0.13211572394E+02  0.80604213660E+02  0.00000000000E+00 0. -1.
         21    1    1    2  502  501  0.17661140381E+02  0.16711333480E+02  0.27741843549E+01  0.24472038025E+02  0.00000000000E+00 0. -1.
         21    1    1    2  503  502  0.22571143918E+02  0.23368150411E+02 -0.45649048773E+02  0.56030015575E+02  0.00000000000E+00 0. -1.
<scales pt_clust_5="13000.00000" pt_clust_6="13000.00000" pt_clust_7="13000.00000" pt_clust_8="13000.00000" pt_clust_9="24.31429" pt_clust_10="33.99699"></scales>
<clustering>
<clus scale="   24.314">  1  9  2 -1</clus>
<clus scale="   33.997">  2 10  1 -1</clus>
<clus scale="   93.962">  5  6 -1 -1</clus>
<clus scale="   96.261">  7  8 -1 -1</clus>
<clus scale="  106.148">  2  5  1 -1</clus>
<clus scale="   33.997">  2  5  1 -1</clus>
</clustering>
</event>
<event>
10    2  0.1133532E-006  0.1348828E+03  0.7546771E-02  0.1220531E+00
         -1   -1    0    0    0  501 -0.00000000000E+00  0.00000000000E+00  0.17668077433E+03  0.17668077433E+03  0.00000000000E+00 0.  1.
          1   -1    0    0  502    0  0.00000000000E+00 -0.00000000000E+00 -0.34848533349E+03  0.34848533349E+03  0.00000000000E+00 0. -1.
         23    2    1    2    0    0 -0.69903234742E+02  0.36724583941E+02  0.56355075398E+02  0.13321571473E+03  0.91298274002E+02 0.  0.
         23    2    1    2    0    0  0.10651696040E+03 -0.10615367789E+03 -0.11322036274E+03  0.20894401177E+03  0.90687834532E+02 0.  0.
        -13    1    4    4    0    0  0.11592787254E+03 -0.83075340285E+02 -0.11603648081E+03  0.18386203706E+03  0.00000000000E+00 0. -1.
         13    1    4    4    0    0 -0.94109121381E+01 -0.23078337605E+02  0.28161180745E+01  0.25081974701E+02  0.00000000000E+00 0.  1.
        -13    1    3    3    0    0 -0.14441253979E+02  0.45023684887E+02 -0.78910344616E+01  0.47936942353E+02  0.00000000000E+00 0. -1.
         13    1    3    3    0    0 -0.55461980763E+02 -0.82991009458E+01  0.64246109859E+02  0.85278772380E+02  0.00000000000E+00 0.  1.
         21    1    1    2  502  503 -0.12434472265E+02  0.89261240120E+02 -0.12127845704E+03  0.15109814436E+03  0.00000000000E+00 0.  1.
         21    1    1    2  503  501 -0.24179253390E+02 -0.19832146172E+02  0.63391852162E+01  0.31908236953E+02  0.00000000000E+00 0. -1.
<scales pt_clust_5="13000.00000" pt_clust_6="13000.00000" pt_clust_7="13000.00000" pt_clust_8="13000.00000" pt_clust_9="88.61605" pt_clust_10="31.27220"></scales>
<clustering>
<clus scale="   31.272">  1 10  2 -1</clus>
<clus scale="   88.616">  2  9  1 -1</clus>
<clus scale="   90.688">  5  6 -1 -1</clus>
<clus scale="   91.298">  7  8 -1 -1</clus>
<clus scale="  134.470">  2  5  1 -1</clus>
<clus scale="   88.616">  2  5  1 -1</clus>
</clustering>
</event>
<event>
10    2  0.1133532E-006  0.1052221E+03  0.7546771E-02  0.1269858E+00
         -2   -1    0    0    0  501 -0.00000000000E+00  0.00000000000E+00  0.27119675174E+03  0.27119675174E+03  0.00000000000E+00 0.  1.
          2   -1    0    0  503    0  0.00000000000E+00 -0.00000000000E+00 -0.16124733404E+03  0.16124733404E+03  0.00000000000E+00 0. -1.
         23    2    1    2    0    0  0.52230628614E+02  0.25815499039E+02  0.66614679184E+02  0.12878975005E+03  0.93567118585E+02 0.  0.
         23    2    1    2    0    0 -0.45522597597E+02  0.49739326224E+02  0.26693344568E+02  0.11869471254E+03  0.93965912305E+02 0.  0.
        -11    1    3    3    0    0  0.65482725120E+02 -0.98854773668E+01  0.61481433997E+02  0.90364133804E+02  0.00000000000E+00 0. -1.
         11    1    3    3    0    0 -0.13252096506E+02  0.35700976405E+02  0.51332451875E+01  0.38425616251E+02  0.00000000000E+00 0.  1.
        -13    1    4    4    0    0 -0.16089169537E+02  0.23304656268E+02  0.60407600261E+02  0.66716164079E+02  0.00000000000E+00 0.  1.
         13    1    4    4    0    0 -0.29433428060E+02  0.26434669956E+02 -0.33714255693E+02  0.51978548460E+02  0.00000000000E+00 0. -1.
         21    1    1    2  502  501 -0.17108679960E+02 -0.26605044553E+02  0.90429932152E+02  0.95802442320E+02  0.00000000000E+00 0.  1.
         21    1    1    2  503  502  0.10400648943E+02 -0.48949780710E+02 -0.73788538203E+02  0.89157180867E+02  0.00000000000E+00 0. -1.
<scales pt_clust_5="13000.00000" pt_clust_6="13000.00000" pt_clust_7="13000.00000" pt_clust_8="13000.00000" pt_clust_9="31.63124" pt_clust_10="51.02110"></scales>
<clustering>
<clus scale="   31.631">  1  9  2 -1</clus>
<clus scale="   51.021">  2 10  1 -1</clus>
<clus scale="   93.567">  5  6 -1 -1</clus>
<clus scale="   93.966">  7  8 -1 -1</clus>
<clus scale="  104.866">  1  5  2 -1</clus>
<clus scale="   51.021">  2  5  1 -1</clus>
</clustering>
</event>
<event>
10    2  0.1133532E-006  0.1110027E+03  0.7546771E-02  0.1264816E+00
         -1   -1    0    0    0  501 -0.00000000000E+00  0.00000000000E+00  0.29774639949E+03  0.29774639949E+03  0.00000000000E+00 0.  1.
          1   -1    0    0  503    0  0.00000000000E+00 -0.00000000000E+00 -0.27210676234E+03  0.27210676234E+03  0.00000000000E+00 0. -1.
         23    2    1    2    0    0  0.22026101499E+01  0.31345851355E+02  0.21132916281E+03  0.23255789116E+03  0.91846305301E+02 0.  0.
         23    2    1    2    0    0  0.25975453537E+00 -0.35873908662E+02 -0.22016488265E+03  0.24660174933E+03  0.10513249938E+03 0.  0.
        -11    1    4    4    0    0 -0.17392757425E+02  0.29245067026E+02 -0.12759238819E+03  0.13205150313E+03  0.00000000000E+00 0. -1.
         11    1    4    4    0    0  0.17652511960E+02 -0.65118975688E+02 -0.92572494463E+02  0.11455024620E+03  0.00000000000E+00 0.  1.
        -13    1    3    3    0    0  0.38442536641E+02  0.32094484176E+02  0.17168902754E+03  0.17884352578E+03  0.00000000000E+00 0.  1.
         13    1    3    3    0    0 -0.36239926491E+02 -0.74863282048E+00  0.39640135271E+02  0.53714365374E+02  0.00000000000E+00 0. -1.
         21    1    1    2  502  501 -0.34865791564E+02 -0.16256877539E+02  0.35266838266E+02  0.52188690058E+02  0.00000000000E+00 0.  1.
         21    1    1    2  503  502  0.32403426879E+02  0.20784934845E+02 -0.79148127537E+00  0.38504831290E+02  0.00000000000E+00 0.  1.
<scales pt_clust_5="13000.00000" pt_clust_6="13000.00000" pt_clust_7="13000.00000" pt_clust_8="13000.00000" pt_clust_9="38.46959" pt_clust_10="35.66862"></scales>
<clustering>
<clus scale="   38.470">  1  9  2 -1</clus>
<clus scale="   35.669">  1 10  2 -1</clus>
<clus scale="   91.846">  7  8 -1 -1</clus>
<clus scale="   98.511">  1  7  2 -1</clus>
<clus scale="  105.132">  5  6 -1 -1</clus>
<clus scale="  111.003">  2  5  1 -1</clus>
</clustering>
</event>
<event>
10    2  0.1133532E-006  0.4295158E+03  0.7546771E-02  0.1034081E+00
         -2   -1    0    0    0  501 -0.00000000000E+00  0.00000000000E+00  0.14687010503E+04  0.14687010503E+04  0.00000000000E+00 0.  1.
          2   -1    0    0  503    0  0.00000000000E+00 -0.00000000000E+00 -0.44010891624E+03  0.44010891624E+03  0.00000000000E+00 0. -1.
         23    2    1    2    0    0 -0.97822403718E+02 -0.29967217542E+03  0.87163988957E+03  0.93217442296E+03  0.99098044072E+02 0.  0.
         23    2    1    2    0    0  0.28855713323E+03  0.42763815814E+03 -0.17676464833E+03  0.55359472426E+03  0.95298291662E+02 0.  0.
        -11    1    4    4    0    0  0.20958609480E+03  0.31313047690E+03 -0.17256109773E+03  0.41443257491E+03  0.00000000000E+00 0. -1.
         11    1    4    4    0    0  0.78971038434E+02  0.11450768124E+03 -0.42035505980E+01  0.13916214935E+03  0.00000000000E+00 0.  1.
        -11    1    3    3    0    0 -0.11297089120E+03 -0.25072085441E+03  0.67263264608E+03  0.72667602525E+03  0.00000000000E+00 0.  1.
         11    1    3    3    0    0  0.15148487480E+02 -0.48951321017E+02  0.19900724349E+03  0.20549839771E+03  0.00000000000E+00 0. -1.
         21    1    1    2  502  501 -0.11745886290E+03 -0.73433656588E+02  0.29082485170E+03  0.32213068894E+03  0.00000000000E+00 0. -1.
         21    1    1    2  503  502 -0.73275866617E+02 -0.54532326132E+02  0.42892041131E+02  0.10091013038E+03  0.00000000000E+00 0.  1.
<scales pt_clust_5="13000.00000" pt_clust_6="13000.00000" pt_clust_7="13000.00000" pt_clust_8="13000.00000" pt_clust_9="141.99140" pt_clust_10="91.34072"></scales>
<clustering>
<clus scale="   91.341">  2 10  1 -1</clus>
<clus scale="   95.298">  5  6 -1 -1</clus>
<clus scale="   99.098">  7  8 -1 -1</clus>
<clus scale="  141.991">  1  9  2 -1</clus>
<clus scale="  428.655">  2  5  1 -1</clus>
<clus scale="   91.341">  2  5  1 -1</clus>
</clustering>
</event>
<event>
10    2  0.1133532E-006  0.3537906E+03  0.7546771E-02  0.1061190E+00
          2   -1    0    0  503    0  0.00000000000E+00  0.00000000000E+00  0.53886838947E+03  0.53886838947E+03  0.00000000000E+00 0. -1.
         -2   -1    0    0    0  501 -0.00000000000E+00 -0.00000000000E+00 -0.43437351003E+03  0.43437351003E+03  0.00000000000E+00 0.  1.
         23    2    1    2    0    0 -0.20330834177E+03 -0.28124181368E+03 -0.15109581987E+03  0.38888465652E+03  0.89275358865E+02 0.  0.
         23    2    1    2    0    0  0.24626453664E+03  0.29837355123E+03  0.24132733986E+03  0.46552843649E+03  0.93834120344E+02 0.  0.
        -11    1    3    3    0    0 -0.10763299060E+02 -0.74267427455E+02 -0.22669704436E+02  0.78392696641E+02  0.00000000000E+00 0. -1.
         11    1    3    3    0    0 -0.19254504271E+03 -0.20697438623E+03 -0.12842611543E+03  0.31049195988E+03  0.00000000000E+00 0.  1.
        -13    1    4    4    0    0  0.21858605031E+02  0.45107441491E+02  0.37632186560E+00  0.50126056197E+02  0.00000000000E+00 0.  1.
         13    1    4    4    0    0  0.22440593161E+03  0.25326610974E+03  0.24095101800E+03  0.41540238030E+03  0.00000000000E+00 0. -1.
         21    1    1    2  502  501  0.18298566149E+02  0.28965536498E+02 -0.14152929575E+02  0.37069465107E+02  0.00000000000E+00 0.  1.
         21    1    1    2  503  502 -0.61254761021E+02 -0.46097274047E+02  0.28416289013E+02  0.81759341384E+02  0.00000000000E+00 0.  1.
<scales pt_clust_5="13000.00000" pt_clust_6="13000.00000" pt_clust_7="13000.00000" pt_clust_8="13000.00000" pt_clust_9="34.26135" pt_clust_10="74.57602"></scales>
<clustering>
<clus scale="   34.261">  2  9  1 -1</clus>
<clus scale="   74.576">  1 10  2 -1</clus>
<clus scale="   89.275">  5  6 -1 -1</clus>
<clus scale="   93.834">  7  8 -1 -1</clus>
<clus scale="  352.609">  2  5  1 -1</clus>
<clus scale="   74.576">  1  5  2 -1</clus>
</clustering>
</event>
<event>
10    2  0.1133532E-006  0.1434950E+03  0.7546771E-02  0.1216453E+00
         -1   -1    0    0    0  501 -0.00000000000E+00  0.00000000000E+00  0.15598478151E+03  0.15598478151E+03  0.00000000000E+00 0.  1.
          1   -1    0    0  503    0  0.00000000000E+00 -0.00000000000E+00 -0.55574731848E+03  0.55574731848E+03  0.00000000000E+00 0. -1.
         23    2    1    2    0    0  0.66513010230E+02 -0.67977672357E+02 -0.66107911902E+02  0.14886332598E+03  0.93515182388E+02 0.  0.
         23    2    1    2    0    0  0.48703403319E+02  0.11506068220E+03 -0.30794267889E+03  0.34036834414E+03  0.73559051975E+02 0.  0.
        -11    1    3    3    0    0  0.18684129093E+02 -0.79693979738E+02 -0.27706054079E+02  0.86416737494E+02  0.00000000000E+00 0.  1.
         11    1    3    3    0    0  0.47828881137E+02  0.11716307381E+02 -0.38401857822E+02  0.62446588487E+02  0.00000000000E+00 0. -1.
        -13    1    4    4    0    0 -0.10105746074E+02  0.56335758668E+02 -0.85327647163E+02  0.10274556525E+03  0.00000000000E+00 0.  1.
         13    1    4    4    0    0  0.58809149394E+02  0.58724923536E+02 -0.22261503173E+03  0.23762277889E+03  0.00000000000E+00 0. -1.
         21    1    1    2  502  501 -0.18082849163E+02  0.37010555201E+02  0.56536149180E+02  0.69950745487E+02  0.00000000000E+00 0.  1.
         21    1    1    2  503  502 -0.97133564387E+02 -0.84093565049E+02 -0.82248095356E+02  0.15254968437E+03  0.00000000000E+00 0.  1.
<scales pt_clust_5="13000.00000" pt_clust_6="13000.00000" pt_clust_7="13000.00000" pt_clust_8="13000.00000" pt_clust_9="41.19188" pt_clust_10="123.20671"></scales>
<clustering>
<clus scale="   41.192">  1  9  2 -1</clus>
<clus scale="   73.559">  7  8 -1 -1</clus>
<clus scale="   93.515">  5  6 -1 -1</clus>
<clus scale="  121.695">  1  5  2 -1</clus>
<clus scale="  123.207">  1 10  2 -1</clus>
<clus scale="  143.495">  2  5  1 -1</clus>
</clustering>
</event>
<event>
10    2  0.1133532E-006  0.1664102E+03  0.7546771E-02  0.1199739E+00
         -2   -1    0    0    0  501 -0.00000000000E+00  0.00000000000E+00  0.33942026296E+03  0.33942026296E+03  0.00000000000E+00 0.  1.
          2   -1    0    0  503    0  0.00000000000E+00 -0.00000000000E+00 -0.17967302311E+03  0.17967302311E+03  0.00000000000E+00 0. -1.
         23    2    1    2    0    0 -0.25928601564E+02 -0.12738102624E+03  0.60132709502E+01  0.15756663197E+03  0.88841802418E+02 0.  0.
         23    2    1    2    0    0  0.74223547177E+02  0.53676432419E+00  0.12625492074E+02  0.11473954171E+03  0.86581385465E+02 0.  0.
        -11    1    3    3    0    0 -0.50744483992E+02 -0.11442943193E+03 -0.95476603505E+01  0.12553985569E+03  0.00000000000E+00 0.  1.
         11    1    3    3    0    0  0.24815882429E+02 -0.12951594306E+02  0.15560931301E+02  0.32026776278E+02  0.00000000000E+00 0. -1.
        -11    1    4    4    0    0  0.64646755868E+02 -0.27369799276E+02 -0.17731993028E+02  0.72406716079E+02  0.00000000000E+00 0. -1.
         11    1    4    4    0    0  0.95767913093E+01  0.27906563600E+02  0.30357485102E+02  0.42332825626E+02  0.00000000000E+00 0.  1.
         21    1    1    2  502  501 -0.36201763100E+02  0.14406343305E+03  0.16013299827E+03  0.21842027729E+03  0.00000000000E+00 0.  1.
         21    1    1    2  503  502 -0.12093182514E+02 -0.17219171137E+02 -0.19024521450E+02  0.28366835114E+02  0.00000000000E+00 0. -1.
<scales pt_clust_5="13000.00000" pt_clust_6="13000.00000" pt_clust_7="13000.00000" pt_clust_8="13000.00000" pt_clust_9="140.71061" pt_clust_10="21.04150"></scales>
<clustering>
<clus scale="   21.042">  2 10  1 -1</clus>
<clus scale="   86.581">  7  8 -1 -1</clus>
<clus scale="   88.842">  5  6 -1 -1</clus>
<clus scale="  111.622">  2  7  1 -1</clus>
<clus scale="  140.711">  1  9  2 -1</clus>
<clus scale="   21.042">  2  5  1 -1</clus>
</clustering>
</event>
<event>
10    2  0.1133532E-006  0.1424481E+03  0.7546771E-02  0.1210200E+00
         -2   -1    0    0    0  501 -0.00000000000E+00  0.00000000000E+00  0.15487407464E+03  0.15487407464E+03  0.00000000000E+00 0. -1.
          2   -1    0    0  503    0  0.00000000000E+00 -0.00000000000E+00 -0.28015576086E+03  0.28015576086E+03  0.00000000000E+00 0.  1.
         23    2    1    2    0    0 -0.10014092727E+03 -0.75028787518E+02  0.40745258666E+02  0.15994036159E+03  0.90902249091E+02 0.  0.
         23    2    1    2    0    0  0.48987404135E+02  0.85274976548E+02 -0.16263141896E+03  0.21041156828E+03  0.90290986497E+02 0.  0.
        -11    1    3    3    0    0 -0.70705295840E+02 -0.52683993072E+02 -0.18517939835E+02  0.90098590897E+02  0.00000000000E+00 0.  1.
         11    1    3    3    0    0 -0.29435631430E+02 -0.22344794446E+02  0.59263198501E+02  0.69841770690E+02  0.00000000000E+00 0. -1.
        -13    1    4    4    0    0  0.39113055010E+02 -0.16412605879E+01 -0.84483102185E+02  0.93112401770E+02  0.00000000000E+00 0.  1.
         13    1    4    4    0    0  0.98743491249E+01  0.86916237136E+02 -0.78148316776E+02  0.11729916651E+03  0.00000000000E+00 0. -1.
         21    1    1    2  502  501  0.21590850327E+02 -0.19015758955E+01  0.17221047869E+02  0.27682942373E+02  0.00000000000E+00 0.  1.
         21    1    1    2  503  502  0.29562672808E+02 -0.83446131341E+01 -0.20616573787E+02  0.36994963260E+02  0.00000000000E+00 0.  1.
<scales pt_clust_5="13000.00000" pt_clust_6="13000.00000" pt_clust_7="13000.00000" pt_clust_8="13000.00000" pt_clust_9="21.67443" pt_clust_10="32.03574"></scales>
<clustering>
<clus scale="   21.674">  1  9  2 -1</clus>
<clus scale="   32.036">  2 10  1 -1</clus>
<clus scale="   90.291">  7  8 -1 -1</clus>
<clus scale="   90.902">  5  6 -1 -1</clus>
<clus scale="  142.059">  2  7  1 -1</clus>
<clus scale="   32.036">  2  5  1 -1</clus>
</clustering>
</event>
<event>
10    2  0.1133532E-006  0.2058119E+03  0.7546771E-02  0.1145405E+00
          1   -1    0    0  503    0  0.00000000000E+00  0.00000000000E+00  0.49563251571E+03  0.49563251571E+03  0.00000000000E+00 0. -1.
         -1   -1    0    0    0  501 -0.00000000000E+00 -0.00000000000E+00 -0.35649977290E+03  0.35649977290E+03  0.00000000000E+00 0.  1.
         23    2    1    2    0    0  0.66475245675E+02  0.14934186331E+03 -0.13642741166E+03  0.22824711152E+03  0.82233538413E+02 0.  0.
         23    2    1    2    0    0 -0.23468015459E+03 -0.20651783622E+03  0.23653552987E+03  0.40173866746E+03  0.87866423639E+02 0.  0.
        -11    1    4    4    0    0 -0.60503956854E+02 -0.54323714116E+02  0.11387401600E+03  0.13992528803E+03  0.00000000000E+00 0.  1.
         11    1    4    4    0    0 -0.17417619774E+03 -0.15219412210E+03  0.12266151386E+03  0.26181337942E+03  0.00000000000E+00 0. -1.
        -13    1    3    3    0    0  0.50327634571E+02  0.49950116664E+02 -0.96897748012E+02  0.12007105615E+03  0.00000000000E+00 0.  1.
         13    1    3    3    0    0  0.16147611104E+02  0.99391746651E+02 -0.39529663647E+02  0.10817605537E+03  0.00000000000E+00 0. -1.
         21    1    1    2  502  501  0.39882926627E+02 -0.17112197620E+02 -0.35618394570E+02  0.56143968291E+02  0.00000000000E+00 0.  1.
         21    1    1    2  503  502  0.12832198229E+03  0.74288170523E+02  0.74643019169E+02  0.16600254133E+03  0.00000000000E+00 0.  1.
<scales pt_clust_5="13000.00000" pt_clust_6="13000.00000" pt_clust_7="13000.00000" pt_clust_8="13000.00000" pt_clust_9="43.39902" pt_clust_10="152.17546"></scales>
<clustering>
<clus scale="   43.399">  2  9  1 -1</clus>
<clus scale="   82.234">  7  8 -1 -1</clus>
<clus scale="   87.866">  5  6 -1 -1</clus>
<clus scale="  152.175">  1 10  2 -1</clus>
<clus scale="  203.471">  2  7  1 -1</clus>
<clus scale="  152.175">  1  5  2 -1</clus>
</clustering>
</event>
<event>
10    2  0.1133532E-006  0.1916776E+03  0.7546771E-02  0.1157170E+00
         -1   -1    0    0    0  501 -0.00000000000E+00  0.00000000000E+00  0.61016792757E+03  0.61016792757E+03  0.00000000000E+00 0.  1.
          1   -1    0    0  503    0  0.00000000000E+00 -0.00000000000E+00 -0.19549147425E+03  0.19549147425E+03  0.00000000000E+00 0. -1.
         23    2    1    2    0    0 -0.18024061278E+03  0.23150961669E+02  0.37287287843E+03  0.42477422806E+03  0.91522214977E+02 0.  0.
         23    2    1    2    0    0  0.16473740636E+03  0.20401461081E+02 -0.10518736751E+03  0.21762477317E+03  0.93496133323E+02 0.  0.
        -13    1    4    4    0    0  0.61884814630E+02 -0.17269419843E+02 -0.84503649917E+02  0.10615474550E+03  0.00000000000E+00 0.  1.
         13    1    4    4    0    0  0.10285259173E+03  0.37670880924E+02 -0.20683717594E+02  0.11147002767E+03  0.00000000000E+00 0. -1.
        -13    1    3    3    0    0 -0.14122422677E+03  0.23101981614E+02  0.19042348279E+03  0.23819967796E+03  0.00000000000E+00 0.  1.
         13    1    3    3    0    0 -0.39016386007E+02  0.48980054654E-01  0.18244939564E+03  0.18657455010E+03  0.00000000000E+00 0. -1.
         21    1    1    2  502  501  0.23780593606E+02  0.23526120195E+01  0.59330204597E+02  0.63961899542E+02  0.00000000000E+00 0. -1.
         21    1    1    2  503  502 -0.82773871886E+01 -0.45905034769E+02  0.87660737811E+02  0.99298501043E+02  0.00000000000E+00 0. -1.
<scales pt_clust_5="13000.00000" pt_clust_6="13000.00000" pt_clust_7="13000.00000" pt_clust_8="13000.00000" pt_clust_9="23.89668" pt_clust_10="45.69979"></scales>
<clustering>
<clus scale="   23.897">  1  9  2 -1</clus>
<clus scale="   45.700">  1 10  2 -1</clus>
<clus scale="   91.522">  7  8 -1 -1</clus>
<clus scale="   93.496">  5  6 -1 -1</clus>
<clus scale="  190.723">  1  7  2 -1</clus>
<clus scale="  191.678">  2  5  1 -1</clus>
</clustering>
</event>
<event>
10    2  0.1133532E-006  0.1059027E+03  0.7546771E-02  0.1268510E+00
         -2   -1    0    0    0  501 -0.00000000000E+00  0.00000000000E+00  0.72017012343E+02  0.72017012343E+02  0.00000000000E+00 0.  1.
          2   -1    0    0  503    0  0.00000000000E+00 -0.00000000000E+00 -0.49858117387E+03  0.49858117387E+03  0.00000000000E+00 0. -1.
         23    2    1    2    0    0  0.29492701760E+02 -0.45430912376E+02 -0.14530521741E+02  0.10759924706E+03  0.91829595713E+02 0.  0.
         23    2    1    2    0    0 -0.22817692935E+02  0.89171834644E+02 -0.27174664745E+03  0.30113477179E+03  0.91452977947E+02 0.  0.
        -13    1    4    4    0    0 -0.45468151615E+02  0.95418259703E+02 -0.23238906909E+03  0.25529723173E+03  0.00000000000E+00 0. -1.
         13    1    4    4    0    0  0.22650458679E+02 -0.62464250589E+01 -0.39357578365E+02  0.45837540064E+02  0.00000000000E+00 0.  1.
        -13    1    3    3    0    0  0.13419056593E+02 -0.26658366098E+02  0.38723469843E+02  0.48890149106E+02  0.00000000000E+00 0.  1.
         13    1    3    3    0    0  0.16073645167E+02 -0.18772546278E+02 -0.53253991584E+02  0.58709097952E+02  0.00000000000E+00 0. -1.
         21    1    1    2  502  501 -0.21064007544E+02  0.89744805050E+01 -0.22904461562E+02  0.32385924004E+02  0.00000000000E+00 0. -1.
         21    1    1    2  503  502  0.14388998719E+02 -0.52715402773E+02 -0.11738253077E+03  0.12947824336E+03  0.00000000000E+00 0. -1.
<scales pt_clust_5="13000.00000" pt_clust_6="13000.00000" pt_clust_7="13000.00000" pt_clust_8="13000.00000" pt_clust_9="22.89615" pt_clust_10="53.39141"></scales>
<clustering>
<clus scale="   22.896">  1  9  2 -1</clus>
<clus scale="   53.391">  2 10  1 -1</clus>
<clus scale="   91.453">  5  6 -1 -1</clus>
<clus scale="   91.830">  7  8 -1 -1</clus>
<clus scale="  105.576">  2  5  1 -1</clus>
<clus scale="   53.391">  2  5  1 -1</clus>
</clustering>
</event>
<event>
10    2  0.1133532E-006  0.1025324E+03  0.7546771E-02  0.1276912E+00
          1   -1    0    0  503    0  0.00000000000E+00  0.00000000000E+00  0.31353391477E+03  0.31353391477E+03  0.00000000000E+00 0. -1.
         -1   -1    0    0    0  501 -0.00000000000E+00 -0.00000000000E+00 -0.10279012332E+03  0.10279012332E+03  0.00000000000E+00 0.  1.
         23    2    1    2    0    0  0.15450916150E+02  0.53490481995E+02 -0.57961280371E+01  0.10273326063E+03  0.86142702919E+02 0.  0.
         23    2    1    2    0    0 -0.30061563692E+02 -0.25772380929E+02  0.72157193915E+02  0.12212893621E+03  0.90226953819E+02 0.  0.
        -11    1    3    3    0    0  0.29958425807E+02  0.91433229302E+01  0.30423319089E+02  0.43665615482E+02  0.00000000000E+00 0. -1.
         11    1    3    3    0    0 -0.14507509657E+02  0.44347159065E+02 -0.36219447126E+02  0.59067645151E+02  0.00000000000E+00 0.  1.
        -13    1    4    4    0    0  0.28819974406E+02 -0.12492720344E+02  0.49561361948E+01  0.31799721262E+02  0.00000000000E+00 0.  1.
         13    1    4    4    0    0 -0.58881538098E+02 -0.13279660586E+02  0.67201057720E+02  0.90329214946E+02  0.00000000000E+00 0. -1.
         21    1    1    2  502  501  0.59733475024E+02  0.81562158533E+00  0.33731423462E+02  0.68604389114E+02  0.00000000000E+00 0. -1.
         21    1    1    2  503  502 -0.45122827482E+02 -0.28533722651E+02  0.11065130211E+03  0.12285745214E+03  0.00000000000E+00 0. -1.
<scales pt_clust_5="13000.00000" pt_clust_6="13000.00000" pt_clust_7="13000.00000" pt_clust_8="13000.00000" pt_clust_9="48.45250" pt_clust_10="53.38767"></scales>
<clustering>
<clus scale="   53.388">  1 10  2 -1</clus>
<clus scale="   48.452">  1  9  2 -1</clus>
<clus scale="   86.143">  5  6 -1 -1</clus>
<clus scale="   90.227">  7  8 -1 -1</clus>
<clus scale="   98.957">  2  5  1 -1</clus>
<clus scale="   53.388">  1  5  2 -1</clus>
</clustering>
</event>
<event>
10    2  0.1133532E-006  0.1343415E+03  0.7546771E-02  0.1221804E+00
         -1   -1    0    0    0  501 -0.00000000000E+00  0.00000000000E+00  0.21075569541E+03  0.21075569541E+03  0.00000000000E+00 0.  1.
          1   -1    0    0  503    0  0.00000000000E+00 -0.00000000000E+00 -0.20302626444E+03  0.20302626444E+03  0.00000000000E+00 0. -1.
         23    2    1    2    0    0  0.10534937085E+02 -0.88290180759E+02  0.10430813101E+03  0.16573722687E+03  0.93179940217E+02 0.  0.
         23    2    1    2    0    0 -0.10508482356E+02  0.10032889330E+03 -0.23310108297E+02  0.13753664806E+03  0.90535370870E+02 0.  0.
        -11    1    4    4    0    0 -0.22530862540E+02 -0.20877143106E+01  0.15421602068E+02  0.27382916722E+02  0.00000000000E+00 0.  1.
         11    1    4    4    0    0  0.12022380184E+02  0.10241660761E+03 -0.38731710365E+02  0.11015373134E+03  0.00000000000E+00 0. -1.
        -13    1    3    3    0    0  0.26799507164E+02 -0.74399811666E+01  0.71963626629E+02  0.77151347762E+02  0.00000000000E+00 0.  1.
         13    1    3    3    0    0 -0.16264570078E+02 -0.80850199592E+02  0.32344504378E+02  0.88585879108E+02  0.00000000000E+00 0. -1.
         21    1    1    2  502  501  0.19997728613E+02 -0.76639208444E+01  0.10794280352E+02  0.23982521150E+02  0.00000000000E+00 0.  1.
         21    1    1    2  503  502 -0.20024183342E+02 -0.43747917005E+01 -0.84062872096E+02  0.86525563771E+02  0.00000000000E+00 0. -1.
<scales pt_clust_5="13000.00000" pt_clust_6="13000.00000" pt_clust_7="13000.00000" pt_clust_8="13000.00000" pt_clust_9="20.46611" pt_clust_10="20.49651"></scales>
<clustering>
<clus scale="   20.497">  2 10  1 -1</clus>
<clus scale="   20.466">  1  9  2 -1</clus>
<clus scale="   90.535">  5  6 -1 -1</clus>
<clus scale="   93.180">  7  8 -1 -1</clus>
<clus scale="  132.521">  2  5  1 -1</clus>
<clus scale="   20.497">  2  5  1 -1</clus>
</clustering>
</event>
<event>
10    2  0.1133532E-006  0.3194001E+03  0.7546771E-02  0.1075977E+00
          2   -1    0    0  503    0  0.00000000000E+00  0.00000000000E+00  0.10764278077E+04  0.10764278077E+04  0.00000000000E+00 0. -1.
         -2   -1    0    0    0  501 -0.00000000000E+00 -0.00000000000E+00 -0.16075655916E+03  0.16075655916E+03  0.00000000000E+00 0.  1.
         23    2    1    2    0    0 -0.20565920394E+03  0.25222476256E+03  0.24552399297E+03  0.41787602315E+03  0.91789436125E+02 0.  0.
         23    2    1    2    0    0  0.23851015774E+03 -0.18141082394E+03  0.35157175320E+03  0.47068210915E+03  0.90232853467E+02 0.  0.
        -13    1    3    3    0    0 -0.19511647984E+03  0.18660571155E+03  0.21296012562E+03  0.34386646738E+03  0.00000000000E+00 0. -1.
         13    1    3    3    0    0 -0.10542724098E+02  0.65619051014E+02  0.32563867347E+02  0.74009555762E+02  0.00000000000E+00 0.  1.
        -13    1    4    4    0    0  0.48773817664E+02 -0.40898955419E+01  0.87809976069E+02  0.10052961968E+03  0.00000000000E+00 0. -1.
         13    1    4    4    0    0  0.18973634007E+03 -0.17732092840E+03  0.26376177713E+03  0.37015248948E+03  0.00000000000E+00 0.  1.
         21    1    1    2  502  501 -0.23365037776E+01 -0.56238705620E+02  0.42609928905E+02  0.70596439719E+02  0.00000000000E+00 0.  1.
         21    1    1    2  503  502 -0.30514450020E+02 -0.14575233003E+02  0.27596557349E+03  0.27802979485E+03  0.00000000000E+00 0. -1.
<scales pt_clust_5="13000.00000" pt_clust_6="13000.00000" pt_clust_7="13000.00000" pt_clust_8="13000.00000" pt_clust_9="57.44699" pt_clust_10="33.81670"></scales>
<clustering>
<clus scale="   33.817">  1 10  2 -1</clus>
<clus scale="   57.447">  2  9  1 -1</clus>
<clus scale="   90.233">  7  8 -1 -1</clus>
<clus scale="   91.789">  5  6 -1 -1</clus>
<clus scale="  318.956">  1  7  2 -1</clus>
<clus scale="   33.817">  1  5  2 -1</clus>
</clustering>
</event>
<event>
10    2  0.1133532E-006  0.2118967E+03  0.7546771E-02  0.1140313E+00
          1   -1    0    0  503    0  0.00000000000E+00  0.00000000000E+00  0.17372786050E+04  0.17372786050E+04  0.00000000000E+00 0. -1.
         -1   -1    0    0    0  501 -0.00000000000E+00 -0.00000000000E+00 -0.94049175173E+02  0.94049175173E+02  0.00000000000E+00 0.  1.
         23    2    1    2    0    0 -0.20886627736E+03 -0.54146713088E+02  0.65192545360E+03  0.69236347347E+03  0.88336821243E+02 0.  0.
         23    2    1    2    0    0  0.18118402357E+03  0.39153512922E+02  0.92376574930E+03  0.94658509455E+03  0.91211477761E+02 0.  0.
        -11    1    4    4    0    0  0.12493420865E+03 -0.16432928006E+02  0.51059976899E+03  0.52591893074E+03  0.00000000000E+00 0.  1.
         11    1    4    4    0    0  0.56249814923E+02  0.55586440928E+02  0.41316598031E+03  0.42066616381E+03  0.00000000000E+00 0. -1.
        -11    1    3    3    0    0 -0.37558701106E+02  0.15826156089E+02  0.19832827389E+03  0.20247278204E+03  0.00000000000E+00 0.  1.
         11    1    3    3    0    0 -0.17130757626E+03 -0.69972869177E+02  0.45359717971E+03  0.48989069142E+03  0.00000000000E+00 0. -1.
         21    1    1    2  502  501  0.41873090065E+02  0.46334997859E+02 -0.43515916961E+02  0.76117821350E+02  0.00000000000E+00 0.  1.
         21    1    1    2  503  502 -0.14190836273E+02 -0.31341797693E+02  0.11105414394E+03  0.11626139085E+03  0.00000000000E+00 0.  1.
<scales pt_clust_5="13000.00000" pt_clust_6="13000.00000" pt_clust_7="13000.00000" pt_clust_8="13000.00000" pt_clust_9="62.12339" pt_clust_10="34.40477"></scales>
<clustering>
<clus scale="   34.405">  1 10  2 -1</clus>
<clus scale="   62.123">  2  9  1 -1</clus>
<clus scale="   88.337">  7  8 -1 -1</clus>
<clus scale="   91.211">  5  6 -1 -1</clus>
<clus scale="  210.675">  2  7  1 -1</clus>
<clus scale="   34.405">  1  5  2 -1</clus>
</clustering>
</event>
<event>
10    2  0.1133532E-006  0.3786194E+03  0.7546771E-02  0.1051647E+00
         -1   -1    0    0    0  501 -0.00000000000E+00  0.00000000000E+00  0.56468657026E+03  0.56468657026E+03  0.00000000000E+00 0.  1.
          1   -1    0    0  503    0  0.00000000000E+00 -0.00000000000E+00 -0.11574170006E+04  0.11574170006E+04  0.00000000000E+00 0. -1.
         23    2    1    2    0    0  0.20354597664E+03  0.29071311164E+03  0.23720840113E+03  0.43623014756E+03  0.89910167347E+02 0.  0.
         23    2    1    2    0    0  0.54802959762E+02 -0.44496454255E+03 -0.15139712010E+03  0.48336266064E+03  0.98597997947E+02 0.  0.
        -11    1    4    4    0    0  0.83630119055E+02 -0.34323921549E+03 -0.11422536992E+03  0.37128774689E+03  0.00000000000E+00 0.  1.
         11    1    4    4    0    0 -0.28827159293E+02 -0.10172532707E+03 -0.37171750184E+02  0.11207491375E+03  0.00000000000E+00 0. -1.
        -11    1    3    3    0    0  0.16724825345E+02  0.36266962128E+02 -0.22734411335E+01  0.40002260679E+02  0.00000000000E+00 0. -1.
         11    1    3    3    0    0  0.18682115129E+03  0.25444614951E+03  0.23948184226E+03  0.39622788688E+03  0.00000000000E+00 0.  1.
         21    1    1    2  502  501 -0.35740318019E+01  0.22988553353E+02  0.30137278841E+02  0.38072337261E+02  0.00000000000E+00 0.  1.
         21    1    1    2  503  502 -0.25477490460E+03  0.13126287756E+03 -0.70867899021E+03  0.76443842538E+03  0.00000000000E+00 0. -1.
<scales pt_clust_5="13000.00000" pt_clust_6="13000.00000" pt_clust_7="13000.00000" pt_clust_8="13000.00000" pt_clust_9="23.26472" pt_clust_10="287.32299"></scales>
<clustering>
<clus scale="   23.265">  1  9  2 -1</clus>
<clus scale="   89.910">  7  8 -1 -1</clus>
<clus scale="   98.598">  5  6 -1 -1</clus>
<clus scale="  287.323">  2 10  1 -1</clus>
<clus scale="  376.450">  1  7  2 -1</clus>
<clus scale="  287.323">  2  5  1 -1</clus>
</clustering>
</event>
<event>
10    2  0.1133532E-006  0.1893347E+03  0.7546771E-02  0.1160793E+00
          1   -1    0    0  503    0  0.00000000000E+00  0.00000000000E+00  0.10169704597E+03  0.10169704597E+03  0.00000000000E+00 0. -1.
         -1   -1    0    0    0  501 -0.00000000000E+00 -0.00000000000E+00 -0.57577345382E+03  0.57577345382E+03  0.00000000000E+00 0.  1.
         23    2    1    2    0    0 -0.15521999607E+03  0.99077555134E+02 -0.36292504400E+03  0.41350075122E+03  0.73202968403E+02 0.  0.
         23    2    1    2    0    0  0.11429387292E+03 -0.94330100652E+02 -0.53057782237E+02  0.18140869195E+03  0.90181638838E+02 0.  0.
        -11    1    4    4    0    0  0.73293330240E+02 -0.35588674053E+02 -0.70429070974E+02  0.10769735381E+03  0.00000000000E+00 0.  1.
         11    1    4    4    0    0  0.41000542683E+02 -0.58741426599E+02  0.17371288737E+02  0.73711338147E+02  0.00000000000E+00 0. -1.
        -11    1    3    3    0    0 -0.13396552434E+03  0.92508231586E+02 -0.35379173859E+03  0.38945234486E+03  0.00000000000E+00 0.  1.
         11    1    3    3    0    0 -0.21254471736E+02  0.65693235474E+01 -0.91333054106E+01  0.24048406359E+02  0.00000000000E+00 0. -1.
         21    1    1    2  502  501  0.25970204252E+02  0.88665158310E+01 -0.55830979889E+02  0.62210649629E+02  0.00000000000E+00 0.  1.
         21    1    1    2  503  502  0.14955918898E+02 -0.13613970313E+02 -0.22626017230E+01  0.20350406981E+02  0.00000000000E+00 0. -1.
<scales pt_clust_5="13000.00000" pt_clust_6="13000.00000" pt_clust_7="13000.00000" pt_clust_8="13000.00000" pt_clust_9="27.78460" pt_clust_10="20.22424"></scales>
<clustering>
<clus scale="   20.224">  1 10  2 -1</clus>
<clus scale="   27.785">  2  9  1 -1</clus>
<clus scale="   73.203">  7  8 -1 -1</clus>
<clus scale="   90.182">  5  6 -1 -1</clus>
<clus scale="  181.861">  2  7  1 -1</clus>
<clus scale="   20.224">  1  5  2 -1</clus>
</clustering>
</event>
<event>
10    2  0.1133532E-006  0.1223564E+03  0.7546771E-02  0.1242077E+00
          1   -1    0    0  503    0  0.00000000000E+00  0.00000000000E+00  0.27753174502E+03  0.27753174502E+03  0.00000000000E+00 0. -1.
         -1   -1    0    0    0  501 -0.00000000000E+00 -0.00000000000E+00 -0.12421219803E+03  0.12421219803E+03  0.00000000000E+00 0.  1.
         23    2    1    2    0    0 -0.87292428742E+02 -0.64237418911E+02 -0.50915838457E+01  0.14764485890E+03  0.10013324138E+03 0.  0.
         23    2    1    2    0    0  0.25406132007E+02  0.18974408919E+02  0.95299997541E+02  0.13600337690E+03  0.91702395062E+02 0.  0.
        -11    1    4    4    0    0 -0.33084706643E+01 -0.21155830063E+02  0.82207745404E+02  0.84950741776E+02  0.00000000000E+00 0. -1.
         11    1    4    4    0    0  0.28714602671E+02  0.40130238983E+02  0.13092252137E+02  0.51052635126E+02  0.00000000000E+00 0.  1.
        -11    1    3    3    0    0 -0.40656212790E+02  0.11237852507E+02  0.30498238420E+02  0.52051508279E+02  0.00000000000E+00 0.  1.
         11    1    3    3    0    0 -0.46636215952E+02 -0.75475271418E+02 -0.35589822266E+02  0.95593350620E+02  0.00000000000E+00 0. -1.
         21    1    1    2  502  501  0.15951076269E+02  0.25347688766E+02 -0.81192266442E+01  0.31030049971E+02  0.00000000000E+00 0.  1.
         21    1    1    2  503  502  0.45935220467E+02  0.19915321226E+02  0.71230359941E+02  0.87065657272E+02  0.00000000000E+00 0. -1.
<scales pt_clust_5="13000.00000" pt_clust_6="13000.00000" pt_clust_7="13000.00000" pt_clust_8="13000.00000" pt_clust_9="29.94899" pt_clust_10="51.95267"></scales>
<clustering>
<clus scale="   29.949">  2  9  1 -1</clus>
<clus scale="   51.953">  1 10  2 -1</clus>
<clus scale="   91.702">  5  6 -1 -1</clus>
<clus scale="  100.133">  7  8 -1 -1</clus>
<clus scale="  115.558">  1  5  2 -1</clus>
<clus scale="   51.953">  1  5  2 -1</clus>
</clustering>
</event>
<event>
10    2  0.1133532E-006  0.1479617E+03  0.7546771E-02  0.1203099E+00
          1   -1    0    0  503    0  0.00000000000E+00  0.00000000000E+00  0.51467170547E+03  0.51467170547E+03  0.00000000000E+00 0. -1.
         -1   -1    0    0    0  501 -0.00000000000E+00 -0.00000000000E+00 -0.10796975605E+03  0.10796975605E+03  0.00000000000E+00 0.  1.
         23    2    1    2    0    0  0.13504897639E+03  0.54975042661E+02  0.12598236604E+03  0.21350481949E+03  0.91936228195E+02 0.  0.
         23    2    1    2    0    0 -0.10274518159E+03 -0.14419081871E+02  0.13257531267E+03  0.19157080204E+03  0.91425797263E+02 0.  0.
        -11    1    4    4    0    0  0.11570607490E+02 -0.19928481718E+02  0.15032636467E+02  0.27513696597E+02  0.00000000000E+00 0. -1.
         11    1    4    4    0    0 -0.11431578908E+03  0.55093998469E+01  0.11754267620E+03  0.16405710545E+03  0.00000000000E+00 0.  1.
        -13    1    3    3    0    0  0.51140780119E+02  0.28115629712E+02  0.10920277734E+03  0.12381887822E+03  0.00000000000E+00 0. -1.
         13    1    3    3    0    0  0.83908196270E+02  0.26859412949E+02  0.16779588703E+02  0.89685941275E+02  0.00000000000E+00 0.  1.
         21    1    1    2  502  501 -0.49421823355E+02 -0.53838485105E+02  0.55044559424E+01  0.73289822877E+02  0.00000000000E+00 0.  1.
         21    1    1    2  503  502  0.17118028553E+02  0.13282524315E+02  0.14263981477E+03  0.14427601710E+03  0.00000000000E+00 0. -1.
<scales pt_clust_5="13000.00000" pt_clust_6="13000.00000" pt_clust_7="13000.00000" pt_clust_8="13000.00000" pt_clust_9="70.81683" pt_clust_10="21.66685"></scales>
<clustering>
<clus scale="   21.667">  1 10  2 -1</clus>
<clus scale="   70.817">  2  9  1 -1</clus>
<clus scale="   91.426">  5  6 -1 -1</clus>
<clus scale="   91.936">  7  8 -1 -1</clus>
<clus scale="  147.645">  1  5  2 -1</clus>
<clus scale="   21.667">  1  5  2 -1</clus>
</clustering>
</event>
<event>
10    2  0.1133532E-006  0.9431653E+02  0.7546771E-02  0.1293187E+00
          1   -1    0    0  503    0  0.00000000000E+00  0.00000000000E+00  0.14680179363E+03  0.14680179363E+03  0.00000000000E+00 0. -1.
         -1   -1    0    0    0  501 -0.00000000000E+00 -0.00000000000E+00 -0.39261353899E+03  0.39261353899E+03  0.00000000000E+00 0.  1.
         23    2    1    2    0    0  0.32482847710E+02 -0.36104311700E+02 -0.31964415073E+03  0.33557621595E+03  0.89890805389E+02 0.  0.
         23    2    1    2    0    0 -0.25521667401E+02 -0.35194181491E+02  0.35127666306E+02  0.10512775410E+03  0.89038788308E+02 0.  0.
        -11    1    3    3    0    0  0.34867647789E+02 -0.58428841806E+02 -0.29269750549E+03  0.30050210005E+03  0.00000000000E+00 0.  1.
         11    1    3    3    0    0 -0.23848000790E+01  0.22324530107E+02 -0.26946645246E+02  0.35074115897E+02  0.00000000000E+00 0. -1.
        -13    1    4    4    0    0  0.16795286269E+02 -0.38051447884E+02 -0.10432226114E+02  0.42881530624E+02  0.00000000000E+00 0.  1.
         13    1    4    4    0    0 -0.42316953670E+02  0.28572663929E+01  0.45559892420E+02  0.62246223472E+02  0.00000000000E+00 0. -1.
         21    1    1    2  502  501 -0.46975494838E+01  0.25366758879E+02 -0.13519034913E+02  0.29125654193E+02  0.00000000000E+00 0.  1.
         21    1    1    2  503  502 -0.22636308255E+01  0.45931734312E+02  0.52223773979E+02  0.69585708375E+02  0.00000000000E+00 0. -1.
<scales pt_clust_5="13000.00000" pt_clust_6="13000.00000" pt_clust_7="13000.00000" pt_clust_8="13000.00000" pt_clust_9="25.79805" pt_clust_10="46.58532"></scales>
<clustering>
<clus scale="   25.798">  2  9  1 -1</clus>
<clus scale="   46.585">  1 10  2 -1</clus>
<clus scale="   89.039">  7  8 -1 -1</clus>
<clus scale="   89.891">  5  6 -1 -1</clus>
<clus scale="   93.505">  1  7  2 -1</clus>
<clus scale="   46.585">  1  5  2 -1</clus>
</clustering>
</event>
<event>
10    2  0.1133532E-006  0.1201170E+03  0.7546771E-02  0.1243124E+00
         -3   -1    0    0    0  501 -0.00000000000E+00  0.00000000000E+00  0.20225722074E+03  0.20225722074E+03  0.00000000000E+00 0.  1.
          3   -1    0    0  502    0  0.00000000000E+00 -0.00000000000E+00 -0.21356692389E+03  0.21356692389E+03  0.00000000000E+00 0. -1.
         23    2    1    2    0    0 -0.76121377995E+02 -0.62745803468E+02  0.58893338581E+02  0.14546633893E+03  0.89221804461E+02 0.  0.
         23    2    1    2    0    0  0.75093738134E+02  0.17956526360E+02 -0.13611280884E+03  0.18048929738E+03  0.89934328215E+02 0.  0.
        -11    1    4    4    0    0  0.31312382866E+02  0.49039086307E+02 -0.40697619088E+02  0.71004179497E+02  0.00000000000E+00 0.  1.
         11    1    4    4    0    0  0.43781355268E+02 -0.31082559947E+02 -0.95415189751E+02  0.10948511788E+03  0.00000000000E+00 0. -1.
        -13    1    3    3    0    0  0.25899147812E+01 -0.47461368853E+02  0.42207560412E+02  0.63567030353E+02  0.00000000000E+00 0. -1.
         13    1    3    3    0    0 -0.78711292776E+02 -0.15284434615E+02  0.16685778170E+02  0.81899308575E+02  0.00000000000E+00 0.  1.
         21    1    1    2  502  503 -0.13377519349E+01  0.23987490499E+02  0.64564484159E+02  0.68889490457E+02  0.00000000000E+00 0. -1.
         21    1    1    2  503  501  0.23653917949E+01  0.20801786609E+02  0.13452829525E+01  0.20979017868E+02  0.00000000000E+00 0.  1.
<scales pt_clust_5="13000.00000" pt_clust_6="13000.00000" pt_clust_7="13000.00000" pt_clust_8="13000.00000" pt_clust_9="31.25529" pt_clust_10="20.93584"></scales>
<clustering>
<clus scale="   20.936">  1 10  2 -1</clus>
<clus scale="   31.255">  1  9  2 -1</clus>
<clus scale="   89.222">  7  8 -1 -1</clus>
<clus scale="   89.934">  5  6 -1 -1</clus>
<clus scale="  119.584">  1  7  2 -1</clus>
<clus scale="  120.117">  2  5  1 -1</clus>
</clustering>
</event>
<event>
10    2  0.1133532E-006  0.3303495E+03  0.7546771E-02  0.1070995E+00
         -1   -1    0    0    0  501 -0.00000000000E+00  0.00000000000E+00  0.46869048115E+03  0.46869048115E+03  0.00000000000E+00 0.  1.
          1   -1    0    0  503    0  0.00000000000E+00 -0.00000000000E+00 -0.66790548889E+03  0.66790548889E+03  0.00000000000E+00 0. -1.
         23    2    1    2    0    0  0.50505875806E+02 -0.29298248836E+03  0.17803595158E+03  0.35833732384E+03  0.91209953538E+02 0.  0.
         23    2    1    2    0    0 -0.13593415256E+02  0.32037330700E+03 -0.43138786431E+03  0.54526495364E+03  0.91621740967E+02 0.  0.
        -13    1    4    4    0    0  0.24519374980E+02  0.51921730192E+02 -0.11536291532E+03  0.12886298168E+03  0.00000000000E+00 0.  1.
         13    1    4    4    0    0 -0.38112790235E+02  0.26845157681E+03 -0.31602494899E+03  0.41640197196E+03  0.00000000000E+00 0. -1.
        -13    1    3    3    0    0  0.73872581243E+02 -0.20811984064E+03  0.14565420884E+03  0.26454900280E+03  0.00000000000E+00 0.  1.
         13    1    3    3    0    0 -0.23366705437E+02 -0.84862647725E+02  0.32381742740E+02  0.93788321047E+02  0.00000000000E+00 0. -1.
         21    1    1    2  502  501 -0.13263462059E+02 -0.27270204153E+02  0.14035365995E+03  0.14359224673E+03  0.00000000000E+00 0. -1.
         21    1    1    2  503  502 -0.23648998491E+02 -0.12061448715E+00 -0.86216754964E+02  0.89401445816E+02  0.00000000000E+00 0.  1.
<scales pt_clust_5="13000.00000" pt_clust_6="13000.00000" pt_clust_7="13000.00000" pt_clust_8="13000.00000" pt_clust_9="30.35387" pt_clust_10="23.64931"></scales>
<clustering>
<clus scale="   23.649">  2 10  1 -1</clus>
<clus scale="   30.354">  1  9  2 -1</clus>
<clus scale="   91.210">  7  8 -1 -1</clus>
<clus scale="   91.622">  5  6 -1 -1</clus>
<clus scale="  330.236">  1  7  2 -1</clus>
<clus scale="   23.649">  2  5  1 -1</clus>
</clustering>
</event>
<event>
10    2  0.1133532E-006  0.1133328E+03  0.7546771E-02  0.1254973E+00
          1   -1    0    0  503    0  0.00000000000E+00  0.00000000000E+00  0.29235348495E+03  0.29235348495E+03  0.00000000000E+00 0. -1.
         -1   -1    0    0    0  501 -0.00000000000E+00 -0.00000000000E+00 -0.13716939157E+03  0.13716939157E+03  0.00000000000E+00 0.  1.
         23    2    1    2    0    0 -0.73966674772E+00 -0.67827181007E+02 -0.41252065011E+02  0.12033136212E+03  0.90425827347E+02 0.  0.
         23    2    1    2    0    0 -0.23898097869E+02  0.51071318378E+02  0.99625514015E+02  0.14666401566E+03  0.91682559971E+02 0.  0.
        -11    1    3    3    0    0 -0.36065627486E+02 -0.71429684591E+01 -0.33407409911E+02  0.49677022066E+02  0.00000000000E+00 0.  1.
         11    1    3    3    0    0  0.35325960738E+02 -0.60684212548E+02 -0.78446550996E+01  0.70654340053E+02  0.00000000000E+00 0. -1.
        -11    1    4    4    0    0  0.24686093941E+02  0.52685281961E+02  0.63320987960E+02  0.85992381555E+02  0.00000000000E+00 0. -1.
         11    1    4    4    0    0 -0.48584191810E+02 -0.16139635834E+01  0.36304526055E+02  0.60671634100E+02  0.00000000000E+00 0.  1.
         21    1    1    2  502  501 -0.25137380581E+02 -0.67065854092E+01 -0.20387825711E+02  0.33053435941E+02  0.00000000000E+00 0.  1.
         21    1    1    2  503  502  0.49775145197E+02  0.23462448039E+02  0.11719847008E+03  0.12947406280E+03  0.00000000000E+00 0. -1.
<scales pt_clust_5="13000.00000" pt_clust_6="13000.00000" pt_clust_7="13000.00000" pt_clust_8="13000.00000" pt_clust_9="26.01665" pt_clust_10="53.60587"></scales>
<clustering>
<clus scale="   26.017">  2  9  1 -1</clus>
<clus scale="   53.606">  1 10  2 -1</clus>
<clus scale="   90.426">  5  6 -1 -1</clus>
<clus scale="   91.683">  7  8 -1 -1</clus>
<clus scale="  112.319">  2  5  1 -1</clus>
<clus scale="   53.606">  1  5  2 -1</clus>
</clustering>
</event>
<event>
10    2  0.1133532E-006  0.1190118E+03  0.7546771E-02  0.1246534E+00
         -2   -1    0    0    0  501 -0.00000000000E+00  0.00000000000E+00  0.28973418157E+03  0.28973418157E+03  0.00000000000E+00 0.  1.
          2   -1    0    0  503    0  0.00000000000E+00 -0.00000000000E+00 -0.11466889198E+03  0.11466889198E+03  0.00000000000E+00 0. -1.
         23    2    1    2    0    0  0.84364768880E+02 -0.24327578866E+02  0.65274345776E+02  0.14115692048E+03  0.89192436123E+02 0.  0.
         23    2    1    2    0    0 -0.56858042514E+02 -0.51690679806E+02  0.80784403425E+02  0.14620114207E+03  0.94572145623E+02 0.  0.
        -13    1    3    3    0    0  0.37125576827E+02 -0.55534722012E+02  0.23566336787E+02  0.70836332720E+02  0.00000000000E+00 0.  1.
         13    1    3    3    0    0  0.47239192052E+02  0.31207143146E+02  0.41708008990E+02  0.70320587761E+02  0.00000000000E+00 0. -1.
        -13    1    4    4    0    0 -0.13909048692E+02 -0.69788417760E+02  0.29868362535E+02  0.77175151243E+02  0.00000000000E+00 0.  1.
         13    1    4    4    0    0 -0.42948993822E+02  0.18097737953E+02  0.50916040890E+02  0.69025990824E+02  0.00000000000E+00 0. -1.
         21    1    1    2  502  501 -0.37361389816E+02  0.44004293042E+02  0.50955358754E+02  0.76998050890E+02  0.00000000000E+00 0.  1.
         21    1    1    2  503  502  0.98546634506E+01  0.32013965631E+02 -0.21948818367E+02  0.40046960120E+02  0.00000000000E+00 0. -1.
<scales pt_clust_5="13000.00000" pt_clust_6="13000.00000" pt_clust_7="13000.00000" pt_clust_8="13000.00000" pt_clust_9="60.69023" pt_clust_10="33.49639"></scales>
<clustering>
<clus scale="   33.496">  2 10  1 -1</clus>
<clus scale="   60.690">  1  9  2 -1</clus>
<clus scale="   89.192">  5  6 -1 -1</clus>
<clus scale="   94.572">  7  8 -1 -1</clus>
<clus scale="  114.783">  1  5  2 -1</clus>
<clus scale="   33.496">  2  5  1 -1</clus>
</clustering>
</event>
<event>
10    2  0.1133532E-006  0.1118836E+03  0.7546771E-02  0.1258715E+00
          2   -1    0    0  503    0  0.00000000000E+00  0.00000000000E+00  0.84085891177E+02  0.84085891177E+02  0.00000000000E+00 0. -1.
         -2   -1    0    0    0  501 -0.00000000000E+00 -0.00000000000E+00 -0.30634362585E+03  0.30634362585E+03  0.00000000000E+00 0.  1.
         23    2    1    2    0    0 -0.30677116565E+01  0.45255976019E+02 -0.20494472364E+03  0.22878333341E+03  0.91005272804E+02 0.  0.
         23    2    1    2    0    0 -0.11280011356E+02 -0.56749982124E+02 -0.20716140015E+01  0.11134174776E+03  0.95104648064E+02 0.  0.
        -13    1    4    4    0    0  0.23078363386E+02  0.23596912959E+01 -0.29625979810E+02  0.37628150091E+02  0.00000000000E+00 0.  1.
         13    1    4    4    0    0 -0.34358374742E+02 -0.59109673420E+02  0.27554365808E+02  0.73713597673E+02  0.00000000000E+00 0. -1.
        -13    1    3    3    0    0 -0.31863371281E+02 -0.13001129879E+02 -0.49360801244E+02  0.60173021422E+02  0.00000000000E+00 0. -1.
         13    1    3    3    0    0  0.28795659625E+02  0.58257105898E+02 -0.15558392239E+03  0.16861031199E+03  0.00000000000E+00 0.  1.
         21    1    1    2  502  501 -0.47148009353E+01  0.20400029316E+02 -0.19753985047E+02  0.28785594821E+02  0.00000000000E+00 0.  1.
         21    1    1    2  503  502  0.19062523948E+02 -0.89060232109E+01  0.45125880167E+01  0.21518841031E+02  0.00000000000E+00 0.  1.
<scales pt_clust_5="13000.00000" pt_clust_6="13000.00000" pt_clust_7="13000.00000" pt_clust_8="13000.00000" pt_clust_9="20.93778" pt_clust_10="20.65728"></scales>
<clustering>
<clus scale="   20.938">  2  9  1 -1</clus>
<clus scale="   20.657">  1 10  2 -1</clus>
<clus scale="   91.005">  7  8 -1 -1</clus>
<clus scale="   95.105">  5  6 -1 -1</clus>
<clus scale="  108.421">  2  7  1 -1</clus>
<clus scale="   20.657">  1  5  2 -1</clus>
</clustering>
</event>
<event>
10    2  0.1133532E-006  0.1207372E+03  0.7546771E-02  0.1242655E+00
          2   -1    0    0  503    0  0.00000000000E+00  0.00000000000E+00  0.48225380065E+03  0.48225380065E+03  0.00000000000E+00 0. -1.
         -2   -1    0    0    0  501 -0.00000000000E+00 -0.00000000000E+00 -0.27471013457E+03  0.27471013457E+03  0.00000000000E+00 0.  1.
         23    2    1    2    0    0 -0.40943392555E+02 -0.90262043340E+02 -0.10749904286E+03  0.17305132509E+03  0.92558732913E+02 0.  0.
         23    2    1    2    0    0  0.25486601476E+02  0.81444544795E+02  0.41417197086E+03  0.43339957429E+03  0.94942028737E+02 0.  0.
        -13    1    3    3    0    0 -0.19770936333E+02 -0.61846133493E+02 -0.56047476593E+01  0.65170908754E+02  0.00000000000E+00 0. -1.
         13    1    3    3    0    0 -0.21172456222E+02 -0.28415909847E+02 -0.10189429520E+03  0.10788041634E+03  0.00000000000E+00 0.  1.
        -13    1    4    4    0    0  0.44261600286E+02  0.26853818174E+02  0.87520204022E+02  0.10168580492E+03  0.00000000000E+00 0. -1.
         13    1    4    4    0    0 -0.18774998810E+02  0.54590726621E+02  0.32665176683E+03  0.33171376937E+03  0.00000000000E+00 0.  1.
         21    1    1    2  502  501  0.38120137311E+02  0.18721420710E+02 -0.11400005032E+03  0.12165380362E+03  0.00000000000E+00 0.  1.
         21    1    1    2  503  502 -0.22663346232E+02 -0.99039221649E+01  0.14870788399E+02  0.28859232219E+02  0.00000000000E+00 0. -1.
<scales pt_clust_5="13000.00000" pt_clust_6="13000.00000" pt_clust_7="13000.00000" pt_clust_8="13000.00000" pt_clust_9="42.26386" pt_clust_10="24.73287"></scales>
<clustering>
<clus scale="   24.733">  1 10  2 -1</clus>
<clus scale="   42.264">  2  9  1 -1</clus>
<clus scale="   92.559">  5  6 -1 -1</clus>
<clus scale="   94.942">  7  8 -1 -1</clus>
<clus scale="  118.872">  2  5  1 -1</clus>
<clus scale="   24.733">  1  5  2 -1</clus>
</clustering>
</event>
<event>
10    2  0.1133532E-006  0.1080497E+03  0.7546771E-02  0.1264977E+00
          1   -1    0    0  503    0  0.00000000000E+00  0.00000000000E+00  0.14394520886E+03  0.14394520886E+03  0.00000000000E+00 0. -1.
         -1   -1    0    0    0  501 -0.00000000000E+00 -0.00000000000E+00 -0.36252083607E+03  0.36252083607E+03  0.00000000000E+00 0.  1.
         23    2    1    2    0    0 -0.45233337478E+02 -0.46427003411E+02 -0.26842222079E+03  0.29085119743E+03  0.91336788677E+02 0.  0.
         23    2    1    2    0    0  0.21973033256E+02 -0.90506464939E+01  0.62912120035E+02  0.11490355739E+03  0.93167399134E+02 0.  0.
        -11    1    3    3    0    0 -0.67554422253E+02 -0.44542293075E+02 -0.15102942922E+03  0.17134031729E+03  0.00000000000E+00 0.  1.
         11    1    3    3    0    0  0.22321084775E+02 -0.18847103355E+01 -0.11739279157E+03  0.11951088014E+03  0.00000000000E+00 0. -1.
        -11    1    4    4    0    0 -0.27516741374E+02 -0.21170505442E+01  0.58564792623E+02  0.64741701351E+02  0.00000000000E+00 0. -1.
         11    1    4    4    0    0  0.49489774630E+02 -0.69335959497E+01  0.43473274115E+01  0.50161856040E+02  0.00000000000E+00 0.  1.
         21    1    1    2  502  501 -0.11732666861E+02  0.23923564293E+02 -0.38765187845E+02  0.47039687380E+02  0.00000000000E+00 0.  1.
         21    1    1    2  503  502  0.34992971083E+02  0.31554085611E+02  0.25699661396E+02  0.53671602732E+02  0.00000000000E+00 0. -1.
<scales pt_clust_5="13000.00000" pt_clust_6="13000.00000" pt_clust_7="13000.00000" pt_clust_8="13000.00000" pt_clust_9="26.64568" pt_clust_10="47.45168"></scales>
<clustering>
<clus scale="   26.646">  2  9  1 -1</clus>
<clus scale="   47.452">  1 10  2 -1</clus>
<clus scale="   91.337">  5  6 -1 -1</clus>
<clus scale="   93.167">  7  8 -1 -1</clus>
<clus scale="  106.475">  2  5  1 -1</clus>
<clus scale="   47.452">  1  5  2 -1</clus>
</clustering>
</event>
<event>
10    2  0.1133532E-006  0.1572637E+03  0.7546771E-02  0.1195959E+00
          2   -1    0    0  503    0  0.00000000000E+00  0.00000000000E+00  0.54016294758E+03  0.54016294758E+03  0.00000000000E+00 0. -1.
         -2   -1    0    0    0  501 -0.00000000000E+00 -0.00000000000E+00 -0.13543801608E+03  0.13543801608E+03  0.00000000000E+00 0.  1.
         23    2    1    2    0    0  0.62473599772E+02 -0.77828049203E+02  0.14677601630E+03  0.19924044576E+03  0.90517403596E+02 0.  0.
         23    2    1    2    0    0  0.76082921621E+02  0.77844655616E+02  0.15617389766E+03  0.21223158034E+03  0.93827266905E+02 0.  0.
        -11    1    3    3    0    0  0.26312564634E+01 -0.41083211239E+02  0.11503039361E+03  0.12217505969E+03  0.00000000000E+00 0. -1.
         11    1    3    3    0    0  0.59842343309E+02 -0.36744837964E+02  0.31745622687E+02  0.77065386066E+02  0.00000000000E+00 0.  1.
        -11    1    4    4    0    0 -0.11536473328E+02  0.31476686311E+02  0.88711562783E+01  0.34678082583E+02  0.00000000000E+00 0. -1.
         11    1    4    4    0    0  0.87619394948E+02  0.46367969306E+02  0.14730274138E+03  0.17755349776E+03  0.00000000000E+00 0.  1.
         21    1    1    2  502  501  0.29750197691E+02 -0.33384327694E+02 -0.24593644485E+02  0.51033664843E+02  0.00000000000E+00 0.  1.
         21    1    1    2  503  502 -0.16830671908E+03  0.33367721280E+02  0.12636866203E+03  0.21309527272E+03  0.00000000000E+00 0. -1.
<scales pt_clust_5="13000.00000" pt_clust_6="13000.00000" pt_clust_7="13000.00000" pt_clust_8="13000.00000" pt_clust_9="44.71675" pt_clust_10="128.60203"></scales>
<clustering>
<clus scale="   44.717">  2  9  1 -1</clus>
<clus scale="   90.517">  5  6 -1 -1</clus>
<clus scale="   93.827">  7  8 -1 -1</clus>
<clus scale="  143.611">  1  7  2 -1</clus>
<clus scale="  128.602">  2 10  1 -1</clus>
<clus scale="  143.611">  1  5  2 -1</clus>
</clustering>
</event>
<event>
10    2  0.1133532E-006  0.1584159E+03  0.7546771E-02  0.1190500E+00
         -2   -1    0    0    0  501 -0.00000000000E+00  0.00000000000E+00  0.42680935232E+03  0.42680935232E+03  0.00000000000E+00 0. -1.
          2   -1    0    0  503    0  0.00000000000E+00 -0.00000000000E+00 -0.56756795927E+03  0.56756795927E+03  0.00000000000E+00 0.  1.
         23    2    1    2    0    0 -0.92189031869E+02 -0.98796977572E+02  0.36668882106E+03  0.40128013685E+03  0.91133947413E+02 0.  0.
         23    2    1    2    0    0 -0.44996706830E+02  0.86681482429E+02 -0.28049991412E+03  0.31068807870E+03  0.91150959447E+02 0.  0.
        -13    1    3    3    0    0 -0.81837633651E+02 -0.26466523722E+02  0.24109910501E+03  0.25598174465E+03  0.00000000000E+00 0. -1.
         13    1    3    3    0    0 -0.10351398218E+02 -0.72330453851E+02  0.12558971605E+03  0.14529839220E+03  0.00000000000E+00 0.  1.
        -13    1    4    4    0    0 -0.60210218291E+02  0.18282176996E+02 -0.11813494258E+03  0.13384832103E+03  0.00000000000E+00 0.  1.
         13    1    4    4    0    0  0.15213511461E+02  0.68399305433E+02 -0.16236497153E+03  0.17683975768E+03  0.00000000000E+00 0. -1.
         21    1    1    2  502  501  0.84106107393E+02 -0.16170474068E+02 -0.58959990090E+02  0.10397885345E+03  0.00000000000E+00 0.  1.
         21    1    1    2  503  502  0.53079631306E+02  0.28285969211E+02 -0.16798752381E+03  0.17843024258E+03  0.00000000000E+00 0.  1.
<scales pt_clust_5="13000.00000" pt_clust_6="13000.00000" pt_clust_7="13000.00000" pt_clust_8="13000.00000" pt_clust_9="95.63089" pt_clust_10="60.14602"></scales>
<clustering>
<clus scale="   60.146">  2 10  1 -1</clus>
<clus scale="   91.134">  5  6 -1 -1</clus>
<clus scale="   91.151">  7  8 -1 -1</clus>
<clus scale="   95.631">  2  9  1 -1</clus>
<clus scale="  158.406">  1  5  2 -1</clus>
<clus scale="   60.146">  2  5  1 -1</clus>
</clustering>
</event>
<event>
10    2  0.1133532E-006  0.1102505E+03  0.7546771E-02  0.1262459E+00
         -2   -1    0    0    0  501 -0.00000000000E+00  0.00000000000E+00  0.27631159060E+03  0.27631159060E+03  0.00000000000E+00 0.  1.
          2   -1    0    0  503    0  0.00000000000E+00 -0.00000000000E+00 -0.96787614674E+02  0.96787614674E+02  0.00000000000E+00 0. -1.
         23    2    1    2    0    0 -0.33251973690E+02 -0.33628157569E+02  0.89842035332E+02  0.14128106206E+03  0.98245612867E+02 0.  0.
         23    2    1    2    0    0  0.27711171398E+02  0.37306859794E+02  0.27911339183E+02  0.10732828791E+03  0.92631569799E+02 0.  0.
        -11    1    4    4    0    0  0.35516342374E+02 -0.20139161128E+02  0.27727902742E+02  0.49354158660E+02  0.00000000000E+00 0.  1.
         11    1    4    4    0    0 -0.78051709755E+01  0.57446020922E+02  0.18343644149E+00  0.57974129253E+02  0.00000000000E+00 0. -1.
        -11    1    3    3    0    0  0.21670155525E+02 -0.34134065499E+02  0.57462954265E+01  0.40838094704E+02  0.00000000000E+00 0. -1.
         11    1    3    3    0    0 -0.54922129215E+02  0.50590793014E+00  0.84095739905E+02  0.10044296735E+03  0.00000000000E+00 0.  1.
         21    1    1    2  502  501  0.33357880645E+01 -0.23839612176E+02  0.88057577733E+02  0.91288507420E+02  0.00000000000E+00 0.  1.
         21    1    1    2  503  502  0.22050142273E+01  0.20160909950E+02 -0.26286976317E+02  0.33201347889E+02  0.00000000000E+00 0. -1.
<scales pt_clust_5="13000.00000" pt_clust_6="13000.00000" pt_clust_7="13000.00000" pt_clust_8="13000.00000" pt_clust_9="23.59842" pt_clust_10="20.28113"></scales>
<clustering>
<clus scale="   20.281">  2 10  1 -1</clus>
<clus scale="   23.598">  1  9  2 -1</clus>
<clus scale="   92.632">  5  6 -1 -1</clus>
<clus scale="   98.246">  7  8 -1 -1</clus>
<clus scale="  105.279">  2  5  1 -1</clus>
<clus scale="   20.281">  2  5  1 -1</clus>
</clustering>
</event>
<event>
10    2  0.1133532E-006  0.1068509E+03  0.7546771E-02  0.1269861E+00
         -2   -1    0    0    0  501 -0.00000000000E+00  0.00000000000E+00  0.43926359888E+02  0.43926359888E+02  0.00000000000E+00 0.  1.
          2   -1    0    0  503    0  0.00000000000E+00 -0.00000000000E+00 -0.51659313169E+03  0.51659313169E+03  0.00000000000E+00 0. -1.
         23    2    1    2    0    0  0.38758481267E+02  0.63260856810E+02 -0.17991862505E+03  0.21160326752E+03  0.83072710997E+02 0.  0.
         23    2    1    2    0    0 -0.27964498446E+02 -0.36703603028E+02 -0.18932127851E+03  0.21508721119E+03  0.91053798767E+02 0.  0.
        -11    1    3    3    0    0  0.22386551497E+02  0.73809201379E+01 -0.11605730364E+01  0.23600478804E+02  0.00000000000E+00 0.  1.
         11    1    3    3    0    0  0.16371929770E+02  0.55879936672E+02 -0.17875805201E+03  0.18800278872E+03  0.00000000000E+00 0. -1.
        -13    1    4    4    0    0  0.33538876946E+02 -0.12033293066E+02 -0.60226510337E+02  0.69977774730E+02  0.00000000000E+00 0.  1.
         13    1    4    4    0    0 -0.61503375393E+02 -0.24670309962E+02 -0.12909476818E+03  0.14510943646E+03  0.00000000000E+00 0. -1.
         21    1    1    2  502  501 -0.22665792954E+02 -0.42979439033E+02 -0.28764549611E+02  0.56465650303E+02  0.00000000000E+00 0.  1.
         21    1    1    2  503  502  0.11871810133E+02  0.16422185251E+02 -0.74662318627E+02  0.77363362563E+02  0.00000000000E+00 0.  1.
<scales pt_clust_5="13000.00000" pt_clust_6="13000.00000" pt_clust_7="13000.00000" pt_clust_8="13000.00000" pt_clust_9="46.64995" pt_clust_10="20.26396"></scales>
<clustering>
<clus scale="   20.264">  2 10  1 -1</clus>
<clus scale="   46.650">  1  9  2 -1</clus>
<clus scale="   83.073">  5  6 -1 -1</clus>
<clus scale="   91.054">  7  8 -1 -1</clus>
<clus scale="  100.137">  1  5  2 -1</clus>
<clus scale="   20.264">  2  5  1 -1</clus>
</clustering>
</event>
<event>
10    2  0.1133532E-006  0.1583141E+03  0.7546771E-02  0.1190779E+00
         -2   -1    0    0    0  501 -0.00000000000E+00  0.00000000000E+00  0.80165867354E+02  0.80165867354E+02  0.00000000000E+00 0.  1.
          2   -1    0    0  503    0  0.00000000000E+00 -0.00000000000E+00 -0.55238706064E+03  0.55238706064E+03  0.00000000000E+00 0. -1.
         23    2    1    2    0    0  0.90302565024E+02  0.12698833132E+03 -0.20258001927E+03  0.27118925806E+03  0.90688256894E+02 0.  0.
         23    2    1    2    0    0 -0.46071131033E+02 -0.10213818646E+03 -0.19693528164E+03  0.24368101599E+03  0.89678169874E+02 0.  0.
        -13    1    4    4    0    0 -0.69134561988E+02 -0.66344008667E+02 -0.16363616488E+03  0.18962570924E+03  0.00000000000E+00 0. -1.
         13    1    4    4    0    0  0.23063430956E+02 -0.35794177789E+02 -0.33299116758E+02  0.54055306750E+02  0.00000000000E+00 0.  1.
        -13    1    3    3    0    0  0.23757792320E+02  0.23771548506E+02  0.78764274954E+00  0.33617548920E+02  0.00000000000E+00 0.  1.
         13    1    3    3    0    0  0.66544772705E+02  0.10321678281E+03 -0.20336766202E+03  0.23757170914E+03  0.00000000000E+00 0. -1.
         21    1    1    2  502  501 -0.23573569922E+02 -0.34406604470E+02 -0.22113759455E+00  0.41708230985E+02  0.00000000000E+00 0.  1.
         21    1    1    2  503  502 -0.20657864070E+02  0.95564596062E+01 -0.72484754790E+02  0.75974422967E+02  0.00000000000E+00 0.  1.
<scales pt_clust_5="13000.00000" pt_clust_6="13000.00000" pt_clust_7="13000.00000" pt_clust_8="13000.00000" pt_clust_9="41.88548" pt_clust_10="22.76122"></scales>
<clustering>
<clus scale="   22.761">  2 10  1 -1</clus>
<clus scale="   41.885">  1  9  2 -1</clus>
<clus scale="   89.678">  5  6 -1 -1</clus>
<clus scale="   90.688">  7  8 -1 -1</clus>
<clus scale="  157.738">  2  5  1 -1</clus>
<clus scale="   22.761">  2  5  1 -1</clus>
</clustering>
</event>
<event>
10    2  0.1133532E-006  0.4639458E+03  0.7546771E-02  0.1023734E+00
         -1   -1    0    0    0  501 -0.00000000000E+00  0.00000000000E+00  0.88730238610E+03  0.88730238610E+03  0.00000000000E+00 0.  1.
          1   -1    0    0  503    0  0.00000000000E+00 -0.00000000000E+00 -0.56186736661E+03  0.56186736661E+03  0.00000000000E+00 0. -1.
         23    2    1    2    0    0  0.62943880880E+02  0.40569081475E+03  0.38838463726E+03  0.57172976628E+03  0.86517800967E+02 0.  0.
         23    2    1    2    0    0  0.22128850083E+03 -0.43203915095E+03 -0.18229996338E+03  0.52679957410E+03  0.93048837040E+02 0.  0.
        -13    1    4    4    0    0  0.41503685169E+02 -0.12075256972E+03 -0.88282119841E+02  0.15523360351E+03  0.00000000000E+00 0. -1.
         13    1    4    4    0    0  0.17978481566E+03 -0.31128658123E+03 -0.94017843540E+02  0.37156597059E+03  0.00000000000E+00 0.  1.
        -13    1    3    3    0    0  0.25627161348E+02  0.34888285921E+03  0.34353226694E+03  0.49029625664E+03  0.00000000000E+00 0.  1.
         13    1    3    3    0    0  0.37316719533E+02  0.56807955535E+02  0.44852370320E+02  0.81433509639E+02  0.00000000000E+00 0. -1.
         21    1    1    2  502  501 -0.19307935179E+03  0.74006233253E+02  0.13449917337E+03  0.24667100820E+03  0.00000000000E+00 0. -1.
         21    1    1    2  503  502 -0.91153029917E+02 -0.47657897052E+02 -0.15148827756E+02  0.10396940414E+03  0.00000000000E+00 0. -1.
<scales pt_clust_5="13000.00000" pt_clust_6="13000.00000" pt_clust_7="13000.00000" pt_clust_8="13000.00000" pt_clust_9="214.54859" pt_clust_10="102.85986"></scales>
<clustering>
<clus scale="   86.518">  7  8 -1 -1</clus>
<clus scale="   93.049">  5  6 -1 -1</clus>
<clus scale="  102.860">  2 10  1 -1</clus>
<clus scale="  214.549">  1  9  2 -1</clus>
<clus scale="  462.680">  1  7  2 -1</clus>
<clus scale="  102.860">  2  5  1 -1</clus>
</clustering>
</event>
<event>
10    2  0.1133532E-006  0.1688020E+03  0.7546771E-02  0.1182318E+00
         -2   -1    0    0    0  501 -0.00000000000E+00  0.00000000000E+00  0.81509865088E+02  0.81509865088E+02  0.00000000000E+00 0.  1.
          2   -1    0    0  503    0  0.00000000000E+00 -0.00000000000E+00 -0.12749935964E+04  0.12749935964E+04  0.00000000000E+00 0. -1.
         23    2    1    2    0    0  0.73625228827E+02 -0.40112418739E+02 -0.27319798106E+03  0.30636674322E+03  0.11042537770E+03 0.  0.
         23    2    1    2    0    0 -0.19513940780E+03  0.55428480929E+02 -0.45004072262E+03  0.50204778904E+03  0.91452859389E+02 0.  0.
        -13    1    3    3    0    0  0.11191304352E+02  0.29468298300E+02 -0.22283744318E+02  0.38602994167E+02  0.00000000000E+00 0. -1.
         13    1    3    3    0    0  0.62433924475E+02 -0.69580717039E+02 -0.25091423674E+03  0.26776374905E+03  0.00000000000E+00 0.  1.
        -13    1    4    4    0    0 -0.15837870058E+03  0.61629107932E+02 -0.27653447916E+03  0.32458169681E+03  0.00000000000E+00 0. -1.
         13    1    4    4    0    0 -0.36760707214E+02 -0.62006270034E+01 -0.17350624346E+03  0.17746609223E+03  0.00000000000E+00 0.  1.
         21    1    1    2  502  501 -0.11974923752E+02 -0.21592986413E+02  0.24995708202E+02  0.35134616685E+02  0.00000000000E+00 0.  1.
         21    1    1    2  503  502  0.13348910272E+03  0.62769242227E+01 -0.49524073579E+03  0.51295431249E+03  0.00000000000E+00 0.  1.
<scales pt_clust_5="13000.00000" pt_clust_6="13000.00000" pt_clust_7="13000.00000" pt_clust_8="13000.00000" pt_clust_9="24.69121" pt_clust_10="131.45240"></scales>
<clustering>
<clus scale="   24.691">  1  9  2 -1</clus>
<clus scale="   91.453">  7  8 -1 -1</clus>
<clus scale="  110.425">  5  6 -1 -1</clus>
<clus scale="  131.452">  2 10  1 -1</clus>
<clus scale="  157.048">  2  7  1 -1</clus>
<clus scale="  131.452">  2  5  1 -1</clus>
</clustering>
</event>
<event>
10    2  0.1133532E-006  0.1353223E+03  0.7546771E-02  0.1220304E+00
         -3   -1    0    0    0  501 -0.00000000000E+00  0.00000000000E+00  0.11720432928E+04  0.11720432928E+04  0.00000000000E+00 0.  1.
          3   -1    0    0  503    0  0.00000000000E+00 -0.00000000000E+00 -0.13811265292E+03  0.13811265292E+03  0.00000000000E+00 0. -1.
         23    2    1    2    0    0 -0.13768781260E+03  0.62265228949E+02  0.50763936567E+03  0.53768395576E+03  0.92581954127E+02 0.  0.
         23    2    1    2    0    0  0.10850164847E+03  0.51974247207E+02  0.19624796771E+02  0.15172540977E+03  0.90341226626E+02 0.  0.
        -13    1    4    4    0    0  0.75603129431E+02  0.92605756697E+01  0.48763621492E+02  0.90440489951E+02  0.00000000000E+00 0.  1.
         13    1    4    4    0    0  0.32898519036E+02  0.42713671538E+02 -0.29138824721E+02  0.61284919818E+02  0.00000000000E+00 0. -1.
        -13    1    3    3    0    0 -0.80192447987E+02 -0.32059689350E+00  0.34478167200E+03  0.35398493308E+03  0.00000000000E+00 0.  1.
         13    1    3    3    0    0 -0.57495364610E+02  0.62585825842E+02  0.16285769367E+03  0.18369902268E+03  0.00000000000E+00 0. -1.
         21    1    1    2  502  501  0.54608763083E+02 -0.94368786694E+02  0.55335438178E+03  0.56399348998E+03  0.00000000000E+00 0.  1.
         21    1    1    2  503  502 -0.25422598954E+02 -0.19870689461E+02 -0.46687904336E+02  0.56753090211E+02  0.00000000000E+00 0.  1.
<scales pt_clust_5="13000.00000" pt_clust_6="13000.00000" pt_clust_7="13000.00000" pt_clust_8="13000.00000" pt_clust_9="109.32287" pt_clust_10="32.26690"></scales>
<clustering>
<clus scale="   32.267">  2 10  1 -1</clus>
<clus scale="   90.341">  5  6 -1 -1</clus>
<clus scale="   92.582">  7  8 -1 -1</clus>
<clus scale="  109.323">  1  9  2 -1</clus>
<clus scale="  133.799">  2  5  1 -1</clus>
<clus scale="   32.267">  2  5  1 -1</clus>
</clustering>
</event>
<event>
10    2  0.1133532E-006  0.1371021E+03  0.7546771E-02  0.1217531E+00
         -1   -1    0    0    0  501 -0.00000000000E+00  0.00000000000E+00  0.42864122909E+03  0.42864122909E+03  0.00000000000E+00 0.  1.
          1   -1    0    0  503    0  0.00000000000E+00 -0.00000000000E+00 -0.14217999595E+03  0.14217999595E+03  0.00000000000E+00 0. -1.
         23    2    1    2    0    0  0.10656158941E+03 -0.58126909907E+01  0.24288405535E+03  0.28021438734E+03  0.90212409419E+02 0.  0.
         23    2    1    2    0    0 -0.11236721552E+03  0.37068508677E+01  0.94954324888E+02  0.17317850866E+03  0.91292607473E+02 0.  0.
        -13    1    4    4    0    0 -0.65710176467E+02  0.36833901514E+02  0.87523108904E+02  0.11547665645E+03  0.00000000000E+00 0. -1.
         13    1    4    4    0    0 -0.46657039049E+02 -0.33127050646E+02  0.74312159842E+01  0.57701852209E+02  0.00000000000E+00 0.  1.
        -13    1    3    3    0    0  0.33334016036E+02 -0.14191158965E+02  0.12495875729E+02  0.38323524474E+02  0.00000000000E+00 0. -1.
         13    1    3    3    0    0  0.73227573378E+02  0.83784679739E+01  0.23038817962E+03  0.24189086287E+03  0.00000000000E+00 0.  1.
         21    1    1    2  502  501 -0.22091657359E+02 -0.23530901584E+02  0.19034112748E+02  0.37470549800E+02  0.00000000000E+00 0.  1.
         21    1    1    2  503  502  0.27897283461E+02  0.25636741707E+02 -0.70411259839E+02  0.79957779246E+02  0.00000000000E+00 0. -1.
<scales pt_clust_5="13000.00000" pt_clust_6="13000.00000" pt_clust_7="13000.00000" pt_clust_8="13000.00000" pt_clust_9="32.27607" pt_clust_10="37.50428"></scales>
<clustering>
<clus scale="   32.276">  1  9  2 -1</clus>
<clus scale="   37.504">  2 10  1 -1</clus>
<clus scale="   90.212">  7  8 -1 -1</clus>
<clus scale="   91.293">  5  6 -1 -1</clus>
<clus scale="  136.385">  1  7  2 -1</clus>
<clus scale="   37.504">  2  5  1 -1</clus>
</clustering>
</event>
<event>
10    2  0.1133532E-006  0.1077676E+03  0.7546771E-02  0.1265195E+00
         -1   -1    0    0    0  501 -0.00000000000E+00  0.00000000000E+00  0.30927499415E+02  0.30927499415E+02  0.00000000000E+00 0.  1.
          1   -1    0    0  503    0  0.00000000000E+00 -0.00000000000E+00 -0.10194952780E+04  0.10194952780E+04  0.00000000000E+00 0. -1.
         23    2    1    2    0    0 -0.21248534166E+02  0.41393591940E+02 -0.27753579950E+03  0.29688753510E+03  0.94610564070E+02 0.  0.
         23    2    1    2    0    0  0.13522454983E+02 -0.52950677748E+02 -0.58039904138E+03  0.59042855473E+03  0.93574568904E+02 0.  0.
        -11    1    4    4    0    0  0.52623406913E+02 -0.17379618866E+02 -0.28534493609E+03  0.29067680791E+03  0.00000000000E+00 0.  1.
         11    1    4    4    0    0 -0.39100951930E+02 -0.35571058882E+02 -0.29505410529E+03  0.29975174682E+03  0.00000000000E+00 0. -1.
        -13    1    3    3    0    0 -0.43218434022E+02  0.55864871315E+02 -0.24537075031E+03  0.25533413794E+03  0.00000000000E+00 0. -1.
         13    1    3    3    0    0  0.21969899855E+02 -0.14471279375E+02 -0.32165049188E+02  0.41553397162E+02  0.00000000000E+00 0.  1.
         21    1    1    2  502  501 -0.26098708098E+02 -0.32657486826E+02 -0.61134200083E+02  0.74061085801E+02  0.00000000000E+00 0.  1.
         21    1    1    2  503  502  0.33824787281E+02  0.44214572634E+02 -0.69498737659E+02  0.89045601823E+02  0.00000000000E+00 0. -1.
<scales pt_clust_5="13000.00000" pt_clust_6="13000.00000" pt_clust_7="13000.00000" pt_clust_8="13000.00000" pt_clust_9="41.80495" pt_clust_10="38.97327"></scales>
<clustering>
<clus scale="   41.805">  1  9  2 -1</clus>
<clus scale="   38.973">  1 10  2 -1</clus>
<clus scale="   93.575">  5  6 -1 -1</clus>
<clus scale="   94.611">  7  8 -1 -1</clus>
<clus scale="  106.859">  2  5  1 -1</clus>
<clus scale="  106.859">  2  5  1 -1</clus>
</clustering>
</event>
<event>
10    2  0.1133532E-006  0.1372304E+03  0.7546771E-02  0.1217703E+00
          2   -1    0    0  503    0  0.00000000000E+00  0.00000000000E+00  0.48096724872E+03  0.48096724872E+03  0.00000000000E+00 0. -1.
         -2   -1    0    0    0  501 -0.00000000000E+00 -0.00000000000E+00 -0.12624299516E+03  0.12624299516E+03  0.00000000000E+00 0.  1.
         23    2    1    2    0    0  0.21052947444E+02 -0.69859521565E+02 -0.16148995587E+02  0.11735283926E+03  0.90483807797E+02 0.  0.
         23    2    1    2    0    0 -0.96299301073E+02  0.54687362398E+02  0.34951619511E+03  0.37826243210E+03  0.93041033429E+02 0.  0.
        -11    1    4    4    0    0 -0.12738635998E+02  0.19930918299E+02  0.80183047290E+01  0.24976139855E+02  0.00000000000E+00 0.  1.
         11    1    4    4    0    0 -0.83560665075E+02  0.34756444099E+02  0.34149789038E+03  0.35328629224E+03  0.00000000000E+00 0. -1.
        -11    1    3    3    0    0  0.55052975272E+02 -0.41050012053E+02 -0.22661338835E+02  0.72315073489E+02  0.00000000000E+00 0.  1.
         11    1    3    3    0    0 -0.34000027828E+02 -0.28809509512E+02  0.65123432484E+01  0.45037765766E+02  0.00000000000E+00 0. -1.
         21    1    1    2  502  501  0.36332785150E+02 -0.30945107767E+02  0.18503006778E+02  0.51186250413E+02  0.00000000000E+00 0.  1.
         21    1    1    2  503  502  0.38913568479E+02  0.46117266935E+02  0.28540472670E+01  0.60408722111E+02  0.00000000000E+00 0.  1.
<scales pt_clust_5="13000.00000" pt_clust_6="13000.00000" pt_clust_7="13000.00000" pt_clust_8="13000.00000" pt_clust_9="47.72495" pt_clust_10="61.56531"></scales>
<clustering>
<clus scale="   47.725">  2  9  1 -1</clus>
<clus scale="   61.565">  2 10  1 -1</clus>
<clus scale="   90.484">  7  8 -1 -1</clus>
<clus scale="   93.041">  5  6 -1 -1</clus>
<clus scale="  135.510">  2  7  1 -1</clus>
<clus scale="  137.230">  1  5  2 -1</clus>
</clustering>
</event>
<event>
10    2  0.1133532E-006  0.1158161E+03  0.7546771E-02  0.1255085E+00
          2   -1    0    0  503    0  0.00000000000E+00  0.00000000000E+00  0.16060646478E+03  0.16060646478E+03  0.00000000000E+00 0. -1.
         -2   -1    0    0    0  501 -0.00000000000E+00 -0.00000000000E+00 -0.22475335102E+03  0.22475335102E+03  0.00000000000E+00 0.  1.
         23    2    1    2    0    0  0.36160780906E+02 -0.88206558495E+02 -0.60145876122E+01  0.13257587752E+03  0.91935787371E+02 0.  0.
         23    2    1    2    0    0 -0.17216519058E+02  0.23044874873E+01 -0.11878921445E+02  0.10620893686E+03  0.10410336355E+03 0.  0.
        -13    1    4    4    0    0  0.25943762945E+02  0.17014300178E+02 -0.41514219360E+02  0.51826592164E+02  0.00000000000E+00 0. -1.
         13    1    4    4    0    0 -0.43160282003E+02 -0.14709812691E+02  0.29635297915E+02  0.54382344695E+02  0.00000000000E+00 0.  1.
        -13    1    3    3    0    0 -0.27579640459E+02 -0.50871976848E+02 -0.94156709525E+01  0.58628060311E+02  0.00000000000E+00 0.  1.
         13    1    3    3    0    0  0.63740421365E+02 -0.37334581647E+02  0.34010833403E+01  0.73947817212E+02  0.00000000000E+00 0. -1.
         21    1    1    2  502  501  0.76764327947E+01  0.81231487200E+02 -0.72316468375E+02  0.10902822447E+03  0.00000000000E+00 0.  1.
         21    1    1    2  503  502 -0.26620694643E+02  0.46705838076E+01  0.26063091191E+02  0.37546776943E+02  0.00000000000E+00 0. -1.
<scales pt_clust_5="13000.00000" pt_clust_6="13000.00000" pt_clust_7="13000.00000" pt_clust_8="13000.00000" pt_clust_9="81.98909" pt_clust_10="27.02731"></scales>
<clustering>
<clus scale="   27.027">  1 10  2 -1</clus>
<clus scale="   81.989">  2  9  1 -1</clus>
<clus scale="   91.936">  7  8 -1 -1</clus>
<clus scale="  104.103">  5  6 -1 -1</clus>
<clus scale="  105.014">  2  7  1 -1</clus>
<clus scale="   27.027">  1  5  2 -1</clus>
</clustering>
</event>
<event>
10    2  0.1133532E-006  0.1444267E+03  0.7546771E-02  0.1207529E+00
         -1   -1    0    0    0  501 -0.00000000000E+00  0.00000000000E+00  0.47219109826E+03  0.47219109826E+03  0.00000000000E+00 0.  1.
          1   -1    0    0  503    0  0.00000000000E+00 -0.00000000000E+00 -0.51793063124E+03  0.51793063124E+03  0.00000000000E+00 0. -1.
         23    2    1    2    0    0  0.11637405136E+03  0.57281495252E+02  0.35053764501E+03  0.38484110151E+03  0.91662114929E+02 0.  0.
         23    2    1    2    0    0 -0.79383866180E+02 -0.78695842455E+02 -0.31750099869E+03  0.34890588971E+03  0.91834644209E+02 0.  0.
        -11    1    3    3    0    0  0.44818748024E+02 -0.19386448975E+02  0.16078211100E+03  0.16803404951E+03  0.00000000000E+00 0. -1.
         11    1    3    3    0    0  0.71555303340E+02  0.76667944227E+02  0.18975553401E+03  0.21680705200E+03  0.00000000000E+00 0.  1.
        -11    1    4    4    0    0  0.47425685763E+01 -0.41597333334E+02 -0.17012949865E+03  0.17520524082E+03  0.00000000000E+00 0.  1.
         11    1    4    4    0    0 -0.84126434757E+02 -0.37098509121E+02 -0.14737150004E+03  0.17370064890E+03  0.00000000000E+00 0. -1.
         21    1    1    2  502  501 -0.12972947255E+02 -0.17095211559E+02  0.84358026847E+02  0.87044932720E+02  0.00000000000E+00 0. -1.
         21    1    1    2  503  502 -0.24017237929E+02  0.38509558762E+02 -0.16313420615E+03  0.16932980556E+03  0.00000000000E+00 0. -1.
<scales pt_clust_5="13000.00000" pt_clust_6="13000.00000" pt_clust_7="13000.00000" pt_clust_8="13000.00000" pt_clust_9="21.46028" pt_clust_10="45.32422"></scales>
<clustering>
<clus scale="   21.460">  1  9  2 -1</clus>
<clus scale="   45.324">  2 10  1 -1</clus>
<clus scale="   91.662">  5  6 -1 -1</clus>
<clus scale="   91.835">  7  8 -1 -1</clus>
<clus scale="  144.317">  1  5  2 -1</clus>
<clus scale="   45.324">  2  5  1 -1</clus>
</clustering>
</event>
<event>
10    2  0.1133532E-006  0.1139154E+03  0.7546771E-02  0.1254282E+00
          1   -1    0    0  503    0  0.00000000000E+00  0.00000000000E+00  0.54117664665E+02  0.54117664665E+02  0.00000000000E+00 0. -1.
         -1   -1    0    0    0  501 -0.00000000000E+00 -0.00000000000E+00 -0.41075177871E+03  0.41075177871E+03  0.00000000000E+00 0.  1.
         23    2    1    2    0    0  0.63756330276E+02  0.22766353890E+02 -0.16618058987E+03  0.20090489748E+03  0.90352713647E+02 0.  0.
         23    2    1    2    0    0 -0.61718650570E+02 -0.36760270545E+02 -0.15658376077E+03  0.19349137789E+03  0.88090464075E+02 0.  0.
        -11    1    4    4    0    0 -0.55239256577E+02 -0.60201462698E+02 -0.14526589367E+03  0.16666664766E+03  0.00000000000E+00 0.  1.
         11    1    4    4    0    0 -0.64793939926E+01  0.23441192152E+02 -0.11317867097E+02  0.26824730225E+02  0.00000000000E+00 0. -1.
        -11    1    3    3    0    0  0.84948312623E+02  0.91680969313E+01 -0.10955748264E+03  0.13893563913E+03  0.00000000000E+00 0.  1.
         11    1    3    3    0    0 -0.21191982347E+02  0.13598256959E+02 -0.56623107228E+02  0.61969258349E+02  0.00000000000E+00 0. -1.
         21    1    1    2  502  501  0.19450241675E+02  0.28470038359E+02 -0.26645358630E+02  0.43575567946E+02  0.00000000000E+00 0. -1.
         21    1    1    2  503  502 -0.21487921381E+02 -0.14476121703E+02 -0.72244047848E+01  0.26897600067E+02  0.00000000000E+00 0. -1.
<scales pt_clust_5="13000.00000" pt_clust_6="13000.00000" pt_clust_7="13000.00000" pt_clust_8="13000.00000" pt_clust_9="29.93356" pt_clust_10="25.90924"></scales>
<clustering>
<clus scale="   25.909">  1 10  2 -1</clus>
<clus scale="   29.934">  1  9  2 -1</clus>
<clus scale="   88.090">  5  6 -1 -1</clus>
<clus scale="   90.353">  7  8 -1 -1</clus>
<clus scale="  112.130">  1  5  2 -1</clus>
<clus scale="   25.909">  1  5  2 -1</clus>
</clustering>
</event>
<event>
10    2  0.1133532E-006  0.1364190E+03  0.7546771E-02  0.1219706E+00
         -1   -1    0    0    0  501 -0.00000000000E+00  0.00000000000E+00  0.39930447069E+03  0.39930447069E+03  0.00000000000E+00 0.  1.
          1   -1    0    0  503    0  0.00000000000E+00 -0.00000000000E+00 -0.22232341836E+03  0.22232341836E+03  0.00000000000E+00 0. -1.
         23    2    1    2    0    0  0.79932140839E+02 -0.61366120234E+02  0.24492095651E+03  0.28151542707E+03  0.95444815930E+02 0.  0.
         23    2    1    2    0    0 -0.59637677014E+02  0.68093699213E+02  0.42939283354E+02  0.13426297568E+03  0.89383220976E+02 0.  0.
        -11    1    3    3    0    0  0.27278937355E+02  0.23799792106E+02  0.43607397364E+02  0.56676058723E+02  0.00000000000E+00 0. -1.
         11    1    3    3    0    0  0.52653203483E+02 -0.85165912340E+02  0.20131355915E+03  0.22483936835E+03  0.00000000000E+00 0.  1.
        -11    1    4    4    0    0  0.16069951010E+02  0.42631127134E+02  0.26526993049E+02  0.52719424185E+02  0.00000000000E+00 0. -1.
         11    1    4    4    0    0 -0.75707628024E+02  0.25462572079E+02  0.16412290306E+02  0.81543551498E+02  0.00000000000E+00 0.  1.
         21    1    1    2  502  501 -0.19201866536E+02 -0.41968497104E+02  0.33627282587E+02  0.57103945239E+02  0.00000000000E+00 0.  1.
         21    1    1    2  503  502 -0.10925972882E+01  0.35240918125E+02 -0.14450647012E+03  0.14874554106E+03  0.00000000000E+00 0. -1.
<scales pt_clust_5="13000.00000" pt_clust_6="13000.00000" pt_clust_7="13000.00000" pt_clust_8="13000.00000" pt_clust_9="41.32516" pt_clust_10="35.25785"></scales>
<clustering>
<clus scale="   35.258">  2 10  1 -1</clus>
<clus scale="   41.325">  2  9  1 -1</clus>
<clus scale="   89.383">  7  8 -1 -1</clus>
<clus scale="   95.445">  5  6 -1 -1</clus>
<clus scale="  132.249">  2  7  1 -1</clus>
<clus scale="   35.258">  2  5  1 -1</clus>
</clustering>
</event>
<event>
10    2  0.1133532E-006  0.1257406E+03  0.7546771E-02  0.1238454E+00
          3   -1    0    0  503    0  0.00000000000E+00  0.00000000000E+00  0.22463847332E+03  0.22463847332E+03  0.00000000000E+00 0. -1.
         -3   -1    0    0    0  501 -0.00000000000E+00 -0.00000000000E+00 -0.59621464743E+03  0.59621464743E+03  0.00000000000E+00 0.  1.
         23    2    1    2    0    0  0.45018166664E+02 -0.11795158412E+03 -0.22855120857E+03  0.27547279932E+03  0.87808864610E+02 0.  0.
         23    2    1    2    0    0 -0.58770153236E+02 -0.20591299868E+02  0.73617349682E+02  0.13427697988E+03  0.93449775868E+02 0.  0.
        -11    1    4    4    0    0 -0.71929568395E+02 -0.43628883326E+02  0.65224899375E+02  0.10645012808E+03  0.00000000000E+00 0.  1.
         11    1    4    4    0    0  0.13159415159E+02  0.23037583458E+02  0.83924503062E+01  0.27826851799E+02  0.00000000000E+00 0. -1.
        -11    1    3    3    0    0  0.58306525291E+02 -0.54801975117E+02 -0.78322669906E+02  0.11197029959E+03  0.00000000000E+00 0. -1.
         11    1    3    3    0    0 -0.13288358628E+02 -0.63149609001E+02 -0.15022853866E+03  0.16350249974E+03  0.00000000000E+00 0.  1.
         21    1    1    2  502  501 -0.57533712540E+02  0.40782024673E+02 -0.26986230598E+03  0.27892465973E+03  0.00000000000E+00 0.  1.
         21    1    1    2  503  502  0.71285699112E+02  0.97760859313E+02  0.53219990755E+02  0.13217868182E+03  0.00000000000E+00 0.  1.
<scales pt_clust_5="13000.00000" pt_clust_6="13000.00000" pt_clust_7="13000.00000" pt_clust_8="13000.00000" pt_clust_9="70.52164" pt_clust_10="90.00169"></scales>
<clustering>
<clus scale="   70.522">  2  9  1 -1</clus>
<clus scale="   87.809">  7  8 -1 -1</clus>
<clus scale="   93.450">  5  6 -1 -1</clus>
<clus scale="  114.604">  1  5  2 -1</clus>
<clus scale="   90.002">  1 10  2 -1</clus>
<clus scale="  114.604">  1  5  2 -1</clus>
</clustering>
</event>
<event>
10    2  0.1133532E-006  0.1018191E+03  0.7546771E-02  0.1276679E+00
         -2   -1    0    0    0  501 -0.00000000000E+00  0.00000000000E+00  0.39709350462E+03  0.39709350462E+03  0.00000000000E+00 0.  1.
          2   -1    0    0  503    0  0.00000000000E+00 -0.00000000000E+00 -0.54793386385E+03  0.54793386385E+03  0.00000000000E+00 0. -1.
         23    2    1    2    0    0  0.38734832554E+02  0.77351412387E+02  0.19869851136E+03  0.23515875235E+03  0.91295739983E+02 0.  0.
         23    2    1    2    0    0  0.15485985169E+02 -0.14859228912E+02  0.10848300703E+03  0.14362636480E+03  0.91648008325E+02 0.  0.
        -11    1    4    4    0    0 -0.22992246651E+02  0.24403076846E+02  0.18811300244E+02  0.38445007250E+02  0.00000000000E+00 0. -1.
         11    1    4    4    0    0  0.38478231820E+02 -0.39262305758E+02  0.89671706788E+02  0.10518135755E+03  0.00000000000E+00 0.  1.
        -11    1    3    3    0    0  0.28311815115E+02 -0.85290636883E+01  0.17478038983E+02  0.34348007937E+02  0.00000000000E+00 0. -1.
         11    1    3    3    0    0  0.10423017439E+02  0.85880476076E+02  0.18122047238E+03  0.20081074442E+03  0.00000000000E+00 0.  1.
         21    1    1    2  502  501  0.18512091334E+02 -0.40002211935E+02  0.41745936629E+02  0.60709123781E+02  0.00000000000E+00 0.  1.
         21    1    1    2  503  502 -0.72732909058E+02 -0.22489971540E+02 -0.49976781425E+03  0.50553312754E+03  0.00000000000E+00 0. -1.
<scales pt_clust_5="13000.00000" pt_clust_6="13000.00000" pt_clust_7="13000.00000" pt_clust_8="13000.00000" pt_clust_9="44.07805" pt_clust_10="76.08260"></scales>
<clustering>
<clus scale="   44.078">  1  9  2 -1</clus>
<clus scale="   76.083">  2 10  1 -1</clus>
<clus scale="   91.296">  7  8 -1 -1</clus>
<clus scale="   91.648">  5  6 -1 -1</clus>
<clus scale="  101.502">  1  7  2 -1</clus>
<clus scale="   76.083">  2  5  1 -1</clus>
</clustering>
</event>
<event>
10    2  0.1133532E-006  0.1398499E+03  0.7546771E-02  0.1214333E+00
         -1   -1    0    0    0  501 -0.00000000000E+00  0.00000000000E+00  0.11318854674E+03  0.11318854674E+03  0.00000000000E+00 0.  1.
          1   -1    0    0  503    0  0.00000000000E+00 -0.00000000000E+00 -0.51262268805E+03  0.51262268805E+03  0.00000000000E+00 0. -1.
         23    2    1    2    0    0 -0.94560709218E+02 -0.46422602695E+02 -0.11457685261E+03  0.18079409248E+03  0.91988384881E+02 0.  0.
         23    2    1    2    0    0  0.84002888043E+02  0.50217710343E+02 -0.25463365136E+03  0.28674834053E+03  0.88362949022E+02 0.  0.
        -11    1    4    4    0    0 -0.15878667606E+02  0.23673972757E+02 -0.55823618794E+02  0.62680662778E+02  0.00000000000E+00 0.  1.
         11    1    4    4    0    0  0.99881555650E+02  0.26543737586E+02 -0.19881003257E+03  0.22406767775E+03  0.00000000000E+00 0. -1.
        -13    1    3    3    0    0 -0.64026685508E+02 -0.72740850977E+02 -0.64060775776E+02  0.11616553211E+03  0.00000000000E+00 0.  1.
         13    1    3    3    0    0 -0.30534023709E+02  0.26318248282E+02 -0.50516076831E+02  0.64628560366E+02  0.00000000000E+00 0. -1.
         21    1    1    2  502  501  0.50121264795E+00 -0.21700537078E+02  0.61007944159E+02  0.64754411232E+02  0.00000000000E+00 0.  1.
         21    1    1    2  503  502  0.10056608527E+02  0.17905429430E+02 -0.91231581490E+02  0.93514390547E+02  0.00000000000E+00 0.  1.
<scales pt_clust_5="13000.00000" pt_clust_6="13000.00000" pt_clust_7="13000.00000" pt_clust_8="13000.00000" pt_clust_9="21.62762" pt_clust_10="20.53630"></scales>
<clustering>
<clus scale="   20.536">  2 10  1 -1</clus>
<clus scale="   21.628">  1  9  2 -1</clus>
<clus scale="   88.363">  5  6 -1 -1</clus>
<clus scale="   91.988">  7  8 -1 -1</clus>
<clus scale="  137.492">  2  5  1 -1</clus>
<clus scale="   20.536">  2  5  1 -1</clus>
</clustering>
</event>
<event>
10    2  0.1133532E-006  0.1086188E+03  0.7546771E-02  0.1270319E+00
          2   -1    0    0  503    0  0.00000000000E+00  0.00000000000E+00  0.67002324541E+03  0.67002324541E+03  0.00000000000E+00 0. -1.
         -2   -1    0    0    0  501 -0.00000000000E+00 -0.00000000000E+00 -0.33881297880E+02  0.33881297880E+02  0.00000000000E+00 0.  1.
         23    2    1    2    0    0  0.22423336460E+02  0.15931272905E+02  0.12134073042E+03  0.15581915524E+03  0.93805249355E+02 0.  0.
         23    2    1    2    0    0 -0.51064136750E+02 -0.63683550567E+02  0.40341478464E+03  0.41873117299E+03  0.77001078512E+02 0.  0.
        -11    1    4    4    0    0  0.17516138222E+02 -0.27692064256E+02  0.15889463428E+03  0.16223800517E+03  0.00000000000E+00 0. -1.
         11    1    4    4    0    0 -0.68580274972E+02 -0.35991486311E+02  0.24452015036E+03  0.25649316781E+03  0.00000000000E+00 0.  1.
        -11    1    3    3    0    0 -0.26050165561E+02  0.28891637612E+02  0.22418443278E+02  0.44899047302E+02  0.00000000000E+00 0.  1.
         11    1    3    3    0    0  0.48473502021E+02 -0.12960364707E+02  0.98922287141E+02  0.11092010794E+03  0.00000000000E+00 0. -1.
         21    1    1    2  502  501  0.14638491609E+02  0.26266563441E+02  0.24577989539E+02  0.38836778462E+02  0.00000000000E+00 0. -1.
         21    1    1    2  503  502  0.14002308681E+02  0.21485714222E+02  0.86808442929E+02  0.90517436596E+02  0.00000000000E+00 0. -1.
<scales pt_clust_5="13000.00000" pt_clust_6="13000.00000" pt_clust_7="13000.00000" pt_clust_8="13000.00000" pt_clust_9="31.46574" pt_clust_10="25.64567"></scales>
<clustering>
<clus scale="   25.646">  1 10  2 -1</clus>
<clus scale="   31.466">  2  9  1 -1</clus>
<clus scale="   77.001">  5  6 -1 -1</clus>
<clus scale="   93.805">  7  8 -1 -1</clus>
<clus scale="   94.487">  1  5  2 -1</clus>
<clus scale="   25.646">  1  5  2 -1</clus>
</clustering>
</event>
<event>
10    2  0.1133532E-006  0.1074863E+03  0.7546771E-02  0.1266007E+00
         -1   -1    0    0    0  501 -0.00000000000E+00  0.00000000000E+00  0.91934450631E+02  0.91934450631E+02  0.00000000000E+00 0.  1.
          1   -1    0    0  503    0  0.00000000000E+00 -0.00000000000E+00 -0.81433433003E+03  0.81433433003E+03  0.00000000000E+00 0. -1.
         23    2    1    2    0    0  0.45211757343E+02  0.45921570537E+02 -0.14380757108E+03  0.18264770166E+03  0.92339979304E+02 0.  0.
         23    2    1    2    0    0  0.77907176601E+02 -0.58860378279E+02 -0.18920661787E+03  0.23002324989E+03  0.87048715945E+02 0.  0.
        -13    1    3    3    0    0 -0.70478838502E+01  0.19215764052E+02 -0.11584401828E+03  0.11763823710E+03  0.00000000000E+00 0.  1.
         13    1    3    3    0    0  0.52259641193E+02  0.26705806485E+02 -0.27963552800E+02  0.65009464564E+02  0.00000000000E+00 0. -1.
        -13    1    4    4    0    0  0.24503828661E+02  0.22206115927E+01 -0.49488179300E+00  0.24609218657E+02  0.00000000000E+00 0.  1.
         13    1    4    4    0    0  0.53403347940E+02 -0.61080989871E+02 -0.18871173607E+03  0.20541403123E+03  0.00000000000E+00 0. -1.
         21    1    1    2  502  501 -0.17307660478E+02  0.11904804527E+02  0.43318365860E+02  0.48143123110E+02  0.00000000000E+00 0.  1.
         21    1    1    2  503  502 -0.10581127347E+03  0.10340032152E+01 -0.43270405631E+03  0.44545470601E+03  0.00000000000E+00 0. -1.
<scales pt_clust_5="13000.00000" pt_clust_6="13000.00000" pt_clust_7="13000.00000" pt_clust_8="13000.00000" pt_clust_9="21.00665" pt_clust_10="108.23254"></scales>
<clustering>
<clus scale="   21.007">  1  9  2 -1</clus>
<clus scale="   87.049">  7  8 -1 -1</clus>
<clus scale="   92.340">  5  6 -1 -1</clus>
<clus scale="  108.233">  2 10  1 -1</clus>
<clus scale="  108.233">  2  7  1 -1</clus>
<clus scale="  107.486">  2  5  1 -1</clus>
</clustering>
</event>
<event>
10    2  0.1133532E-006  0.1059892E+03  0.7546771E-02  0.1269374E+00
          3   -1    0    0  503    0  0.00000000000E+00  0.00000000000E+00  0.34186886343E+03  0.34186886343E+03  0.00000000000E+00 0. -1.
         -3   -1    0    0    0  501 -0.00000000000E+00 -0.00000000000E+00 -0.15537558413E+03  0.15537558413E+03  0.00000000000E+00 0.  1.
         23    2    1    2    0    0  0.65424220216E+02 -0.29236822251E+02 -0.95836043192E+02  0.15155901556E+03  0.93007890301E+02 0.  0.
         23    2    1    2    0    0 -0.54184830904E+02 -0.25811521597E+02  0.20752723718E+03  0.23412282207E+03  0.90242512684E+02 0.  0.
        -11    1    3    3    0    0  0.88138580383E+02 -0.13275681407E+02 -0.66793892653E+02  0.11138257119E+03  0.00000000000E+00 0.  1.
         11    1    3    3    0    0 -0.22714360167E+02 -0.15961140844E+02 -0.29042150539E+02  0.40176444377E+02  0.00000000000E+00 0. -1.
        -13    1    4    4    0    0 -0.66724146200E+02  0.12452914345E+02  0.12267681729E+03  0.14020266853E+03  0.00000000000E+00 0. -1.
         13    1    4    4    0    0  0.12539315296E+02 -0.38264435942E+02  0.84850419891E+02  0.93920153544E+02  0.00000000000E+00 0.  1.
         21    1    1    2  502  501 -0.18083987629E+02  0.20436379883E+02 -0.16740665616E+01  0.27340057245E+02  0.00000000000E+00 0.  1.
         21    1    1    2  503  502  0.68445983177E+01  0.34611963965E+02  0.76476151869E+02  0.84222552682E+02  0.00000000000E+00 0. -1.
<scales pt_clust_5="13000.00000" pt_clust_6="13000.00000" pt_clust_7="13000.00000" pt_clust_8="13000.00000" pt_clust_9="27.28876" pt_clust_10="35.74199"></scales>
<clustering>
<clus scale="   27.289">  2  9  1 -1</clus>
<clus scale="   35.742">  1 10  2 -1</clus>
<clus scale="   90.243">  7  8 -1 -1</clus>
<clus scale="   93.008">  5  6 -1 -1</clus>
<clus scale="  103.571">  1  7  2 -1</clus>
<clus scale="   35.742">  1  5  2 -1</clus>
</clustering>
</event>
<event>
10    2  0.1133532E-006  0.9744634E+02  0.7546771E-02  0.1288025E+00
          3   -1    0    0  503    0  0.00000000000E+00  0.00000000000E+00  0.21769929660E+03  0.21769929660E+03  0.00000000000E+00 0. -1.
         -3   -1    0    0    0  501 -0.00000000000E+00 -0.00000000000E+00 -0.86423174824E+02  0.86423174824E+02  0.00000000000E+00 0.  1.
         23    2    1    2    0    0  0.13194967983E+02 -0.55895760139E+02  0.27646028254E+02  0.11206287564E+03  0.92170179755E+02 0.  0.
         23    2    1    2    0    0 -0.14212771801E+02  0.10153710624E+02  0.79206740525E+02  0.11957426663E+03  0.87858959548E+02 0.  0.
        -13    1    4    4    0    0  0.37167713097E+02  0.36013830311E-01  0.34723411256E+02  0.50864088344E+02  0.00000000000E+00 0.  1.
         13    1    4    4    0    0 -0.51380484898E+02  0.10117696794E+02  0.44483329269E+02  0.68710178282E+02  0.00000000000E+00 0. -1.
        -13    1    3    3    0    0 -0.21475752335E+02 -0.83625283437E+00  0.40397681415E+02  0.45758932689E+02  0.00000000000E+00 0. -1.
         13    1    3    3    0    0  0.34670720318E+02 -0.55059507304E+02 -0.12751653161E+02  0.66303942947E+02  0.00000000000E+00 0.  1.
         21    1    1    2  502  501 -0.20525645203E+02  0.28679760657E+02 -0.66493696847E+00  0.35274252983E+02  0.00000000000E+00 0.  1.
         21    1    1    2  503  502  0.21543449022E+02  0.17062288858E+02  0.25088289961E+02  0.37211076174E+02  0.00000000000E+00 0.  1.
<scales pt_clust_5="13000.00000" pt_clust_6="13000.00000" pt_clust_7="13000.00000" pt_clust_8="13000.00000" pt_clust_9="35.48347" pt_clust_10="27.48166"></scales>
<clustering>
<clus scale="   27.482">  1 10  2 -1</clus>
<clus scale="   35.483">  2  9  1 -1</clus>
<clus scale="   87.859">  5  6 -1 -1</clus>
<clus scale="   92.170">  7  8 -1 -1</clus>
<clus scale="   93.379">  1  5  2 -1</clus>
<clus scale="   27.482">  1  5  2 -1</clus>
</clustering>
</event>
<event>
10    2  0.1133532E-006  0.1438621E+03  0.7546771E-02  0.1208236E+00
         -2   -1    0    0    0  501 -0.00000000000E+00  0.00000000000E+00  0.81409881378E+03  0.81409881378E+03  0.00000000000E+00 0. -1.
          2   -1    0    0  503    0  0.00000000000E+00 -0.00000000000E+00 -0.50591633713E+02  0.50591633713E+02  0.00000000000E+00 0.  1.
         23    2    1    2    0    0  0.12309870874E+03 -0.31012934812E+02  0.36094667334E+03  0.39314115805E+03  0.90345862869E+02 0.  0.
         23    2    1    2    0    0 -0.82654318706E+02  0.58343950329E+02  0.24908019416E+03  0.28360029449E+03  0.90290813327E+02 0.  0.
        -13    1    3    3    0    0  0.16874043867E+02  0.25393069495E+02  0.39273128514E+02  0.49718406633E+02  0.00000000000E+00 0.  1.
         13    1    3    3    0    0  0.10622466488E+03 -0.56406004308E+02  0.32167354482E+03  0.34342275141E+03  0.00000000000E+00 0. -1.
        -13    1    4    4    0    0  0.17813923513E+02  0.91819903636E+01  0.66771718057E+02  0.69714468729E+02  0.00000000000E+00 0. -1.
         13    1    4    4    0    0 -0.10046824222E+03  0.49161959966E+02  0.18230847610E+03  0.21388582576E+03  0.00000000000E+00 0.  1.
         21    1    1    2  502  501 -0.18927797977E+02 -0.17926359010E+02  0.16115079078E+03  0.16324580623E+03  0.00000000000E+00 0. -1.
         21    1    1    2  503  502 -0.21516592060E+02 -0.94046565066E+01 -0.76704781975E+01  0.24703188735E+02  0.00000000000E+00 0.  1.
<scales pt_clust_5="13000.00000" pt_clust_6="13000.00000" pt_clust_7="13000.00000" pt_clust_8="13000.00000" pt_clust_9="26.74308" pt_clust_10="23.48215"></scales>
<clustering>
<clus scale="   23.482">  2 10  1 -1</clus>
<clus scale="   26.743">  1  9  2 -1</clus>
<clus scale="   90.291">  7  8 -1 -1</clus>
<clus scale="   90.346">  5  6 -1 -1</clus>
<clus scale="  143.828">  2  7  1 -1</clus>
<clus scale="   23.482">  2  5  1 -1</clus>
</clustering>
</event>
<event>
10    2  0.1133532E-006  0.1374440E+03  0.7546771E-02  0.1218273E+00
         -2   -1    0    0    0  501 -0.00000000000E+00  0.00000000000E+00  0.26395927727E+03  0.26395927727E+03  0.00000000000E+00 0.  1.
          2   -1    0    0  503    0  0.00000000000E+00 -0.00000000000E+00 -0.33597142515E+03  0.33597142515E+03  0.00000000000E+00 0. -1.
         23    2    1    2    0    0  0.10377404166E+03  0.67489414103E+01  0.19182927794E+03  0.23418458446E+03  0.85025571385E+02 0.  0.
         23    2    1    2    0    0 -0.89763392109E+02 -0.30244627251E+02 -0.14000999594E+03  0.19218390623E+03  0.91431126050E+02 0.  0.
        -11    1    4    4    0    0 -0.52584929662E+02 -0.54801833170E+02 -0.12286078362E+03  0.14444094952E+03  0.00000000000E+00 0. -1.
         11    1    4    4    0    0 -0.37178462447E+02  0.24557205920E+02 -0.17149212324E+02  0.47742956715E+02  0.00000000000E+00 0.  1.
        -11    1    3    3    0    0  0.43191401251E+02  0.89194922948E+01  0.15949225454E+03  0.16547759287E+03  0.00000000000E+00 0.  1.
         11    1    3    3    0    0  0.60582640411E+02 -0.21705508845E+01  0.32337023403E+02  0.68706991587E+02  0.00000000000E+00 0. -1.
         21    1    1    2  502  501 -0.35118779857E+02  0.22650409162E+02  0.58272097605E+01  0.42193910786E+02  0.00000000000E+00 0. -1.
         21    1    1    2  503  502  0.21108130305E+02  0.84527667802E+00 -0.12965863964E+03  0.13136830094E+03  0.00000000000E+00 0.  1.
<scales pt_clust_5="13000.00000" pt_clust_6="13000.00000" pt_clust_7="13000.00000" pt_clust_8="13000.00000" pt_clust_9="40.27460" pt_clust_10="21.12505"></scales>
<clustering>
<clus scale="   21.125">  2 10  1 -1</clus>
<clus scale="   40.275">  2  9  1 -1</clus>
<clus scale="   85.026">  7  8 -1 -1</clus>
<clus scale="   91.431">  5  6 -1 -1</clus>
<clus scale="  133.269">  1  7  2 -1</clus>
<clus scale="   21.125">  2  5  1 -1</clus>
</clustering>
</event>
<event>
10    2  0.1133532E-006  0.1602110E+03  0.7546771E-02  0.1202987E+00
          2   -1    0    0  503    0  0.00000000000E+00  0.00000000000E+00  0.55991354039E+03  0.55991354039E+03  0.00000000000E+00 0.  1.
         -2   -1    0    0    0  501 -0.00000000000E+00 -0.00000000000E+00 -0.19590597337E+03  0.19590597337E+03  0.00000000000E+00 0. -1.
         23    2    1    2    0    0 -0.12890491013E+03 -0.10779944833E+03 -0.56069532525E+02  0.19906498456E+03  0.90806820687E+02 0.  0.
         23    2    1    2    0    0  0.57204262619E+02 -0.27744995793E+02  0.63368735817E+02  0.12883919555E+03  0.92422016743E+02 0.  0.
        -11    1    4    4    0    0  0.54691446537E+02 -0.47753997124E+02  0.75949077209E+02  0.10507074233E+03  0.00000000000E+00 0. -1.
         11    1    4    4    0    0  0.25128160818E+01  0.20009001331E+02 -0.12580341393E+02  0.23768453221E+02  0.00000000000E+00 0.  1.
        -13    1    3    3    0    0 -0.11582930585E+03 -0.12338980710E+03 -0.57313240167E+02  0.17867926597E+03  0.00000000000E+00 0. -1.
         13    1    3    3    0    0 -0.13075604279E+02  0.15590358764E+02  0.12437076420E+01  0.20385718588E+02  0.00000000000E+00 0.  1.
         21    1    1    2  502  501  0.47792128098E+02  0.11968371522E+02 -0.40496432135E+00  0.49269599361E+02  0.00000000000E+00 0. -1.
         21    1    1    2  503  502  0.23908519413E+02  0.12357607260E+03  0.35711332805E+03  0.37864573429E+03  0.00000000000E+00 0.  1.
<scales pt_clust_5="13000.00000" pt_clust_6="13000.00000" pt_clust_7="13000.00000" pt_clust_8="13000.00000" pt_clust_9="49.26794" pt_clust_10="131.99120"></scales>
<clustering>
<clus scale="   49.268">  2  9  1 -1</clus>
<clus scale="   90.807">  7  8 -1 -1</clus>
<clus scale="   92.422">  5  6 -1 -1</clus>
<clus scale="  116.585">  1  5  2 -1</clus>
<clus scale="  131.991">  1 10  2 -1</clus>
<clus scale="  116.585">  1  5  2 -1</clus>
</clustering>
</event>
<event>
10    2  0.1133532E-006  0.1321190E+03  0.7546771E-02  0.1225534E+00
          2   -1    0    0  502    0  0.00000000000E+00  0.00000000000E+00  0.19725972088E+03  0.19725972088E+03  0.00000000000E+00 0. -1.
         -2   -1    0    0    0  501 -0.00000000000E+00 -0.00000000000E+00 -0.36569861776E+03  0.36569861776E+03  0.00000000000E+00 0.  1.
         23    2    1    2    0    0  0.51355528608E+02 -0.48732533820E+02 -0.69932849467E+02  0.13686397177E+03  0.93962190068E+02 0.  0.
         23    2    1    2    0    0 -0.44848248676E-01  0.10666300380E+03  0.10238777027E+03  0.17276012761E+03  0.89363347067E+02 0.  0.
        -11    1    4    4    0    0  0.38567132639E+02  0.58533328484E+02  0.81770073545E+02  0.10770292100E+03  0.00000000000E+00 0. -1.
         11    1    4    4    0    0 -0.38611980887E+02  0.48129675314E+02  0.20617696729E+02  0.65057206613E+02  0.00000000000E+00 0.  1.
        -13    1    3    3    0    0  0.26878784611E+02 -0.58730672386E+02 -0.84748856114E+02  0.10655575796E+03  0.00000000000E+00 0.  1.
         13    1    3    3    0    0  0.24476743997E+02  0.99981385660E+01  0.14816006647E+02  0.30308213812E+02  0.00000000000E+00 0. -1.
         21    1    1    2  502  503 -0.65465497861E+01 -0.81168836606E+02 -0.18215581122E+03  0.19952938859E+03  0.00000000000E+00 0.  1.
         21    1    1    2  503  501 -0.44764130573E+02  0.23238366627E+02 -0.18738006477E+02  0.53804850676E+02  0.00000000000E+00 0. -1.
<scales pt_clust_5="13000.00000" pt_clust_6="13000.00000" pt_clust_7="13000.00000" pt_clust_8="13000.00000" pt_clust_9="75.09368" pt_clust_10="50.43658"></scales>
<clustering>
<clus scale="   50.437">  2 10  1 -1</clus>
<clus scale="   75.094">  2  9  1 -1</clus>
<clus scale="   89.363">  5  6 -1 -1</clus>
<clus scale="   93.962">  7  8 -1 -1</clus>
<clus scale="  128.889">  1  5  2 -1</clus>
<clus scale="  128.889">  1  5  2 -1</clus>
</clustering>
</event>
<event>
10    2  0.1133532E-006  0.1021355E+03  0.7546771E-02  0.1278294E+00
         -2   -1    0    0    0  501 -0.00000000000E+00  0.00000000000E+00  0.86176366361E+02  0.86176366361E+02  0.00000000000E+00 0.  1.
          2   -1    0    0  503    0  0.00000000000E+00 -0.00000000000E+00 -0.35143349763E+03  0.35143349763E+03  0.00000000000E+00 0. -1.
         23    2    1    2    0    0  0.25339906110E+02 -0.14215814844E+02 -0.35349696414E+02  0.98067766363E+02  0.86738028163E+02 0.  0.
         23    2    1    2    0    0 -0.89828464952E+02 -0.37968503518E+02 -0.15234892463E+03  0.20290018607E+03  0.91910447162E+02 0.  0.
        -11    1    3    3    0    0  0.55353257796E+02 -0.23330510727E+02 -0.21856905179E+02  0.63921985134E+02  0.00000000000E+00 0.  1.
         11    1    3    3    0    0 -0.30013351686E+02  0.91146958832E+01 -0.13492791235E+02  0.34145781229E+02  0.00000000000E+00 0. -1.
        -13    1    4    4    0    0 -0.38113365502E+02  0.27633784711E+02 -0.34136549910E+02  0.58151171330E+02  0.00000000000E+00 0.  1.
         13    1    4    4    0    0 -0.51715099450E+02 -0.65602288229E+02 -0.11821237472E+03  0.14474901474E+03  0.00000000000E+00 0. -1.
         21    1    1    2  502  501 -0.38732700470E+01  0.32917506031E+02 -0.23971396391E+01  0.33231170648E+02  0.00000000000E+00 0.  1.
         21    1    1    2  503  502  0.68361828889E+02  0.19266812331E+02 -0.75161370580E+02  0.10341074090E+03  0.00000000000E+00 0.  1.
<scales pt_clust_5="13000.00000" pt_clust_6="13000.00000" pt_clust_7="13000.00000" pt_clust_8="13000.00000" pt_clust_9="33.14460" pt_clust_10="72.35891"></scales>
<clustering>
<clus scale="   33.145">  1  9  2 -1</clus>
<clus scale="   72.359">  2 10  1 -1</clus>
<clus scale="   86.738">  5  6 -1 -1</clus>
<clus scale="   91.910">  7  8 -1 -1</clus>
<clus scale="   97.507">  1  5  2 -1</clus>
<clus scale="   72.359">  2  5  1 -1</clus>
</clustering>
</event>
<event>
10    2  0.1133532E-006  0.1101438E+03  0.7546771E-02  0.1265565E+00
         -1   -1    0    0    0  501 -0.00000000000E+00  0.00000000000E+00  0.63072269970E+03  0.63072269970E+03  0.00000000000E+00 0.  1.
          1   -1    0    0  503    0  0.00000000000E+00 -0.00000000000E+00 -0.68210579419E+02  0.68210579419E+02  0.00000000000E+00 0. -1.
         23    2    1    2    0    0  0.76475274325E+01 -0.12857622036E+02  0.32932125759E+03  0.34488096150E+03  0.10132415205E+03 0.  0.
         23    2    1    2    0    0 -0.35001517773E+02  0.33106049424E+02  0.45472322669E+02  0.11134975020E+03  0.89498145157E+02 0.  0.
        -11    1    4    4    0    0 -0.49684140952E+01  0.60582231820E+02  0.30192099234E+02  0.67870868619E+02  0.00000000000E+00 0. -1.
         11    1    4    4    0    0 -0.30033103678E+02 -0.27476182396E+02  0.15280223435E+02  0.43478881584E+02  0.00000000000E+00 0.  1.
        -11    1    3    3    0    0  0.24138710872E+02 -0.41738852898E+02  0.28716734746E+03  0.29118704410E+03  0.00000000000E+00 0.  1.
         11    1    3    3    0    0 -0.16491183440E+02  0.28881230862E+02  0.42153910125E+02  0.53693917403E+02  0.00000000000E+00 0. -1.
         21    1    1    2  502  501  0.12213075597E+02 -0.35524728415E+02  0.20905684601E+03  0.21240510919E+03  0.00000000000E+00 0.  1.
         21    1    1    2  503  502  0.15140914744E+02  0.15276301026E+02 -0.21338305988E+02  0.30297458223E+02  0.00000000000E+00 0. -1.
<scales pt_clust_5="13000.00000" pt_clust_6="13000.00000" pt_clust_7="13000.00000" pt_clust_8="13000.00000" pt_clust_9="37.19717" pt_clust_10="21.50843"></scales>
<clustering>
<clus scale="   21.508">  2 10  1 -1</clus>
<clus scale="   37.197">  1  9  2 -1</clus>
<clus scale="   89.498">  5  6 -1 -1</clus>
<clus scale="   99.373">  2  5  1 -1</clus>
<clus scale="  101.324">  7  8 -1 -1</clus>
<clus scale="   21.508">  2  5  1 -1</clus>
</clustering>
</event>
<event>
10    2  0.1133532E-006  0.9217384E+02  0.7546771E-02  0.1297892E+00
          2   -1    0    0  503    0  0.00000000000E+00  0.00000000000E+00  0.48927314139E+03  0.48927314139E+03  0.00000000000E+00 0. -1.
         -2   -1    0    0    0  501 -0.00000000000E+00 -0.00000000000E+00 -0.46352186147E+02  0.46352186147E+02  0.00000000000E+00 0.  1.
         23    2    1    2    0    0  0.18704020355E+02 -0.21873321981E+02  0.54157298668E+02  0.11015182091E+03  0.91499333651E+02 0.  0.
         23    2    1    2    0    0  0.23166997311E+02 -0.84029143875E+01  0.15806517266E+03  0.18448099558E+03  0.91876657457E+02 0.  0.
        -13    1    3    3    0    0 -0.50667339933E+01  0.22793640371E+02 -0.12484464183E+02  0.26477984830E+02  0.00000000000E+00 0.  1.
         13    1    3    3    0    0  0.23770754348E+02 -0.44666962353E+02  0.66641762851E+02  0.83673836078E+02  0.00000000000E+00 0. -1.
        -13    1    4    4    0    0  0.54320385610E+02  0.53376417766E+01  0.62221990101E+02  0.82769383015E+02  0.00000000000E+00 0.  1.
         13    1    4    4    0    0 -0.31153388299E+02 -0.13740556164E+02  0.95843182564E+02  0.10171161256E+03  0.00000000000E+00 0. -1.
         21    1    1    2  502  501 -0.19478609890E+02  0.12748137854E+02  0.28477017435E+02  0.36781405411E+02  0.00000000000E+00 0. -1.
         21    1    1    2  503  502 -0.22392407776E+02  0.17528098514E+02  0.20222146648E+03  0.20421110564E+03  0.00000000000E+00 0.  1.
<scales pt_clust_5="13000.00000" pt_clust_6="13000.00000" pt_clust_7="13000.00000" pt_clust_8="13000.00000" pt_clust_9="23.27942" pt_clust_10="28.98371"></scales>
<clustering>
<clus scale="   23.279">  2  9  1 -1</clus>
<clus scale="   28.984">  1 10  2 -1</clus>
<clus scale="   91.499">  5  6 -1 -1</clus>
<clus scale="   91.798">  2  5  1 -1</clus>
<clus scale="   91.877">  7  8 -1 -1</clus>
<clus scale="   28.984">  1  5  2 -1</clus>
</clustering>
</event>
<event>
10    2  0.1133532E-006  0.1298840E+03  0.7546771E-02  0.1227838E+00
          1   -1    0    0  503    0  0.00000000000E+00  0.00000000000E+00  0.11754251851E+03  0.11754251851E+03  0.00000000000E+00 0. -1.
         -1   -1    0    0    0  501 -0.00000000000E+00 -0.00000000000E+00 -0.38605946876E+03  0.38605946876E+03  0.00000000000E+00 0.  1.
         23    2    1    2    0    0  0.80778697611E+02 -0.52596955100E+02 -0.18162528073E+03  0.22533757156E+03  0.92182649584E+02 0.  0.
         23    2    1    2    0    0 -0.97923832570E+02  0.48167292837E+02 -0.20568389061E+01  0.14337835553E+03  0.92972884028E+02 0.  0.
        -13    1    4    4    0    0 -0.88835474353E+02  0.63782099538E+01 -0.27996139888E+02  0.93360628288E+02  0.00000000000E+00 0. -1.
         13    1    4    4    0    0 -0.90883582172E+01  0.41789082883E+02  0.25939300982E+02  0.50017727245E+02  0.00000000000E+00 0.  1.
        -13    1    3    3    0    0  0.80386211501E+02 -0.19318707861E+02 -0.17176626735E+03  0.19062740116E+03  0.00000000000E+00 0.  1.
         13    1    3    3    0    0  0.39248611005E+00 -0.33278247239E+02 -0.98590133778E+01  0.34710170404E+02  0.00000000000E+00 0. -1.
         21    1    1    2  502  501 -0.22792676886E+02 -0.34353382217E+01 -0.90859541964E+02  0.93737740714E+02  0.00000000000E+00 0.  1.
         21    1    1    2  503  502  0.39937811846E+02  0.78650004853E+01  0.60247113546E+01  0.41148319463E+02  0.00000000000E+00 0.  1.
<scales pt_clust_5="13000.00000" pt_clust_6="13000.00000" pt_clust_7="13000.00000" pt_clust_8="13000.00000" pt_clust_9="23.05011" pt_clust_10="39.32831"></scales>
<clustering>
<clus scale="   23.050">  2  9  1 -1</clus>
<clus scale="   39.328">  1 10  2 -1</clus>
<clus scale="   92.183">  7  8 -1 -1</clus>
<clus scale="   92.973">  5  6 -1 -1</clus>
<clus scale="  129.320">  2  7  1 -1</clus>
<clus scale="   39.328">  1  5  2 -1</clus>
</clustering>
</event>
<event>
10    2  0.1133532E-006  0.4206018E+03  0.7546771E-02  0.1036882E+00
         -1   -1    0    0    0  501 -0.00000000000E+00  0.00000000000E+00  0.16713716264E+04  0.16713716264E+04  0.00000000000E+00 0.  1.
          1   -1    0    0  502    0  0.00000000000E+00 -0.00000000000E+00 -0.30939949313E+03  0.30939949313E+03  0.00000000000E+00 0. -1.
         23    2    1    2    0    0 -0.44194127506E+03  0.57917512237E+02  0.93200561856E+03  0.10371181005E+04  0.91175393984E+02 0.  0.
         23    2    1    2    0    0  0.35056182758E+03  0.18950128226E+03  0.44776536460E+03  0.60621375950E+03  0.90537116889E+02 0.  0.
        -11    1    4    4    0    0  0.32336884607E+03  0.18009244175E+03  0.44261382025E+03  0.57698153529E+03  0.00000000000E+00 0.  1.
         11    1    4    4    0    0  0.27192981509E+02  0.94088405042E+01  0.51515443480E+01  0.29232224208E+02  0.00000000000E+00 0. -1.
        -13    1    3    3    0    0 -0.42055509916E+03  0.32617690464E+02  0.86298762154E+03  0.96056136717E+03  0.00000000000E+00 0.  1.
         13    1    3    3    0    0 -0.21386175899E+02  0.25299821773E+02  0.69017997014E+02  0.76556733297E+02  0.00000000000E+00 0. -1.
         21    1    1    2  502  503  0.10962920798E+03 -0.20738343623E+03 -0.91346675867E+02  0.25173531348E+03  0.00000000000E+00 0. -1.
         21    1    1    2  503  501 -0.18249760502E+02 -0.40035358268E+02  0.73547826022E+02  0.85703946132E+02  0.00000000000E+00 0. -1.
<scales pt_clust_5="13000.00000" pt_clust_6="13000.00000" pt_clust_7="13000.00000" pt_clust_8="13000.00000" pt_clust_9="235.93722" pt_clust_10="43.99868"></scales>
<clustering>
<clus scale="   43.999">  1 10  2 -1</clus>
<clus scale="   90.537">  5  6 -1 -1</clus>
<clus scale="   91.175">  7  8 -1 -1</clus>
<clus scale="  235.937">  2  9  1 -1</clus>
<clus scale="  420.464">  2  5  1 -1</clus>
<clus scale="  235.937">  2  5  1 -1</clus>
</clustering>
</event>
<event>
10    2  0.1133532E-006  0.3169846E+03  0.7546771E-02  0.1077255E+00
         -2   -1    0    0    0  501 -0.00000000000E+00  0.00000000000E+00  0.13779492677E+03  0.13779492677E+03  0.00000000000E+00 0.  1.
          2   -1    0    0  503    0  0.00000000000E+00 -0.00000000000E+00 -0.16499215797E+04  0.16499215797E+04  0.00000000000E+00 0. -1.
         23    2    1    2    0    0 -0.12726665797E+03 -0.29933761097E+03 -0.22293206090E+03  0.40445766370E+03  0.89930475267E+02 0.  0.
         23    2    1    2    0    0  0.82738645453E+02  0.32446786917E+03 -0.83735111022E+03  0.90566905613E+03  0.83393500174E+02 0.  0.
        -11    1    3    3    0    0 -0.25200159158E+02 -0.13996106166E+03 -0.58601395751E+02  0.15381245198E+03  0.00000000000E+00 0. -1.
         11    1    3    3    0    0 -0.10206649881E+03 -0.15937654931E+03 -0.16433066515E+03  0.25064521172E+03  0.00000000000E+00 0.  1.
        -13    1    4    4    0    0  0.49319645931E+02  0.11752821733E+03 -0.41546040075E+03  0.43457180527E+03  0.00000000000E+00 0. -1.
         13    1    4    4    0    0  0.33418999523E+02  0.20693965184E+03 -0.42189070947E+03  0.47109725086E+03  0.00000000000E+00 0.  1.
         21    1    1    2  502  501  0.39307834362E+02  0.37882714980E+02 -0.61817409503E+02  0.82471801569E+02  0.00000000000E+00 0. -1.
         21    1    1    2  503  502  0.52201781518E+01 -0.63012973183E+02 -0.39002607226E+03  0.39511798502E+03  0.00000000000E+00 0. -1.
<scales pt_clust_5="13000.00000" pt_clust_6="13000.00000" pt_clust_7="13000.00000" pt_clust_8="13000.00000" pt_clust_9="54.59126" pt_clust_10="62.54530"></scales>
<clustering>
<clus scale="   54.591">  1  9  2 -1</clus>
<clus scale="   62.545">  2 10  1 -1</clus>
<clus scale="   83.394">  7  8 -1 -1</clus>
<clus scale="   89.930">  5  6 -1 -1</clus>
<clus scale="  315.192">  2  7  1 -1</clus>
<clus scale="   62.545">  2  5  1 -1</clus>
</clustering>
</event>
<event>
10    2  0.1133532E-006  0.1336208E+03  0.7546771E-02  0.1222187E+00
          1   -1    0    0  502    0  0.00000000000E+00  0.00000000000E+00  0.44927540165E+03  0.44927540165E+03  0.00000000000E+00 0. -1.
         -1   -1    0    0    0  501 -0.00000000000E+00 -0.00000000000E+00 -0.17925859833E+03  0.17925859833E+03  0.00000000000E+00 0.  1.
         23    2    1    2    0    0 -0.66976579313E+02 -0.63036284511E+02 -0.61755382786E+02  0.14348389054E+03  0.91183683852E+02 0.  0.
         23    2    1    2    0    0  0.75591191031E+02  0.76796294894E+02  0.38494250291E+01  0.14123195721E+03  0.91213752212E+02 0.  0.
        -11    1    3    3    0    0 -0.23665920501E+02 -0.69254068979E+02 -0.67241965028E+02  0.99386536936E+02  0.00000000000E+00 0.  1.
         11    1    3    3    0    0 -0.43310658812E+02  0.62177844685E+01  0.54865822414E+01  0.44097353606E+02  0.00000000000E+00 0. -1.
        -13    1    4    4    0    0  0.61399370358E+01  0.49932929509E+02  0.34185048177E+02  0.60824450635E+02  0.00000000000E+00 0. -1.
         13    1    4    4    0    0  0.69451253995E+02  0.26863365385E+02 -0.30335623148E+02  0.80407506572E+02  0.00000000000E+00 0.  1.
         21    1    1    2  502  503  0.30748551048E+02  0.13784644957E+02  0.25010273599E+03  0.25236257325E+03  0.00000000000E+00 0. -1.
         21    1    1    2  503  501 -0.39363162766E+02 -0.27544655340E+02  0.77820025088E+02  0.91455578974E+02  0.00000000000E+00 0.  1.
<scales pt_clust_5="13000.00000" pt_clust_6="13000.00000" pt_clust_7="13000.00000" pt_clust_8="13000.00000" pt_clust_9="33.69703" pt_clust_10="34.00695"></scales>
<clustering>
<clus scale="   33.697">  1  9  2 -1</clus>
<clus scale="   34.007">  1 10  2 -1</clus>
<clus scale="   91.184">  5  6 -1 -1</clus>
<clus scale="   91.214">  7  8 -1 -1</clus>
<clus scale="  133.600">  2  5  1 -1</clus>
<clus scale="   33.697">  1  5  2 -1</clus>
</clustering>
</event>
<event>
10    2  0.1133532E-006  0.1158009E+03  0.7546771E-02  0.1250423E+00
         -1   -1    0    0    0  501 -0.00000000000E+00  0.00000000000E+00  0.16354466517E+03  0.16354466517E+03  0.00000000000E+00 0.  1.
          1   -1    0    0  503    0  0.00000000000E+00 -0.00000000000E+00 -0.36291003157E+03  0.36291003157E+03  0.00000000000E+00 0. -1.
         23    2    1    2    0    0 -0.89463358037E+02 -0.15234033619E+02  0.63601620476E+02  0.14361450074E+03  0.91346540629E+02 0.  0.
         23    2    1    2    0    0  0.56093985247E+02 -0.13318368130E+02 -0.72779202852E+02  0.13072607191E+03  0.92024884676E+02 0.  0.
        -11    1    3    3    0    0 -0.47401268045E+02  0.48876861391E+01  0.80892167436E+02  0.93884569768E+02  0.00000000000E+00 0.  1.
         11    1    3    3    0    0 -0.42062089992E+02 -0.20121719758E+02 -0.17290546960E+02  0.49729930974E+02  0.00000000000E+00 0. -1.
        -13    1    4    4    0    0 -0.16006190157E+02 -0.29424779792E+02 -0.13942349986E+02  0.36282294749E+02  0.00000000000E+00 0.  1.
         13    1    4    4    0    0  0.72100175404E+02  0.16106411662E+02 -0.58836852866E+02  0.94443777165E+02  0.00000000000E+00 0. -1.
         21    1    1    2  502  501  0.21156587236E+02  0.81448090943E+00  0.26159738502E+02  0.33654070795E+02  0.00000000000E+00 0.  1.
         21    1    1    2  503  502  0.12212785555E+02  0.27737920839E+02 -0.21634752252E+03  0.21846005329E+03  0.00000000000E+00 0. -1.
<scales pt_clust_5="13000.00000" pt_clust_6="13000.00000" pt_clust_7="13000.00000" pt_clust_8="13000.00000" pt_clust_9="21.17226" pt_clust_10="30.38115"></scales>
<clustering>
<clus scale="   21.172">  1  9  2 -1</clus>
<clus scale="   30.381">  2 10  1 -1</clus>
<clus scale="   91.347">  5  6 -1 -1</clus>
<clus scale="   92.025">  7  8 -1 -1</clus>
<clus scale="  115.263">  1  5  2 -1</clus>
<clus scale="   30.381">  2  5  1 -1</clus>
</clustering>
</event>
<event>
10    2  0.1133532E-006  0.9712594E+02  0.7546771E-02  0.1287159E+00
         -1   -1    0    0    0  501 -0.00000000000E+00  0.00000000000E+00  0.34953274053E+02  0.34953274053E+02  0.00000000000E+00 0.  1.
          1   -1    0    0  503    0  0.00000000000E+00 -0.00000000000E+00 -0.55937631523E+03  0.55937631523E+03  0.00000000000E+00 0. -1.
         23    2    1    2    0    0  0.22543569023E+02  0.32989586903E+02 -0.12536469175E+03  0.16026377788E+03  0.91496706036E+02 0.  0.
         23    2    1    2    0    0 -0.33628319862E+02  0.81545689970E+01 -0.17973489107E+03  0.20402921976E+03  0.90143943539E+02 0.  0.
        -11    1    4    4    0    0 -0.15339160379E+02  0.48821056120E+02 -0.82925905243E+02  0.97444810648E+02  0.00000000000E+00 0. -1.
         11    1    4    4    0    0 -0.18289159483E+02 -0.40666487123E+02 -0.96808985823E+02  0.10658440911E+03  0.00000000000E+00 0.  1.
        -11    1    3    3    0    0 -0.21279439474E+02  0.44871396524E+02 -0.40766375259E+02  0.64250713008E+02  0.00000000000E+00 0.  1.
         11    1    3    3    0    0  0.43823008497E+02 -0.11881809620E+02 -0.84598316491E+02  0.96013064875E+02  0.00000000000E+00 0. -1.
         21    1    1    2  502  501  0.23032853514E+02 -0.19778453173E+02 -0.46797979843E+02  0.55783066142E+02  0.00000000000E+00 0.  1.
         21    1    1    2  503  502 -0.11948102675E+02 -0.21365702727E+02 -0.17252547852E+03  0.17425352550E+03  0.00000000000E+00 0.  1.
<scales pt_clust_5="13000.00000" pt_clust_6="13000.00000" pt_clust_7="13000.00000" pt_clust_8="13000.00000" pt_clust_9="31.16808" pt_clust_10="24.47959"></scales>
<clustering>
<clus scale="   24.480">  2 10  1 -1</clus>
<clus scale="   31.168">  1  9  2 -1</clus>
<clus scale="   90.144">  5  6 -1 -1</clus>
<clus scale="   91.497">  7  8 -1 -1</clus>
<clus scale="   95.853">  2  5  1 -1</clus>
<clus scale="   24.480">  2  5  1 -1</clus>
</clustering>
</event>
<event>
10    2  0.1133532E-006  0.1028125E+03  0.7546771E-02  0.1275308E+00
          3   -1    0    0  503    0  0.00000000000E+00  0.00000000000E+00  0.27139331633E+03  0.27139331633E+03  0.00000000000E+00 0. -1.
         -3   -1    0    0    0  501 -0.00000000000E+00 -0.00000000000E+00 -0.10600965306E+03  0.10600965306E+03  0.00000000000E+00 0.  1.
         23    2    1    2    0    0  0.32113041757E+01 -0.86502863475E+00  0.40396372844E+02  0.99745656017E+02  0.91138730550E+02 0.  0.
         23    2    1    2    0    0 -0.97185011723E+02 -0.20432695538E+02  0.97773899099E+02  0.16553523929E+03  0.89329494299E+02 0.  0.
        -13    1    4    4    0    0 -0.10205786900E+03  0.39297878965E+00  0.50975508394E+02  0.11408096035E+03  0.00000000000E+00 0.  1.
         13    1    4    4    0    0  0.48728572782E+01 -0.20825674327E+02  0.46798390705E+02  0.51454278946E+02  0.00000000000E+00 0. -1.
        -13    1    3    3    0    0 -0.34440859756E+02 -0.87685262784E+01 -0.94542206510E+01  0.36775564740E+02  0.00000000000E+00 0.  1.
         13    1    3    3    0    0  0.37652163931E+02  0.79034976437E+01  0.49850593495E+02  0.62970091277E+02  0.00000000000E+00 0. -1.
         21    1    1    2  502  501  0.57570251812E+02  0.11842049634E+02 -0.95282629508E+01  0.59542890660E+02  0.00000000000E+00 0. -1.
         21    1    1    2  503  502  0.36403455735E+02  0.94556745381E+01  0.36741654281E+02  0.52579183426E+02  0.00000000000E+00 0. -1.
<scales pt_clust_5="13000.00000" pt_clust_6="13000.00000" pt_clust_7="13000.00000" pt_clust_8="13000.00000" pt_clust_9="62.91881" pt_clust_10="37.61145"></scales>
<clustering>
<clus scale="   37.611">  1 10  2 -1</clus>
<clus scale="   62.919">  2  9  1 -1</clus>
<clus scale="   89.329">  5  6 -1 -1</clus>
<clus scale="   91.139">  7  8 -1 -1</clus>
<clus scale="  101.212">  1  5  2 -1</clus>
<clus scale="   37.611">  1  5  2 -1</clus>
</clustering>
</event>
<event>
10    2  0.1133532E-006  0.1044536E+03  0.7546771E-02  0.1271331E+00
         -1   -1    0    0    0  501 -0.00000000000E+00  0.00000000000E+00  0.14673923957E+03  0.14673923957E+03  0.00000000000E+00 0.  1.
          1   -1    0    0  503    0  0.00000000000E+00 -0.00000000000E+00 -0.36523472415E+03  0.36523472415E+03  0.00000000000E+00 0. -1.
         23    2    1    2    0    0 -0.30580755710E+02  0.32014417959E+02  0.90394367238E+02  0.13659283662E+03  0.92338268395E+02 0.  0.
         23    2    1    2    0    0  0.49183642311E+02  0.99106550172E+01 -0.10771265746E+03  0.15030094109E+03  0.92038603654E+02 0.  0.
        -13    1    3    3    0    0 -0.41462370751E+02 -0.18376343284E+02  0.20568752310E+02  0.49798511547E+02  0.00000000000E+00 0.  1.
         13    1    3    3    0    0  0.10881615041E+02  0.50390761242E+02  0.69825614928E+02  0.86794325071E+02  0.00000000000E+00 0. -1.
        -13    1    4    4    0    0  0.16079901189E+02  0.35422696835E+02 -0.47639414323E+01  0.39192165177E+02  0.00000000000E+00 0. -1.
         13    1    4    4    0    0  0.33103741121E+02 -0.25512041818E+02 -0.10294871602E+03  0.11110877591E+03  0.00000000000E+00 0.  1.
         21    1    1    2  502  501 -0.19565603367E+02 -0.14028914110E+02 -0.22233235775E+01  0.24177808709E+02  0.00000000000E+00 0.  1.
         21    1    1    2  503  502  0.96271676595E+00 -0.27896158866E+02 -0.19895387079E+03  0.20090237730E+03  0.00000000000E+00 0.  1.
<scales pt_clust_5="13000.00000" pt_clust_6="13000.00000" pt_clust_7="13000.00000" pt_clust_8="13000.00000" pt_clust_9="24.07537" pt_clust_10="28.00891"></scales>
<clustering>
<clus scale="   24.075">  1  9  2 -1</clus>
<clus scale="   28.009">  2 10  1 -1</clus>
<clus scale="   92.039">  7  8 -1 -1</clus>
<clus scale="   92.338">  5  6 -1 -1</clus>
<clus scale="  104.189">  2  7  1 -1</clus>
<clus scale="   28.009">  2  5  1 -1</clus>
</clustering>
</event>
<event>
10    2  0.1133532E-006  0.1225682E+03  0.7546771E-02  0.1247369E+00
          2   -1    0    0  503    0  0.00000000000E+00  0.00000000000E+00  0.96038477735E+02  0.96038477735E+02  0.00000000000E+00 0. -1.
         -2   -1    0    0    0  501 -0.00000000000E+00 -0.00000000000E+00 -0.61611058453E+03  0.61611058453E+03  0.00000000000E+00 0.  1.
         23    2    1    2    0    0 -0.42638515712E+02  0.22513921518E+02 -0.22027492771E+03  0.24331493020E+03  0.91412208139E+02 0.  0.
         23    2    1    2    0    0 -0.17666814807E+02  0.60894693893E+02  0.17579944136E+02  0.11171515775E+03  0.90282567230E+02 0.  0.
        -11    1    3    3    0    0 -0.68329518187E+02  0.19242035589E+02 -0.11707607595E+03  0.13691598354E+03  0.00000000000E+00 0. -1.
         11    1    3    3    0    0  0.25691002475E+02  0.32718859298E+01 -0.10319885176E+03  0.10639894666E+03  0.00000000000E+00 0.  1.
        -11    1    4    4    0    0  0.31946207888E+02  0.85862781533E+00  0.40266030416E+00  0.31960281217E+02  0.00000000000E+00 0.  1.
         11    1    4    4    0    0 -0.49613022695E+02  0.60036066077E+02  0.17177283832E+02  0.79754876533E+02  0.00000000000E+00 0. -1.
         21    1    1    2  502  501  0.47770029784E+02 -0.10475035438E+03 -0.31090399535E+03  0.33153567955E+03  0.00000000000E+00 0.  1.
         21    1    1    2  503  502  0.12535300734E+02  0.21341738969E+02 -0.64731278734E+01  0.25583294768E+02  0.00000000000E+00 0. -1.
<scales pt_clust_5="13000.00000" pt_clust_6="13000.00000" pt_clust_7="13000.00000" pt_clust_8="13000.00000" pt_clust_9="82.89772" pt_clust_10="24.75083"></scales>
<clustering>
<clus scale="   24.751">  1 10  2 -1</clus>
<clus scale="   90.283">  7  8 -1 -1</clus>
<clus scale="   91.412">  5  6 -1 -1</clus>
<clus scale="  103.332">  2  5  1 -1</clus>
<clus scale="   82.898">  2  9  1 -1</clus>
<clus scale="   24.751">  1  5  2 -1</clus>
</clustering>
</event>
<event>
10    2  0.1133532E-006  0.3060818E+03  0.7546771E-02  0.1082316E+00
         -1   -1    0    0    0  501 -0.00000000000E+00  0.00000000000E+00  0.22610997135E+03  0.22610997135E+03  0.00000000000E+00 0.  1.
          1   -1    0    0  503    0  0.00000000000E+00 -0.00000000000E+00 -0.83151056508E+03  0.83151056508E+03  0.00000000000E+00 0. -1.
         23    2    1    2    0    0 -0.31272675335E+03 -0.12227081256E+03 -0.17975614183E+03  0.39255515868E+03  0.95074224764E+02 0.  0.
         23    2    1    2    0    0  0.18973905137E+03  0.17128258210E+03 -0.32889615621E+03  0.42680758999E+03  0.93023689245E+02 0.  0.
        -11    1    3    3    0    0 -0.23246526705E+03 -0.12911865431E+03 -0.11736251142E+03  0.29066421583E+03  0.00000000000E+00 0.  1.
         11    1    3    3    0    0 -0.80261486301E+02  0.68478417480E+01 -0.62393630409E+02  0.10189094285E+03  0.00000000000E+00 0. -1.
        -13    1    4    4    0    0  0.93373429418E+02  0.70592310753E+02 -0.80767851131E+02  0.14221574257E+03  0.00000000000E+00 0.  1.
         13    1    4    4    0    0  0.96365621954E+02  0.10069027135E+03 -0.24812830508E+03  0.28459184742E+03  0.00000000000E+00 0. -1.
         21    1    1    2  502  501  0.29890679356E+02  0.20018437019E+02  0.43415769859E+02  0.56383682085E+02  0.00000000000E+00 0.  1.
         21    1    1    2  503  502  0.93097022625E+02 -0.69030206562E+02 -0.14016406555E+03  0.18187410567E+03  0.00000000000E+00 0.  1.
<scales pt_clust_5="13000.00000" pt_clust_6="13000.00000" pt_clust_7="13000.00000" pt_clust_8="13000.00000" pt_clust_9="35.97486" pt_clust_10="117.39653"></scales>
<clustering>
<clus scale="   35.975">  1  9  2 -1</clus>
<clus scale="   93.024">  7  8 -1 -1</clus>
<clus scale="   95.074">  5  6 -1 -1</clus>
<clus scale="  117.397">  2 10  1 -1</clus>
<clus scale="  305.451">  2  7  1 -1</clus>
<clus scale="  117.397">  2  5  1 -1</clus>
</clustering>
</event>
<event>
10    2  0.1133532E-006  0.1954925E+03  0.7546771E-02  0.1158040E+00
          1   -1    0    0  503    0  0.00000000000E+00  0.00000000000E+00  0.43567103202E+03  0.43567103202E+03  0.00000000000E+00 0. -1.
         -1   -1    0    0    0  501 -0.00000000000E+00 -0.00000000000E+00 -0.24822883324E+03  0.24822883324E+03  0.00000000000E+00 0.  1.
         23    2    1    2    0    0 -0.15392900050E+03  0.64495756800E+02 -0.36604244107E+02  0.19368269984E+03  0.91210074495E+02 0.  0.
         23    2    1    2    0    0  0.17692643807E+03 -0.60826696756E+02  0.12779535512E+03  0.25853630861E+03  0.12452517236E+03 0.  0.
        -13    1    4    4    0    0  0.17418680192E+02 -0.24415544612E+02 -0.21614889574E+02  0.36969347974E+02  0.00000000000E+00 0.  1.
         13    1    4    4    0    0  0.15950775788E+03 -0.36411152145E+02  0.14941024470E+03  0.22156696063E+03  0.00000000000E+00 0. -1.
        -13    1    3    3    0    0 -0.55019220741E+02  0.66892402064E+02  0.40733817334E+01  0.86708134241E+02  0.00000000000E+00 0. -1.
         13    1    3    3    0    0 -0.98909779759E+02 -0.23966452633E+01 -0.40677625841E+02  0.10697456560E+03  0.00000000000E+00 0.  1.
         21    1    1    2  502  501  0.41475682955E+02 -0.63702039893E+02 -0.26577448581E+02  0.80526659786E+02  0.00000000000E+00 0. -1.
         21    1    1    2  503  502 -0.64473120526E+02  0.60032979849E+02  0.12282853634E+03  0.15115419703E+03  0.00000000000E+00 0. -1.
<scales pt_clust_5="13000.00000" pt_clust_6="13000.00000" pt_clust_7="13000.00000" pt_clust_8="13000.00000" pt_clust_9="76.01435" pt_clust_10="82.73945"></scales>
<clustering>
<clus scale="   76.014">  2  9  1 -1</clus>
<clus scale="   82.739">  1 10  2 -1</clus>
<clus scale="   91.210">  7  8 -1 -1</clus>
<clus scale="  124.525">  5  6 -1 -1</clus>
<clus scale="  176.154">  2  7  1 -1</clus>
<clus scale="   82.739">  1  5  2 -1</clus>
</clustering>
</event>
<event>
10    2  0.2418194E-006  0.1073639E+03  0.7546771E-02  0.1268748E+00
         -1   -1    0    0    0  501 -0.00000000000E+00  0.00000000000E+00  0.49591042520E+03  0.49591042520E+03  0.00000000000E+00 0.  1.
          1   -1    0    0  503    0  0.00000000000E+00 -0.00000000000E+00 -0.25671388495E+03  0.25671388495E+03  0.00000000000E+00 0. -1.
         23    2    1    2    0    0 -0.61018316590E+02 -0.37223136790E+02  0.43147971372E+03  0.44606491930E+03  0.87694766153E+02 0.  0.
         23    2    1    2    0    0  0.64741193703E+02  0.21942777889E+02 -0.16334139062E+03  0.20099325503E+03  0.95105052516E+02 0.  0.
        -13    1    3    3    0    0  0.83207898297E+01  0.19370031111E+02  0.50710304079E+02  0.54917834884E+02  0.00000000000E+00 0. -1.
         13    1    3    3    0    0 -0.69339106420E+02 -0.56593167901E+02  0.38076940964E+03  0.39114708442E+03  0.00000000000E+00 0.  1.
        -13    1    4    4    0    0  0.39881883939E+02  0.58856772184E+02 -0.84241363080E+02  0.11023289687E+03  0.00000000000E+00 0. -1.
         13    1    4    4    0    0  0.24859309763E+02 -0.36913994295E+02 -0.79100027537E+02  0.90760358159E+02  0.00000000000E+00 0.  1.
         21    1    1    2  502  501  0.17727051829E+02  0.17125089384E+02  0.32311637551E+02  0.40639377138E+02  0.00000000000E+00 0. -1.
         21    1    1    2  503  502 -0.21449928942E+02 -0.18447304830E+01 -0.61253420397E+02  0.64926758679E+02  0.00000000000E+00 0.  1.
<scales pt_clust_5="13000.00000" pt_clust_6="13000.00000" pt_clust_7="13000.00000" pt_clust_8="13000.00000" pt_clust_9="24.29029" pt_clust_10="21.52911"></scales>
<clustering>
<clus scale="   21.529">  2 10  1 -1</clus>
<clus scale="   24.290">  1  9  2 -1</clus>
<clus scale="   87.695">  5  6 -1 -1</clus>
<clus scale="   95.105">  7  8 -1 -1</clus>
<clus scale="  100.858">  1  5  2 -1</clus>
<clus scale="   21.529">  2  5  1 -1</clus>
</clustering>
</event>
<event>
10    2  0.1133532E-006  0.1196717E+03  0.7546771E-02  0.1245154E+00
         -1   -1    0    0    0  501 -0.00000000000E+00  0.00000000000E+00  0.38142381760E+03  0.38142381760E+03  0.00000000000E+00 0.  1.
          1   -1    0    0  503    0  0.00000000000E+00 -0.00000000000E+00 -0.31195179071E+03  0.31195179071E+03  0.00000000000E+00 0. -1.
         23    2    1    2    0    0  0.40294662236E+02 -0.28686693286E+02  0.20682087667E+03  0.23305279694E+03  0.95352739635E+02 0.  0.
         23    2    1    2    0    0  0.41337217570E+02  0.83703008446E+02 -0.13179896981E+03  0.18528278394E+03  0.90795277424E+02 0.  0.
        -11    1    4    4    0    0  0.13681007642E+02 -0.15166030096E+02 -0.31112594624E+01  0.20660551164E+02  0.00000000000E+00 0.  1.
         11    1    4    4    0    0  0.27656209927E+02  0.98869038542E+02 -0.12868771035E+03  0.16462223278E+03  0.00000000000E+00 0. -1.
        -11    1    3    3    0    0 -0.11462563238E+02 -0.35363031694E+02  0.15541888481E+03  0.15980289147E+03  0.00000000000E+00 0.  1.
         11    1    3    3    0    0  0.51757225474E+02  0.66763384081E+01  0.51401991860E+02  0.73249905464E+02  0.00000000000E+00 0. -1.
         21    1    1    2  502  501 -0.62736407231E+02 -0.44176445671E+02  0.12282939150E+03  0.14482566955E+03  0.00000000000E+00 0. -1.
         21    1    1    2  503  502 -0.18895472575E+02 -0.10839869489E+02 -0.12837927147E+03  0.13021435788E+03  0.00000000000E+00 0.  1.
<scales pt_clust_5="13000.00000" pt_clust_6="13000.00000" pt_clust_7="13000.00000" pt_clust_8="13000.00000" pt_clust_9="78.03563" pt_clust_10="21.78398"></scales>
<clustering>
<clus scale="   21.784">  2 10  1 -1</clus>
<clus scale="   78.036">  1  9  2 -1</clus>
<clus scale="   90.795">  5  6 -1 -1</clus>
<clus scale="   95.353">  7  8 -1 -1</clus>
<clus scale="  116.073">  2  5  1 -1</clus>
<clus scale="   21.784">  2  5  1 -1</clus>
</clustering>
</event>
<event>
10    2  0.1133532E-006  0.9938577E+02  0.7546771E-02  0.1283191E+00
          1   -1    0    0  503    0  0.00000000000E+00  0.00000000000E+00  0.70735973773E+03  0.70735973773E+03  0.00000000000E+00 0. -1.
         -1   -1    0    0    0  501 -0.00000000000E+00 -0.00000000000E+00 -0.98348520273E+02  0.98348520273E+02  0.00000000000E+00 0.  1.
         23    2    1    2    0    0 -0.39125046816E+02  0.95961752052E+01  0.15575968152E+03  0.18374141165E+03  0.88752307586E+02 0.  0.
         23    2    1    2    0    0  0.31266304912E+02  0.50240282125E+02  0.38895789896E+03  0.40403919616E+03  0.91966064933E+02 0.  0.
        -11    1    4    4    0    0 -0.84047488447E+01  0.58635309670E+02  0.30624893410E+03  0.31192490920E+03  0.00000000000E+00 0. -1.
         11    1    4    4    0    0  0.39671053757E+02 -0.83950275446E+01  0.82708964866E+02  0.92114286964E+02  0.00000000000E+00 0.  1.
        -11    1    3    3    0    0 -0.78921132884E+01 -0.31076524928E+02  0.18052580741E+02  0.36795808527E+02  0.00000000000E+00 0.  1.
         11    1    3    3    0    0 -0.31232933528E+02  0.40672700133E+02  0.13770710078E+03  0.14694560312E+03  0.00000000000E+00 0. -1.
         21    1    1    2  502  501  0.25959158375E+02 -0.47587620516E+02 -0.66230803111E+02  0.85586090053E+02  0.00000000000E+00 0.  1.
         21    1    1    2  503  502 -0.18100416470E+02 -0.12248836814E+02  0.13052444009E+03  0.13234156014E+03  0.00000000000E+00 0.  1.
<scales pt_clust_5="13000.00000" pt_clust_6="13000.00000" pt_clust_7="13000.00000" pt_clust_8="13000.00000" pt_clust_9="54.24383" pt_clust_10="21.85541"></scales>
<clustering>
<clus scale="   21.855">  1 10  2 -1</clus>
<clus scale="   54.244">  2  9  1 -1</clus>
<clus scale="   88.752">  7  8 -1 -1</clus>
<clus scale="   91.966">  5  6 -1 -1</clus>
<clus scale="   96.420">  2  7  1 -1</clus>
<clus scale="   21.855">  1  5  2 -1</clus>
</clustering>
</event>
<event>
10    2  0.1133532E-006  0.1993732E+03  0.7546771E-02  0.1153181E+00
          1   -1    0    0  503    0  0.00000000000E+00  0.00000000000E+00  0.17853206050E+03  0.17853206050E+03  0.00000000000E+00 0. -1.
         -1   -1    0    0    0  501 -0.00000000000E+00 -0.00000000000E+00 -0.60121607964E+03  0.60121607964E+03  0.00000000000E+00 0.  1.
         23    2    1    2    0    0 -0.85072001698E+02  0.72852654871E+02 -0.18527356230E+03  0.24590009801E+03  0.11660107426E+03 0.  0.
         23    2    1    2    0    0  0.20013241617E+03 -0.10792998766E+03 -0.15393023087E+03  0.28962655690E+03  0.92125784944E+02 0.  0.
        -11    1    4    4    0    0  0.12472295498E+03 -0.19898699856E+02 -0.10318304095E+03  0.16309050768E+03  0.00000000000E+00 0.  1.
         11    1    4    4    0    0  0.75409461184E+02 -0.88031287806E+02 -0.50747189921E+02  0.12653604923E+03  0.00000000000E+00 0. -1.
        -11    1    3    3    0    0 -0.31462151981E+02  0.43574210407E+02 -0.31859550768E+01  0.53839847043E+02  0.00000000000E+00 0. -1.
         11    1    3    3    0    0 -0.53609849717E+02  0.29278444464E+02 -0.18208760722E+03  0.19206025096E+03  0.00000000000E+00 0.  1.
         21    1    1    2  502  501 -0.42084058568E+02  0.21472441606E+02 -0.14202671517E+03  0.14967872780E+03  0.00000000000E+00 0.  1.
         21    1    1    2  503  502 -0.72976355901E+02  0.13604891185E+02  0.58546489195E+02  0.94542757427E+02  0.00000000000E+00 0. -1.
<scales pt_clust_5="13000.00000" pt_clust_6="13000.00000" pt_clust_7="13000.00000" pt_clust_8="13000.00000" pt_clust_9="47.24546" pt_clust_10="76.02627"></scales>
<clustering>
<clus scale="   47.245">  2  9  1 -1</clus>
<clus scale="   76.026">  1 10  2 -1</clus>
<clus scale="   92.126">  5  6 -1 -1</clus>
<clus scale="  116.601">  7  8 -1 -1</clus>
<clus scale="  186.121">  1  5  2 -1</clus>
<clus scale="   76.026">  1  5  2 -1</clus>
</clustering>
</event>
<event>
10    2  0.1133532E-006  0.1023670E+03  0.7546771E-02  0.1276331E+00
         -1   -1    0    0    0  501 -0.00000000000E+00  0.00000000000E+00  0.64177852875E+02  0.64177852875E+02  0.00000000000E+00 0.  1.
          1   -1    0    0  503    0  0.00000000000E+00 -0.00000000000E+00 -0.28512845108E+03  0.28512845108E+03  0.00000000000E+00 0. -1.
         23    2    1    2    0    0 -0.46542566049E+02 -0.19035194875E+02 -0.44077443417E+02  0.11382516875E+03  0.92112968280E+02 0.  0.
         23    2    1    2    0    0  0.35400795550E+02  0.91048707613E+01 -0.86116314192E+02  0.12987723628E+03  0.90088633780E+02 0.  0.
        -11    1    3    3    0    0 -0.39166296201E+02  0.24029365832E+02  0.71423162442E+01  0.46501847939E+02  0.00000000000E+00 0.  1.
         11    1    3    3    0    0 -0.73762698481E+01 -0.43064560707E+02 -0.51219759661E+02  0.67323320815E+02  0.00000000000E+00 0. -1.
        -11    1    4    4    0    0  0.65272010134E+02 -0.97444734659E+00 -0.63574788016E+02  0.91121559061E+02  0.00000000000E+00 0.  1.
         11    1    4    4    0    0 -0.29871214584E+02  0.10079318108E+02 -0.22541526177E+02  0.38755677218E+02  0.00000000000E+00 0. -1.
         21    1    1    2  502  501 -0.94373784806E+01  0.18926855950E+02 -0.13363403866E+02  0.25017404974E+02  0.00000000000E+00 0. -1.
         21    1    1    2  503  502  0.20579148980E+02 -0.89965318363E+01 -0.77393436732E+02  0.80586493949E+02  0.00000000000E+00 0.  1.
<scales pt_clust_5="13000.00000" pt_clust_6="13000.00000" pt_clust_7="13000.00000" pt_clust_8="13000.00000" pt_clust_9="21.14923" pt_clust_10="22.01882"></scales>
<clustering>
<clus scale="   21.149">  1  9  2 -1</clus>
<clus scale="   22.019">  2 10  1 -1</clus>
<clus scale="   90.089">  7  8 -1 -1</clus>
<clus scale="   92.113">  5  6 -1 -1</clus>
<clus scale="  100.549">  2  7  1 -1</clus>
<clus scale="   22.019">  2  5  1 -1</clus>
</clustering>
</event>
<event>
10    2  0.1310015E-006  0.1008989E+03  0.7546771E-02  0.1278624E+00
          1   -1    0    0  503    0  0.00000000000E+00  0.00000000000E+00  0.34430314388E+03  0.34430314388E+03  0.00000000000E+00 0. -1.
         -1   -1    0    0    0  501 -0.00000000000E+00 -0.00000000000E+00 -0.21494300283E+03  0.21494300283E+03  0.00000000000E+00 0.  1.
         23    2    1    2    0    0  0.35203337949E+02  0.44650273029E+01 -0.14779024782E+03  0.17854356439E+03  0.93683699565E+02 0.  0.
         23    2    1    2    0    0 -0.29785576360E+02  0.20432415866E+02  0.18494552303E+03  0.21025247712E+03  0.93255527838E+02 0.  0.
        -13    1    3    3    0    0 -0.20457039966E+02 -0.28187846887E+02 -0.41285304665E+02  0.54014086844E+02  0.00000000000E+00 0. -1.
         13    1    3    3    0    0  0.55660377915E+02  0.32652874190E+02 -0.10650494316E+03  0.12452947755E+03  0.00000000000E+00 0.  1.
        -13    1    4    4    0    0 -0.39904595854E+02 -0.16318932780E+02  0.15746594426E+03  0.16326116482E+03  0.00000000000E+00 0. -1.
         13    1    4    4    0    0  0.10119019494E+02  0.36751348646E+02  0.27479578769E+02  0.46991312305E+02  0.00000000000E+00 0.  1.
         21    1    1    2  502  501 -0.19787339029E+02 -0.42510064734E+02 -0.23559183412E+02  0.52475513457E+02  0.00000000000E+00 0.  1.
         21    1    1    2  503  502  0.14369577440E+02  0.17612621564E+02  0.11576404926E+03  0.11797459173E+03  0.00000000000E+00 0. -1.
<scales pt_clust_5="13000.00000" pt_clust_6="13000.00000" pt_clust_7="13000.00000" pt_clust_8="13000.00000" pt_clust_9="45.49054" pt_clust_10="22.73080"></scales>
<clustering>
<clus scale="   22.731">  1 10  2 -1</clus>
<clus scale="   45.491">  2  9  1 -1</clus>
<clus scale="   93.256">  7  8 -1 -1</clus>
<clus scale="   93.684">  5  6 -1 -1</clus>
<clus scale="  100.501">  1  7  2 -1</clus>
<clus scale="   22.731">  1  5  2 -1</clus>
</clustering>
</event>
<event>
10    2  0.1133532E-006  0.1067130E+03  0.7546771E-02  0.1267058E+00
          2   -1    0    0  502    0  0.00000000000E+00  0.00000000000E+00  0.43279013155E+03  0.43279013155E+03  0.00000000000E+00 0. -1.
         -2   -1    0    0    0  501 -0.00000000000E+00 -0.00000000000E+00 -0.15633794919E+03  0.15633794919E+03  0.00000000000E+00 0.  1.
         23    2    1    2    0    0  0.89678726480E+02  0.94607089095E+02 -0.40554778278E+02  0.16441099777E+03  0.91616105884E+02 0.  0.
         23    2    1    2    0    0 -0.21395277177E+02 -0.54431642029E+02  0.27138172776E+03  0.29254781767E+03  0.92280127443E+02 0.  0.
        -11    1    4    4    0    0 -0.42920179812E+02 -0.34181182254E+02  0.25030634171E+03  0.25624940928E+03  0.00000000000E+00 0. -1.
         11    1    4    4    0    0  0.21524902635E+02 -0.20250459775E+02  0.21075386053E+02  0.36298408392E+02  0.00000000000E+00 0.  1.
        -13    1    3    3    0    0  0.30502980352E+02  0.92606074347E+02 -0.10656681022E+02  0.98080995441E+02  0.00000000000E+00 0.  1.
         13    1    3    3    0    0  0.59175746128E+02  0.20010147484E+01 -0.29898097256E+02  0.66330002332E+02  0.00000000000E+00 0. -1.
         21    1    1    2  502  503 -0.32932953766E+01  0.28607293061E+02  0.16352429295E+02  0.33115328091E+02  0.00000000000E+00 0.  1.
         21    1    1    2  503  501 -0.64990153926E+02 -0.68782740127E+02  0.29272803584E+02  0.99053937208E+02  0.00000000000E+00 0. -1.
<scales pt_clust_5="13000.00000" pt_clust_6="13000.00000" pt_clust_7="13000.00000" pt_clust_8="13000.00000" pt_clust_9="28.79623" pt_clust_10="91.78122"></scales>
<clustering>
<clus scale="   28.796">  1  9  2 -1</clus>
<clus scale="   91.616">  7  8 -1 -1</clus>
<clus scale="   91.781">  2 10  1 -1</clus>
<clus scale="   92.280">  5  6 -1 -1</clus>
<clus scale="  106.139">  2  7  1 -1</clus>
<clus scale="   28.796">  1  5  2 -1</clus>
</clustering>
</event>
<event>
10    2  0.1133532E-006  0.1433102E+03  0.7546771E-02  0.1209599E+00
         -1   -1    0    0    0  501 -0.00000000000E+00  0.00000000000E+00  0.23679133118E+03  0.23679133118E+03  0.00000000000E+00 0.  1.
          1   -1    0    0  503    0  0.00000000000E+00 -0.00000000000E+00 -0.34433171249E+03  0.34433171249E+03  0.00000000000E+00 0. -1.
         23    2    1    2    0    0  0.50991189065E+02 -0.11341552461E+03  0.93248486574E+02  0.18009287371E+03  0.90966918870E+02 0.  0.
         23    2    1    2    0    0 -0.70152622429E+02  0.48920594812E+02 -0.12648312489E+03  0.17931906782E+03  0.94035802614E+02 0.  0.
        -11    1    3    3    0    0  0.15394707787E+02 -0.11193234403E+03  0.89749287354E+02  0.14429407905E+03  0.00000000000E+00 0.  1.
         11    1    3    3    0    0  0.35596481279E+02 -0.14831805773E+01  0.34991992202E+01  0.35798794662E+02  0.00000000000E+00 0. -1.
        -13    1    4    4    0    0 -0.82028585637E+02  0.16083166403E+02 -0.55866579918E+02  0.10054069750E+03  0.00000000000E+00 0.  1.
         13    1    4    4    0    0  0.11875963207E+02  0.32837428409E+02 -0.70616544967E+02  0.78778370317E+02  0.00000000000E+00 0. -1.
         21    1    1    2  502  501  0.16024138454E+02  0.21303659355E+02  0.67959561952E+02  0.73000828596E+02  0.00000000000E+00 0.  1.
         21    1    1    2  503  502  0.31372949099E+01  0.43191270445E+02 -0.14226530495E+03  0.14871027353E+03  0.00000000000E+00 0. -1.
<scales pt_clust_5="13000.00000" pt_clust_6="13000.00000" pt_clust_7="13000.00000" pt_clust_8="13000.00000" pt_clust_9="26.65744" pt_clust_10="43.74015"></scales>
<clustering>
<clus scale="   26.657">  1  9  2 -1</clus>
<clus scale="   43.740">  2 10  1 -1</clus>
<clus scale="   90.967">  5  6 -1 -1</clus>
<clus scale="   94.036">  7  8 -1 -1</clus>
<clus scale="  141.315">  1  5  2 -1</clus>
<clus scale="   43.740">  2  5  1 -1</clus>
</clustering>
</event>
<event>
10    2  0.1133532E-006  0.1709240E+03  0.7546771E-02  0.1189012E+00
          1   -1    0    0  503    0  0.00000000000E+00  0.00000000000E+00  0.68278928399E+03  0.68278928399E+03  0.00000000000E+00 0. -1.
         -1   -1    0    0    0  501 -0.00000000000E+00 -0.00000000000E+00 -0.11689862571E+03  0.11689862571E+03  0.00000000000E+00 0.  1.
         23    2    1    2    0    0 -0.96038643281E+02 -0.18212235435E+02  0.52449060461E+02  0.14409410240E+03  0.91962491710E+02 0.  0.
         23    2    1    2    0    0 -0.14863832315E+02  0.15946369620E+03  0.24878615058E+03  0.30932091415E+03  0.90195760979E+02 0.  0.
        -11    1    3    3    0    0 -0.10019042389E+03  0.82764163229E+01  0.20882733373E+02  0.10267769310E+03  0.00000000000E+00 0.  1.
         11    1    3    3    0    0  0.41517806083E+01 -0.26488651758E+02  0.31566327088E+02  0.41416409309E+02  0.00000000000E+00 0. -1.
        -13    1    4    4    0    0 -0.45389740673E+02  0.56483886071E+02  0.69993083906E+02  0.10074566859E+03  0.00000000000E+00 0. -1.
         13    1    4    4    0    0  0.30525908357E+02  0.10297981013E+03  0.17879306667E+03  0.20857524557E+03  0.00000000000E+00 0.  1.
         21    1    1    2  502  501  0.78182345419E+02 -0.12374473114E+03  0.99476734619E+02  0.17697699950E+03  0.00000000000E+00 0. -1.
         21    1    1    2  503  502  0.32720130178E+02 -0.17506729618E+02  0.16517871262E+03  0.16929589364E+03  0.00000000000E+00 0.  1.
<scales pt_clust_5="13000.00000" pt_clust_6="13000.00000" pt_clust_7="13000.00000" pt_clust_8="13000.00000" pt_clust_9="145.18865" pt_clust_10="37.10920"></scales>
<clustering>
<clus scale="   37.109">  1 10  2 -1</clus>
<clus scale="   90.196">  7  8 -1 -1</clus>
<clus scale="   91.962">  5  6 -1 -1</clus>
<clus scale="  130.330">  2  5  1 -1</clus>
<clus scale="  145.189">  2  9  1 -1</clus>
<clus scale="   37.109">  1  5  2 -1</clus>
</clustering>
</event>
<event>
10    2  0.1133532E-006  0.1501339E+03  0.7546771E-02  0.1203691E+00
         -1   -1    0    0    0  501 -0.00000000000E+00  0.00000000000E+00  0.24470884677E+03  0.24470884677E+03  0.00000000000E+00 0.  1.
          1   -1    0    0  502    0  0.00000000000E+00 -0.00000000000E+00 -0.45231506895E+03  0.45231506895E+03  0.00000000000E+00 0. -1.
         23    2    1    2    0    0 -0.28893301612E+02 -0.10078313269E+03  0.16838046266E+03  0.21830313765E+03  0.91171360577E+02 0.  0.
         23    2    1    2    0    0  0.48103060461E+02  0.10032024379E+03 -0.93280492345E+02  0.18017118406E+03  0.10668809481E+03 0.  0.
        -11    1    3    3    0    0 -0.36345939039E+02 -0.63331170136E+02  0.16442870707E+03  0.17991293479E+03  0.00000000000E+00 0.  1.
         11    1    3    3    0    0  0.74526374270E+01 -0.37451962552E+02  0.39517555927E+01  0.38390202863E+02  0.00000000000E+00 0. -1.
        -13    1    4    4    0    0  0.27189576219E+02  0.10082229549E+03 -0.11125902499E+03  0.15258761078E+03  0.00000000000E+00 0. -1.
         13    1    4    4    0    0  0.20913484241E+02 -0.50205169487E+00  0.17978532644E+02  0.27583573283E+02  0.00000000000E+00 0.  1.
         21    1    1    2  502  503  0.35762727434E+02 -0.41060451625E+01 -0.68837609144E+02  0.77681714148E+02  0.00000000000E+00 0. -1.
         21    1    1    2  503  501 -0.54972486283E+02  0.45689340599E+01 -0.21386858335E+03  0.22086787986E+03  0.00000000000E+00 0. -1.
<scales pt_clust_5="13000.00000" pt_clust_6="13000.00000" pt_clust_7="13000.00000" pt_clust_8="13000.00000" pt_clust_9="35.99767" pt_clust_10="34.53552"></scales>
<clustering>
<clus scale="   35.998">  2  9  1 -1</clus>
<clus scale="   34.536">  2 10  1 -1</clus>
<clus scale="   91.171">  5  6 -1 -1</clus>
<clus scale="  106.688">  7  8 -1 -1</clus>
<clus scale="  139.535">  1  5  2 -1</clus>
<clus scale="   35.998">  2  5  1 -1</clus>
</clustering>
</event>
<event>
10    2  0.1133532E-006  0.9913297E+02  0.7546771E-02  0.1282310E+00
         -1   -1    0    0    0  501 -0.00000000000E+00  0.00000000000E+00  0.76547881397E+02  0.76547881397E+02  0.00000000000E+00 0.  1.
          1   -1    0    0  503    0  0.00000000000E+00 -0.00000000000E+00 -0.43761094761E+03  0.43761094761E+03  0.00000000000E+00 0. -1.
         23    2    1    2    0    0  0.34609046869E+02  0.52999465781E+02 -0.15631291450E+02  0.11188023421E+03  0.90918205196E+02 0.  0.
         23    2    1    2    0    0 -0.11240788476E+02 -0.11713243863E+02 -0.31235881395E+03  0.32582897690E+03  0.91284928277E+02 0.  0.
        -11    1    4    4    0    0 -0.41747703590E+01  0.38607873444E+02 -0.17788851156E+03  0.18207778323E+03  0.00000000000E+00 0. -1.
         11    1    4    4    0    0 -0.70660181174E+01 -0.50321117306E+02 -0.13447030239E+03  0.14375119368E+03  0.00000000000E+00 0.  1.
        -13    1    3    3    0    0  0.13613046871E+02  0.53782170070E+02  0.28963551092E+02  0.62583737140E+02  0.00000000000E+00 0.  1.
         13    1    3    3    0    0  0.20995999998E+02 -0.78270428938E+00 -0.44594842542E+02  0.49296497069E+02  0.00000000000E+00 0. -1.
         21    1    1    2  502  501  0.16883443080E+01 -0.35934327999E+02 -0.17972169365E+01  0.36018834294E+02  0.00000000000E+00 0. -1.
         21    1    1    2  503  502 -0.25056602701E+02 -0.53518939196E+01 -0.31275743880E+02  0.40430783602E+02  0.00000000000E+00 0. -1.
<scales pt_clust_5="13000.00000" pt_clust_6="13000.00000" pt_clust_7="13000.00000" pt_clust_8="13000.00000" pt_clust_9="36.18979" pt_clust_10="25.62179"></scales>
<clustering>
<clus scale="   25.622">  2 10  1 -1</clus>
<clus scale="   36.190">  1  9  2 -1</clus>
<clus scale="   90.918">  7  8 -1 -1</clus>
<clus scale="   91.285">  5  6 -1 -1</clus>
<clus scale="   98.795">  1  7  2 -1</clus>
<clus scale="   25.622">  2  5  1 -1</clus>
</clustering>
</event>
<event>
10    2  0.1133532E-006  0.9571500E+02  0.7546771E-02  0.1293643E+00
         -1   -1    0    0    0  501 -0.00000000000E+00  0.00000000000E+00  0.27739523430E+03  0.27739523430E+03  0.00000000000E+00 0.  1.
          1   -1    0    0  503    0  0.00000000000E+00 -0.00000000000E+00 -0.12055868188E+03  0.12055868188E+03  0.00000000000E+00 0. -1.
         23    2    1    2    0    0  0.30804049586E+02 -0.45139021515E+01  0.15844241627E+03  0.18538652304E+03  0.91076335384E+02 0.  0.
         23    2    1    2    0    0  0.34915588965E+00  0.50120577500E+02 -0.59925782109E+02  0.11448164629E+03  0.83682458001E+02 0.  0.
        -11    1    4    4    0    0  0.28834498651E+02 -0.21373178342E+01 -0.44379829041E+02  0.52967590711E+02  0.00000000000E+00 0.  1.
         11    1    4    4    0    0 -0.28485342761E+02  0.52257895334E+02 -0.15545953067E+02  0.61514055579E+02  0.00000000000E+00 0. -1.
        -11    1    3    3    0    0 -0.19232944674E+02 -0.16441427580E+02  0.11591393713E+03  0.11864344703E+03  0.00000000000E+00 0.  1.
         11    1    3    3    0    0  0.50036994261E+02  0.11927525428E+02  0.42528479146E+02  0.66743076015E+02  0.00000000000E+00 0. -1.
         21    1    1    2  502  501 -0.14010506863E+02 -0.19153715034E+02  0.61965025354E+02  0.66353775095E+02  0.00000000000E+00 0.  1.
         21    1    1    2  503  502 -0.17142698613E+02 -0.26452960315E+02 -0.36451071011E+01  0.31731971746E+02  0.00000000000E+00 0.  1.
<scales pt_clust_5="13000.00000" pt_clust_6="13000.00000" pt_clust_7="13000.00000" pt_clust_8="13000.00000" pt_clust_9="23.73097" pt_clust_10="33.08243"></scales>
<clustering>
<clus scale="   23.731">  1  9  2 -1</clus>
<clus scale="   33.082">  2 10  1 -1</clus>
<clus scale="   83.682">  5  6 -1 -1</clus>
<clus scale="   88.709">  2  5  1 -1</clus>
<clus scale="   91.076">  7  8 -1 -1</clus>
<clus scale="   33.082">  2  5  1 -1</clus>
</clustering>
</event>
<event>
10    2  0.1133532E-006  0.2711630E+03  0.7546771E-02  0.1100649E+00
          1   -1    0    0  503    0  0.00000000000E+00  0.00000000000E+00  0.11797792035E+03  0.11797792035E+03  0.00000000000E+00 0. -1.
         -1   -1    0    0    0  501 -0.00000000000E+00 -0.00000000000E+00 -0.84484688309E+03  0.84484688309E+03  0.00000000000E+00 0.  1.
         23    2    1    2    0    0 -0.70405291938E+02 -0.28509223704E+03 -0.30517046056E+03  0.43332679437E+03  0.91698483975E+02 0.  0.
         23    2    1    2    0    0  0.48755981506E+02  0.21210073774E+03 -0.31676693487E+03  0.39527017903E+03  0.92376158824E+02 0.  0.
        -13    1    3    3    0    0 -0.88569738971E+00 -0.66389420332E+02 -0.12509490753E+03  0.14162300477E+03  0.00000000000E+00 0. -1.
         13    1    3    3    0    0 -0.69519594549E+02 -0.21870281671E+03 -0.18007555303E+03  0.29170378959E+03  0.00000000000E+00 0.  1.
        -13    1    4    4    0    0  0.64429664686E+02  0.19786070925E+03 -0.30936755253E+03  0.37283820153E+03  0.00000000000E+00 0.  1.
         13    1    4    4    0    0 -0.15673683180E+02  0.14240028484E+02 -0.73993823420E+01  0.22431977503E+02  0.00000000000E+00 0. -1.
         21    1    1    2  502  501  0.10158907106E+02  0.20934567280E+02 -0.60530623858E+02  0.64849178294E+02  0.00000000000E+00 0.  1.
         21    1    1    2  503  502  0.11490403326E+02  0.52056932023E+02 -0.44400943451E+02  0.69378651757E+02  0.00000000000E+00 0.  1.
<scales pt_clust_5="13000.00000" pt_clust_6="13000.00000" pt_clust_7="13000.00000" pt_clust_8="13000.00000" pt_clust_9="22.98182" pt_clust_10="83.70470"></scales>
<clustering>
<clus scale="   22.982">  9 10 -1 -1</clus>
<clus scale="   83.705">  2  9  1 -1</clus>
<clus scale="   91.698">  5  6 -1 -1</clus>
<clus scale="   92.376">  7  8 -1 -1</clus>
<clus scale="  270.933">  2  5  1 -1</clus>
<clus scale="  271.163">  1  5  2 -1</clus>
</clustering>
</event>
<event>
10    2  0.1133532E-006  0.1005664E+03  0.7546771E-02  0.1280478E+00
          2   -1    0    0  503    0  0.00000000000E+00  0.00000000000E+00  0.21116887548E+03  0.21116887548E+03  0.00000000000E+00 0. -1.
         -2   -1    0    0    0  501 -0.00000000000E+00 -0.00000000000E+00 -0.21862062503E+03  0.21862062503E+03  0.00000000000E+00 0.  1.
         23    2    1    2    0    0 -0.10245278891E+02 -0.47525702708E+02 -0.11961707222E+03  0.15770739336E+03  0.90552304202E+02 0.  0.
         23    2    1    2    0    0  0.53611984428E+02  0.39880455646E+02  0.11773206545E+03  0.16128190479E+03  0.87671648564E+02 0.  0.
        -11    1    4    4    0    0  0.43893434862E+02 -0.13096469978E+02  0.89334540181E+02  0.10039328274E+03  0.00000000000E+00 0. -1.
         11    1    4    4    0    0  0.97185495658E+01  0.52976925624E+02  0.28397525269E+02  0.60888622054E+02  0.00000000000E+00 0.  1.
        -13    1    3    3    0    0 -0.38108596558E+02 -0.10003972173E+02 -0.99140348446E+02  0.10668248816E+03  0.00000000000E+00 0.  1.
         13    1    3    3    0    0  0.27863317668E+02 -0.37521730535E+02 -0.20476723777E+02  0.51024905197E+02  0.00000000000E+00 0. -1.
         21    1    1    2  502  501 -0.31338319921E+02  0.39006257766E+02 -0.38976431132E+02  0.63425078827E+02  0.00000000000E+00 0.  1.
         21    1    1    2  503  502 -0.12028385616E+02 -0.31361010705E+02  0.33409688354E+02  0.47375123523E+02  0.00000000000E+00 0.  1.
<scales pt_clust_5="13000.00000" pt_clust_6="13000.00000" pt_clust_7="13000.00000" pt_clust_8="13000.00000" pt_clust_9="48.86919" pt_clust_10="33.58861"></scales>
<clustering>
<clus scale="   33.589">  1 10  2 -1</clus>
<clus scale="   48.869">  2  9  1 -1</clus>
<clus scale="   87.672">  5  6 -1 -1</clus>
<clus scale="   90.552">  7  8 -1 -1</clus>
<clus scale="   97.981">  1  5  2 -1</clus>
<clus scale="   33.589">  1  5  2 -1</clus>
</clustering>
</event>
<event>
10    2  0.1133532E-006  0.1479267E+03  0.7546771E-02  0.1203178E+00
         -2   -1    0    0    0  501 -0.00000000000E+00  0.00000000000E+00  0.92102370113E+02  0.92102370113E+02  0.00000000000E+00 0.  1.
          2   -1    0    0  503    0  0.00000000000E+00 -0.00000000000E+00 -0.64106220933E+03  0.64106220933E+03  0.00000000000E+00 0. -1.
         23    2    1    2    0    0  0.46816961572E+02  0.85619590049E+02 -0.31682282623E+02  0.13794611239E+03  0.92210741240E+02 0.  0.
         23    2    1    2    0    0 -0.85130976821E+02 -0.89722442158E+02 -0.39962390271E+03  0.42851529543E+03  0.92890768984E+02 0.  0.
        -13    1    4    4    0    0 -0.32864076466E+02 -0.54683118428E+02 -0.32359383584E+03  0.32982307614E+03  0.00000000000E+00 0.  1.
         13    1    4    4    0    0 -0.52266900354E+02 -0.35039323730E+02 -0.76030066866E+02  0.98692219287E+02  0.00000000000E+00 0. -1.
        -13    1    3    3    0    0 -0.19592978002E+02  0.59311800458E+02 -0.97257544018E+01  0.63216807569E+02  0.00000000000E+00 0. -1.
         13    1    3    3    0    0  0.66409939574E+02  0.26307789591E+02 -0.21956528221E+02  0.74729304820E+02  0.00000000000E+00 0.  1.
         21    1    1    2  502  501  0.11025248352E+02  0.19805902321E+02  0.17053011114E+02  0.28366089896E+02  0.00000000000E+00 0.  1.
         21    1    1    2  503  502  0.27288766897E+02 -0.15703050212E+02 -0.13470666500E+03  0.13833708173E+03  0.00000000000E+00 0. -1.
<scales pt_clust_5="13000.00000" pt_clust_6="13000.00000" pt_clust_7="13000.00000" pt_clust_8="13000.00000" pt_clust_9="22.66782" pt_clust_10="31.48148"></scales>
<clustering>
<clus scale="   22.668">  1  9  2 -1</clus>
<clus scale="   31.481">  2 10  1 -1</clus>
<clus scale="   92.211">  7  8 -1 -1</clus>
<clus scale="   92.891">  5  6 -1 -1</clus>
<clus scale="  147.501">  1  7  2 -1</clus>
<clus scale="   31.481">  2  5  1 -1</clus>
</clustering>
</event>
<event>
10    2  0.1133532E-006  0.1973238E+03  0.7546771E-02  0.1152163E+00
         -1   -1    0    0    0  501 -0.00000000000E+00  0.00000000000E+00  0.26721125376E+03  0.26721125376E+03  0.00000000000E+00 0.  1.
          1   -1    0    0  503    0  0.00000000000E+00 -0.00000000000E+00 -0.63368107333E+03  0.63368107333E+03  0.00000000000E+00 0. -1.
         23    2    1    2    0    0  0.13845156894E+03  0.13334611038E+03  0.14344061576E+03  0.25648997209E+03  0.90894848234E+02 0.  0.
         23    2    1    2    0    0 -0.65356427185E+02 -0.10231333399E+03 -0.15679968505E+03  0.21752961261E+03  0.89406432880E+02 0.  0.
        -11    1    4    4    0    0 -0.52642428908E+02 -0.41672036475E+02 -0.24554518538E+02  0.71489218250E+02  0.00000000000E+00 0. -1.
         11    1    4    4    0    0 -0.12713998276E+02 -0.60641297517E+02 -0.13224516652E+03  0.14604039436E+03  0.00000000000E+00 0.  1.
        -13    1    3    3    0    0  0.11986993410E+03  0.14513725598E+03  0.13910625498E+03  0.23406019386E+03  0.00000000000E+00 0.  1.
         13    1    3    3    0    0  0.18581634839E+02 -0.11791145600E+02  0.43343607777E+01  0.22429778225E+02  0.00000000000E+00 0. -1.
         21    1    1    2  502  501 -0.57555376832E+02 -0.70237667653E+02 -0.22460202799E+02  0.93543637247E+02  0.00000000000E+00 0. -1.
         21    1    1    2  503  502 -0.15539764923E+02  0.39204891263E+02 -0.33065054748E+03  0.33332910515E+03  0.00000000000E+00 0. -1.
<scales pt_clust_5="13000.00000" pt_clust_6="13000.00000" pt_clust_7="13000.00000" pt_clust_8="13000.00000" pt_clust_9="87.15951" pt_clust_10="42.17236"></scales>
<clustering>
<clus scale="   42.172">  2 10  1 -1</clus>
<clus scale="   87.160">  2  9  1 -1</clus>
<clus scale="   89.406">  5  6 -1 -1</clus>
<clus scale="   90.895">  7  8 -1 -1</clus>
<clus scale="  196.643">  2  5  1 -1</clus>
<clus scale="   42.172">  2  5  1 -1</clus>
</clustering>
</event>
<event>
10    2  0.1133532E-006  0.1495652E+03  0.7546771E-02  0.1215358E+00
          2   -1    0    0  503    0  0.00000000000E+00  0.00000000000E+00  0.63064032547E+03  0.63064032547E+03  0.00000000000E+00 0. -1.
         -2   -1    0    0    0  501 -0.00000000000E+00 -0.00000000000E+00 -0.11654055593E+03  0.11654055593E+03  0.00000000000E+00 0.  1.
         23    2    1    2    0    0  0.28225049101E+02  0.63867867102E+02  0.67656242784E+02  0.13762620316E+03  0.97405578708E+02 0.  0.
         23    2    1    2    0    0 -0.11434148781E+03 -0.22351856246E+02  0.37095101053E+03  0.39884142064E+03  0.88860819767E+02 0.  0.
        -11    1    4    4    0    0 -0.22477963438E+02  0.24045649783E+02  0.37633464273E+02  0.49997297397E+02  0.00000000000E+00 0.  1.
         11    1    4    4    0    0 -0.91863524370E+02 -0.46397506029E+02  0.33331754626E+03  0.34884412324E+03  0.00000000000E+00 0. -1.
        -13    1    3    3    0    0 -0.31005006629E+02  0.50198304828E+02  0.31151970944E+02  0.66720503126E+02  0.00000000000E+00 0. -1.
         13    1    3    3    0    0  0.59230055731E+02  0.13669562274E+02  0.36504271841E+02  0.70905700033E+02  0.00000000000E+00 0.  1.
         21    1    1    2  502  501 -0.48961159423E+02 -0.37058224648E+02  0.19548859250E+02  0.64441175068E+02  0.00000000000E+00 0. -1.
         21    1    1    2  503  502  0.13507759813E+03 -0.44577862079E+01  0.55943656968E+02  0.14627208254E+03  0.00000000000E+00 0.  1.
<scales pt_clust_5="13000.00000" pt_clust_6="13000.00000" pt_clust_7="13000.00000" pt_clust_8="13000.00000" pt_clust_9="61.40446" pt_clust_10="120.30590"></scales>
<clustering>
<clus scale="   61.404">  2  9  1 -1</clus>
<clus scale="   88.861">  5  6 -1 -1</clus>
<clus scale="   97.406">  7  8 -1 -1</clus>
<clus scale="  109.987">  2  7  1 -1</clus>
<clus scale="  120.306">  2 10  1 -1</clus>
<clus scale="  149.565">  1  5  2 -1</clus>
</clustering>
</event>
<event>
10    2  0.1133532E-006  0.1418984E+03  0.7546771E-02  0.1210807E+00
          2   -1    0    0  503    0  0.00000000000E+00  0.00000000000E+00  0.16648522898E+03  0.16648522898E+03  0.00000000000E+00 0. -1.
         -2   -1    0    0    0  501 -0.00000000000E+00 -0.00000000000E+00 -0.21359960474E+03  0.21359960474E+03  0.00000000000E+00 0.  1.
         23    2    1    2    0    0 -0.13263381591E+03  0.63249965106E+02 -0.94083971927E+01  0.17288641985E+03  0.90603029873E+02 0.  0.
         23    2    1    2    0    0  0.57172456094E+02 -0.61916052343E+02 -0.12337443031E+02  0.12438752836E+03  0.90651847404E+02 0.  0.
        -11    1    4    4    0    0 -0.58441120385E+01 -0.58446951227E+02 -0.16870034899E+02  0.61112992323E+02  0.00000000000E+00 0.  1.
         11    1    4    4    0    0  0.63016568133E+02 -0.34691011166E+01  0.45325918681E+01  0.63274536038E+02  0.00000000000E+00 0. -1.
        -13    1    3    3    0    0 -0.54364924207E+02 -0.19661133682E+02 -0.11041870581E+02  0.58855994322E+02  0.00000000000E+00 0.  1.
         13    1    3    3    0    0 -0.78268891700E+02  0.82911098789E+02  0.16334733886E+01  0.11403042553E+03  0.00000000000E+00 0. -1.
         21    1    1    2  502  501  0.41394371314E+02 -0.88870673726E+01 -0.22114253643E+02  0.47765198179E+02  0.00000000000E+00 0. -1.
         21    1    1    2  503  502  0.34066988499E+02  0.75531546099E+01 -0.32542818920E+01  0.35045687332E+02  0.00000000000E+00 0. -1.
<scales pt_clust_5="13000.00000" pt_clust_6="13000.00000" pt_clust_7="13000.00000" pt_clust_8="13000.00000" pt_clust_9="78.82944" pt_clust_10="20.65999"></scales>
<clustering>
<clus scale="   20.660">  9 10 -1 -1</clus>
<clus scale="   78.829">  2  9  1 -1</clus>
<clus scale="   90.603">  7  8 -1 -1</clus>
<clus scale="   90.652">  5  6 -1 -1</clus>
<clus scale="  141.867">  2  7  1 -1</clus>
<clus scale="  141.898">  1  5  2 -1</clus>
</clustering>
</event>
<event>
10    2  0.1133532E-006  0.2230570E+03  0.7546771E-02  0.1131651E+00
         -2   -1    0    0    0  501 -0.00000000000E+00  0.00000000000E+00  0.18654837060E+03  0.18654837060E+03  0.00000000000E+00 0.  1.
          2   -1    0    0  503    0  0.00000000000E+00 -0.00000000000E+00 -0.58767707233E+03  0.58767707233E+03  0.00000000000E+00 0. -1.
         23    2    1    2    0    0 -0.15701012785E+03  0.37906833839E+02  0.11472098907E+02  0.18602693120E+03  0.91571293435E+02 0.  0.
         23    2    1    2    0    0  0.21089644792E+03 -0.45759829581E+02 -0.43294437504E+03  0.49240453115E+03  0.91924516157E+02 0.  0.
        -11    1    3    3    0    0 -0.28638704319E+02 -0.14326899015E+02  0.32758894275E+02  0.45810267131E+02  0.00000000000E+00 0. -1.
         11    1    3    3    0    0 -0.12837142353E+03  0.52233732855E+02 -0.21286795368E+02  0.14021666407E+03  0.00000000000E+00 0.  1.
        -13    1    4    4    0    0  0.16989748818E+03 -0.73267454603E+02 -0.33387358771E+03  0.38171304531E+03  0.00000000000E+00 0. -1.
         13    1    4    4    0    0  0.40998959735E+02  0.27507625022E+02 -0.99070787337E+02  0.11069148584E+03  0.00000000000E+00 0.  1.
         21    1    1    2  502  501 -0.28760520497E+02 -0.29221782948E+02  0.28945334977E+02  0.50188769210E+02  0.00000000000E+00 0. -1.
         21    1    1    2  503  502 -0.25125799573E+02  0.37074778689E+02 -0.86017605689E+01  0.45605211368E+02  0.00000000000E+00 0. -1.
<scales pt_clust_5="13000.00000" pt_clust_6="13000.00000" pt_clust_7="13000.00000" pt_clust_8="13000.00000" pt_clust_9="41.00098" pt_clust_10="44.06426"></scales>
<clustering>
<clus scale="   41.001">  1  9  2 -1</clus>
<clus scale="   44.064">  1 10  2 -1</clus>
<clus scale="   91.571">  5  6 -1 -1</clus>
<clus scale="   91.925">  7  8 -1 -1</clus>
<clus scale="  222.912">  1  5  2 -1</clus>
<clus scale="  223.057">  2  5  1 -1</clus>
</clustering>
</event>
<event>
10    2  0.1133532E-006  0.1912672E+03  0.7546771E-02  0.1158193E+00
          2   -1    0    0  503    0  0.00000000000E+00  0.00000000000E+00  0.43951645750E+03  0.43951645750E+03  0.00000000000E+00 0. -1.
         -2   -1    0    0    0  501 -0.00000000000E+00 -0.00000000000E+00 -0.22779243672E+03  0.22779243672E+03  0.00000000000E+00 0.  1.
         23    2    1    2    0    0  0.12191554515E+03  0.10165604650E+03 -0.99870395834E+02  0.20750657866E+03  0.88811780106E+02 0.  0.
         23    2    1    2    0    0 -0.15885379678E+03 -0.52362996417E+02  0.32292581674E+03  0.37630064937E+03  0.96667902907E+02 0.  0.
        -11    1    4    4    0    0 -0.10437848093E+03 -0.61728940039E+02  0.14005415305E+03  0.18525791509E+03  0.00000000000E+00 0.  1.
         11    1    4    4    0    0 -0.54475315850E+02  0.93659436216E+01  0.18287166370E+03  0.19104273428E+03  0.00000000000E+00 0. -1.
        -13    1    3    3    0    0  0.25439167604E+02  0.53135605736E+02  0.21444633510E+01  0.58950339850E+02  0.00000000000E+00 0. -1.
         13    1    3    3    0    0  0.96476377543E+02  0.48520440767E+02 -0.10201485919E+03  0.14855623881E+03  0.00000000000E+00 0.  1.
         21    1    1    2  502  501  0.29033472617E+02 -0.28982186861E+02 -0.33089482460E+02  0.52705061777E+02  0.00000000000E+00 0.  1.
         21    1    1    2  503  502  0.79047790125E+01 -0.20310863225E+02  0.21758082334E+02  0.30796604407E+02  0.00000000000E+00 0. -1.
<scales pt_clust_5="13000.00000" pt_clust_6="13000.00000" pt_clust_7="13000.00000" pt_clust_8="13000.00000" pt_clust_9="41.49715" pt_clust_10="21.79488"></scales>
<clustering>
<clus scale="   21.795">  1 10  2 -1</clus>
<clus scale="   41.497">  2  9  1 -1</clus>
<clus scale="   88.812">  7  8 -1 -1</clus>
<clus scale="   96.668">  5  6 -1 -1</clus>
<clus scale="  187.419">  2  7  1 -1</clus>
<clus scale="   21.795">  1  5  2 -1</clus>
</clustering>
</event>
<event>
10    2  0.1133532E-006  0.9467341E+02  0.7546771E-02  0.1292056E+00
          2   -1    0    0  503    0  0.00000000000E+00  0.00000000000E+00  0.44659263488E+03  0.44659263488E+03  0.00000000000E+00 0. -1.
         -2   -1    0    0    0  501 -0.00000000000E+00 -0.00000000000E+00 -0.61084613409E+02  0.61084613409E+02  0.00000000000E+00 0.  1.
         23    2    1    2    0    0  0.31025614901E+02 -0.11667131366E+02  0.61223292107E+02  0.11397000215E+03  0.90233913577E+02 0.  0.
         23    2    1    2    0    0  0.24999827454E+02  0.28802710716E+02  0.30504204322E+03  0.32046058506E+03  0.90497242638E+02 0.  0.
        -11    1    4    4    0    0 -0.17355188418E+02  0.36234913491E+02  0.63659158047E+02  0.75277220485E+02  0.00000000000E+00 0.  1.
         11    1    4    4    0    0  0.42355015871E+02 -0.74322027758E+01  0.24138288518E+03  0.24518336457E+03  0.00000000000E+00 0. -1.
        -13    1    3    3    0    0  0.55313865919E+02 -0.68459302539E+01  0.68358117164E+02  0.88200468855E+02  0.00000000000E+00 0. -1.
         13    1    3    3    0    0 -0.24288251019E+02 -0.48212011119E+01 -0.71348250563E+01  0.25769533296E+02  0.00000000000E+00 0.  1.
         21    1    1    2  502  501 -0.28700587425E+02  0.18766232919E+01 -0.84152147670E+01  0.29967670464E+02  0.00000000000E+00 0.  1.
         21    1    1    2  503  502 -0.27324854930E+02 -0.19012202642E+02  0.27657900911E+02  0.43278990620E+02  0.00000000000E+00 0.  1.
<scales pt_clust_5="13000.00000" pt_clust_6="13000.00000" pt_clust_7="13000.00000" pt_clust_8="13000.00000" pt_clust_9="28.76187" pt_clust_10="37.62963"></scales>
<clustering>
<clus scale="   28.762">  2  9  1 -1</clus>
<clus scale="   37.630">  2 10  1 -1</clus>
<clus scale="   90.234">  7  8 -1 -1</clus>
<clus scale="   90.497">  5  6 -1 -1</clus>
<clus scale="   94.422">  2  7  1 -1</clus>
<clus scale="   94.673">  1  5  2 -1</clus>
</clustering>
</event>
<event>
10    2  0.2826594E-006  0.2258509E+03  0.7546771E-02  0.1163074E+00
          1   -1    0    0  503    0  0.00000000000E+00  0.00000000000E+00  0.12753698451E+04  0.12753698451E+04  0.00000000000E+00 0. -1.
         -1   -1    0    0    0  501 -0.00000000000E+00 -0.00000000000E+00 -0.25508900292E+03  0.25508900292E+03  0.00000000000E+00 0.  1.
         23    2    1    2    0    0 -0.55676879030E+02 -0.74428488312E+01 -0.18651093939E+03  0.21593858651E+03  0.93208539170E+02 0.  0.
         23    2    1    2    0    0  0.10055442187E+03  0.18135310435E+03  0.86285811955E+03  0.89212358649E+03  0.91434232568E+02 0.  0.
        -11    1    3    3    0    0 -0.63798480761E+02 -0.39498041993E+02 -0.14043994431E+03  0.15922851323E+03  0.00000000000E+00 0.  1.
         11    1    3    3    0    0  0.81216017312E+01  0.32055193161E+02 -0.46070995080E+02  0.56710073276E+02  0.00000000000E+00 0. -1.
        -13    1    4    4    0    0  0.69410117088E+02  0.37464269301E+02  0.33074998395E+03  0.34002483396E+03  0.00000000000E+00 0.  1.
         13    1    4    4    0    0  0.31144304785E+02  0.14388883504E+03  0.53210813560E+03  0.55209875253E+03  0.00000000000E+00 0. -1.
         21    1    1    2  502  501  0.20467446817E+02  0.22678079962E+02  0.15939022961E+02  0.34456699536E+02  0.00000000000E+00 0. -1.
         21    1    1    2  503  502 -0.65344989661E+02 -0.19658833548E+03  0.32799463904E+03  0.38793997546E+03  0.00000000000E+00 0.  1.
<scales pt_clust_5="13000.00000" pt_clust_6="13000.00000" pt_clust_7="13000.00000" pt_clust_8="13000.00000" pt_clust_9="30.54851" pt_clust_10="206.51492"></scales>
<clustering>
<clus scale="   30.549">  2  9  1 -1</clus>
<clus scale="   91.434">  7  8 -1 -1</clus>
<clus scale="   93.209">  5  6 -1 -1</clus>
<clus scale="  101.619">  2  5  1 -1</clus>
<clus scale="  206.515">  2 10  1 -1</clus>
<clus scale="  225.851">  1  5  2 -1</clus>
</clustering>
</event>
<event>
10    2  0.1133532E-006  0.1032778E+03  0.7546771E-02  0.1278039E+00
         -2   -1    0    0    0  501 -0.00000000000E+00  0.00000000000E+00  0.15850297744E+03  0.15850297744E+03  0.00000000000E+00 0.  1.
          2   -1    0    0  503    0  0.00000000000E+00 -0.00000000000E+00 -0.44503115489E+03  0.44503115489E+03  0.00000000000E+00 0. -1.
         23    2    1    2    0    0  0.35535406954E+02  0.12779875632E+02  0.11892470966E+03  0.15755873345E+03  0.96205912238E+02 0.  0.
         23    2    1    2    0    0 -0.32410030309E+02 -0.14265440096E+02 -0.20046641629E+03  0.22138401237E+03  0.87006804488E+02 0.  0.
        -13    1    4    4    0    0  0.22229682692E+02 -0.27501632163E+02 -0.54523684387E+02  0.64987158142E+02  0.00000000000E+00 0. -1.
         13    1    4    4    0    0 -0.54639713001E+02  0.13236192068E+02 -0.14594273191E+03  0.15639685423E+03  0.00000000000E+00 0.  1.
        -13    1    3    3    0    0  0.31102197284E+02  0.47407514928E+02  0.10622546092E+03  0.12041041357E+03  0.00000000000E+00 0.  1.
         13    1    3    3    0    0  0.44332096701E+01 -0.34627639296E+02  0.12699248732E+02  0.37148319876E+02  0.00000000000E+00 0. -1.
         21    1    1    2  502  501 -0.22985852491E+02  0.29592074370E+02 -0.35399854364E+02  0.51547938556E+02  0.00000000000E+00 0. -1.
         21    1    1    2  503  502  0.19860475847E+02 -0.28106509907E+02 -0.16958661645E+03  0.17304344795E+03  0.00000000000E+00 0. -1.
<scales pt_clust_5="13000.00000" pt_clust_6="13000.00000" pt_clust_7="13000.00000" pt_clust_8="13000.00000" pt_clust_9="32.01095" pt_clust_10="34.41532"></scales>
<clustering>
<clus scale="   34.415">  2 10  1 -1</clus>
<clus scale="   32.011">  2  9  1 -1</clus>
<clus scale="   87.007">  5  6 -1 -1</clus>
<clus scale="   94.768">  2  5  1 -1</clus>
<clus scale="   96.206">  7  8 -1 -1</clus>
<clus scale="   34.415">  2  5  1 -1</clus>
</clustering>
</event>
<event>
10    2  0.1133532E-006  0.1982279E+03  0.7546771E-02  0.1152688E+00
          1   -1    0    0  503    0  0.00000000000E+00  0.00000000000E+00  0.44286805947E+03  0.44286805947E+03  0.00000000000E+00 0. -1.
         -1   -1    0    0    0  501 -0.00000000000E+00 -0.00000000000E+00 -0.31763778203E+03  0.31763778203E+03  0.00000000000E+00 0.  1.
         23    2    1    2    0    0  0.14856994347E+03 -0.10438768606E+03 -0.11338841805E+03  0.23401273415E+03  0.94526236019E+02 0.  0.
         23    2    1    2    0    0 -0.15336792007E+03  0.11095138578E+03  0.12893909489E+03  0.25295032550E+03  0.10736222831E+03 0.  0.
        -11    1    4    4    0    0 -0.51001505038E+02  0.27710166738E+02 -0.12661191866E+02  0.59408018282E+02  0.00000000000E+00 0.  1.
         11    1    4    4    0    0 -0.10236641503E+03  0.83241219038E+02  0.14160028676E+03  0.19354230722E+03  0.00000000000E+00 0. -1.
        -13    1    3    3    0    0 -0.99485437092E+01 -0.17941787989E+02  0.52909015725E+00  0.20522212712E+02  0.00000000000E+00 0. -1.
         13    1    3    3    0    0  0.15851848718E+03 -0.86445898068E+02 -0.11391750820E+03  0.21349052144E+03  0.00000000000E+00 0.  1.
         21    1    1    2  502  501 -0.10297693480E+02  0.43347424564E+02 -0.71921662965E+02  0.84603589232E+02  0.00000000000E+00 0.  1.
         21    1    1    2  503  502  0.15095670078E+02 -0.49911124282E+02  0.18160126356E+03  0.18893919262E+03  0.00000000000E+00 0.  1.
<scales pt_clust_5="13000.00000" pt_clust_6="13000.00000" pt_clust_7="13000.00000" pt_clust_8="13000.00000" pt_clust_9="44.55381" pt_clust_10="51.46240"></scales>
<clustering>
<clus scale="   44.554">  2  9  1 -1</clus>
<clus scale="   51.462">  1 10  2 -1</clus>
<clus scale="   94.526">  7  8 -1 -1</clus>
<clus scale="  107.362">  5  6 -1 -1</clus>
<clus scale="  191.580">  2  7  1 -1</clus>
<clus scale="   51.462">  1  5  2 -1</clus>
</clustering>
</event>
<event>
10    2  0.1133532E-006  0.9799400E+02  0.7546771E-02  0.1286721E+00
          1   -1    0    0  503    0  0.00000000000E+00  0.00000000000E+00  0.16296677661E+03  0.16296677661E+03  0.00000000000E+00 0. -1.
         -1   -1    0    0    0  501 -0.00000000000E+00 -0.00000000000E+00 -0.17523819448E+03  0.17523819448E+03  0.00000000000E+00 0.  1.
         23    2    1    2    0    0 -0.72683047880E+01 -0.26407864761E+02 -0.60484361375E+02  0.11287770090E+03  0.91284247347E+02 0.  0.
         23    2    1    2    0    0 -0.82092484656E+01  0.22474553055E+02 -0.43864863260E+02  0.10759711405E+03  0.95291738503E+02 0.  0.
        -13    1    3    3    0    0 -0.38749536402E+02 -0.23030885800E+02 -0.66805451540E+02  0.80591045580E+02  0.00000000000E+00 0.  1.
         13    1    3    3    0    0  0.31481231614E+02 -0.33769789604E+01  0.63210901651E+01  0.32286655320E+02  0.00000000000E+00 0. -1.
        -13    1    4    4    0    0  0.21512714602E+02 -0.18085607392E+02  0.13612923347E+02  0.31228156627E+02  0.00000000000E+00 0.  1.
         13    1    4    4    0    0 -0.29721963068E+02  0.40560160447E+02 -0.57477786607E+02  0.76368957420E+02  0.00000000000E+00 0. -1.
         21    1    1    2  502  501 -0.25001444837E+01  0.20421121792E+02 -0.18782150145E+01  0.20659153645E+02  0.00000000000E+00 0. -1.
         21    1    1    2  503  502  0.17977697737E+02 -0.16487810087E+02  0.93956021775E+02  0.97071002494E+02  0.00000000000E+00 0. -1.
<scales pt_clust_5="13000.00000" pt_clust_6="13000.00000" pt_clust_7="13000.00000" pt_clust_8="13000.00000" pt_clust_9="20.57360" pt_clust_10="24.24528"></scales>
<clustering>
<clus scale="   20.574">  2  9  1 -1</clus>
<clus scale="   24.245">  1 10  2 -1</clus>
<clus scale="   91.284">  5  6 -1 -1</clus>
<clus scale="   94.102">  2  5  1 -1</clus>
<clus scale="   95.292">  7  8 -1 -1</clus>
<clus scale="   24.245">  1  5  2 -1</clus>
</clustering>
</event>
<event>
10    2  0.1133532E-006  0.1013568E+03  0.7546771E-02  0.1277646E+00
         -2   -1    0    0    0  501 -0.00000000000E+00  0.00000000000E+00  0.89891248552E+02  0.89891248552E+02  0.00000000000E+00 0.  1.
          2   -1    0    0  503    0  0.00000000000E+00 -0.00000000000E+00 -0.23719322716E+03  0.23719322716E+03  0.00000000000E+00 0. -1.
         23    2    1    2    0    0 -0.38772926195E+02 -0.38830702973E+02 -0.27275142731E+02  0.10918928313E+03  0.90372577918E+02 0.  0.
         23    2    1    2    0    0 -0.11472388149E+02  0.42670348031E+02 -0.58238009902E+02  0.11653617510E+03  0.90755936541E+02 0.  0.
        -13    1    4    4    0    0 -0.15253524235E+02  0.64921677987E+02 -0.15901504150E+02  0.68559113971E+02  0.00000000000E+00 0.  1.
         13    1    4    4    0    0  0.37811360858E+01 -0.22251329955E+02 -0.42336505752E+02  0.47977061125E+02  0.00000000000E+00 0. -1.
        -13    1    3    3    0    0  0.18708538199E+02  0.10366079835E+02 -0.25802800630E+02  0.33514915083E+02  0.00000000000E+00 0. -1.
         13    1    3    3    0    0 -0.57481464395E+02 -0.49196782807E+02 -0.14723421016E+01  0.75674368044E+02  0.00000000000E+00 0.  1.
         21    1    1    2  502  501 -0.48350986086E+01 -0.20639997791E+02 -0.83050499520E+01  0.22767554591E+02  0.00000000000E+00 0. -1.
         21    1    1    2  503  502  0.55080412953E+02  0.16800352733E+02 -0.53483776027E+02  0.78591462902E+02  0.00000000000E+00 0. -1.
<scales pt_clust_5="13000.00000" pt_clust_6="13000.00000" pt_clust_7="13000.00000" pt_clust_8="13000.00000" pt_clust_9="21.19877" pt_clust_10="56.03792"></scales>
<clustering>
<clus scale="   21.199">  1  9  2 -1</clus>
<clus scale="   56.038">  2 10  1 -1</clus>
<clus scale="   90.373">  7  8 -1 -1</clus>
<clus scale="   90.756">  5  6 -1 -1</clus>
<clus scale="  101.014">  1  7  2 -1</clus>
<clus scale="   56.038">  2  5  1 -1</clus>
</clustering>
</event>
<event>
10    2  0.1133532E-006  0.9196662E+02  0.7546771E-02  0.1298285E+00
          1   -1    0    0  503    0  0.00000000000E+00  0.00000000000E+00  0.59430093477E+03  0.59430093477E+03  0.00000000000E+00 0. -1.
         -1   -1    0    0    0  501 -0.00000000000E+00 -0.00000000000E+00 -0.45878650842E+02  0.45878650842E+02  0.00000000000E+00 0.  1.
         23    2    1    2    0    0  0.44743305356E+02 -0.51834725830E+01  0.12259635252E+03  0.15925285963E+03  0.91119569168E+02 0.  0.
         23    2    1    2    0    0  0.34966552280E+02  0.18158327753E+02  0.17179767840E+03  0.19831773877E+03  0.90901587235E+02 0.  0.
        -11    1    4    4    0    0 -0.26753847261E+02  0.24944013637E+02  0.55239233767E+02  0.66252132847E+02  0.00000000000E+00 0. -1.
         11    1    4    4    0    0  0.61720399541E+02 -0.67856858834E+01  0.11655844463E+03  0.13206560592E+03  0.00000000000E+00 0.  1.
        -13    1    3    3    0    0 -0.20375639486E+02 -0.39753405156E+00  0.76904361951E+02  0.79558818524E+02  0.00000000000E+00 0. -1.
         13    1    3    3    0    0  0.65118944842E+02 -0.47859385314E+01  0.45691990571E+02  0.79694041103E+02  0.00000000000E+00 0.  1.
         21    1    1    2  502  501 -0.81122841412E+01  0.22225740786E+02  0.96766218863E+01  0.25562271390E+02  0.00000000000E+00 0.  1.
         21    1    1    2  503  502 -0.71597573495E+02 -0.35200595956E+02  0.24435163112E+03  0.25704671583E+03  0.00000000000E+00 0. -1.
<scales pt_clust_5="13000.00000" pt_clust_6="13000.00000" pt_clust_7="13000.00000" pt_clust_8="13000.00000" pt_clust_9="23.65994" pt_clust_10="79.45768"></scales>
<clustering>
<clus scale="   23.660">  2  9  1 -1</clus>
<clus scale="   79.458">  1 10  2 -1</clus>
<clus scale="   90.902">  5  6 -1 -1</clus>
<clus scale="   91.120">  7  8 -1 -1</clus>
<clus scale="   91.751">  1  5  2 -1</clus>
<clus scale="   79.458">  1  5  2 -1</clus>
</clustering>
</event>
<event>
10    2  0.1133532E-006  0.2234264E+03  0.7546771E-02  0.1131537E+00
         -1   -1    0    0    0  501 -0.00000000000E+00  0.00000000000E+00  0.33028431449E+03  0.33028431449E+03  0.00000000000E+00 0.  1.
          1   -1    0    0  503    0  0.00000000000E+00 -0.00000000000E+00 -0.52214641753E+03  0.52214641753E+03  0.00000000000E+00 0. -1.
         23    2    1    2    0    0 -0.71853565714E+02 -0.15192423875E+03  0.28037506333E+02  0.19330800622E+03  0.91312508896E+02 0.  0.
         23    2    1    2    0    0  0.56952296094E+02  0.19924129547E+03 -0.33724178304E+03  0.40676179342E+03  0.93714878801E+02 0.  0.
        -11    1    4    4    0    0 -0.24308243585E+02  0.23955433011E+02 -0.46566135315E+02  0.57733512236E+02  0.00000000000E+00 0.  1.
         11    1    4    4    0    0  0.81260539679E+02  0.17528586246E+03 -0.29067564773E+03  0.34902828119E+03  0.00000000000E+00 0. -1.
        -11    1    3    3    0    0 -0.46600907635E+02 -0.15799523477E+03  0.29278446640E+02  0.16730620502E+03  0.00000000000E+00 0.  1.
         11    1    3    3    0    0 -0.25252658078E+02  0.60709960148E+01 -0.12409403068E+01  0.26001801197E+02  0.00000000000E+00 0. -1.
         21    1    1    2  502  501 -0.26623662713E+02 -0.45700940830E+02  0.17413378430E+03  0.18198892890E+03  0.00000000000E+00 0.  1.
         21    1    1    2  503  502  0.41524932332E+02 -0.16161158902E+01 -0.56791610633E+02  0.70372003482E+02  0.00000000000E+00 0.  1.
<scales pt_clust_5="13000.00000" pt_clust_6="13000.00000" pt_clust_7="13000.00000" pt_clust_8="13000.00000" pt_clust_9="52.72428" pt_clust_10="41.55637"></scales>
<clustering>
<clus scale="   41.556">  2 10  1 -1</clus>
<clus scale="   52.724">  1  9  2 -1</clus>
<clus scale="   91.313">  7  8 -1 -1</clus>
<clus scale="   93.715">  5  6 -1 -1</clus>
<clus scale="  222.429">  1  7  2 -1</clus>
<clus scale="   41.556">  2  5  1 -1</clus>
</clustering>
</event>
<event>
10    2  0.1133532E-006  0.2702459E+03  0.7546771E-02  0.1101363E+00
         -1   -1    0    0    0  501 -0.00000000000E+00  0.00000000000E+00  0.25386936895E+03  0.25386936895E+03  0.00000000000E+00 0.  1.
          1   -1    0    0  503    0  0.00000000000E+00 -0.00000000000E+00 -0.11826720259E+04  0.11826720259E+04  0.00000000000E+00 0. -1.
         23    2    1    2    0    0 -0.67922827902E+02 -0.21532965523E+03  0.49974661395E+02  0.24948622958E+03  0.93624467935E+02 0.  0.
         23    2    1    2    0    0  0.15357336315E+03  0.36381415951E+03 -0.42287421723E+03  0.58539811089E+03  0.89010247192E+02 0.  0.
        -11    1    4    4    0    0  0.46070093987E+02  0.41287358556E+02 -0.41519279389E+02  0.74504698493E+02  0.00000000000E+00 0. -1.
         11    1    4    4    0    0  0.10750326916E+03  0.32252680095E+03 -0.38135493784E+03  0.51089341239E+03  0.00000000000E+00 0.  1.
        -13    1    3    3    0    0 -0.75557322460E+01 -0.16465949270E+03  0.24414201441E+02  0.16663100209E+03  0.00000000000E+00 0. -1.
         13    1    3    3    0    0 -0.60367095656E+02 -0.50670162528E+02  0.25560459954E+02  0.82855227485E+02  0.00000000000E+00 0.  1.
         21    1    1    2  502  501 -0.44673113431E+02 -0.14627108881E+03 -0.25041979706E+03  0.29342970750E+03  0.00000000000E+00 0. -1.
         21    1    1    2  503  502 -0.40977421817E+02 -0.22134154642E+01 -0.30548330406E+03  0.30822734688E+03  0.00000000000E+00 0.  1.
<scales pt_clust_5="13000.00000" pt_clust_6="13000.00000" pt_clust_7="13000.00000" pt_clust_8="13000.00000" pt_clust_9="157.76891" pt_clust_10="41.03716"></scales>
<clustering>
<clus scale="   41.037">  2 10  1 -1</clus>
<clus scale="   89.010">  5  6 -1 -1</clus>
<clus scale="   93.624">  7  8 -1 -1</clus>
<clus scale="  157.769">  2  9  1 -1</clus>
<clus scale="  268.682">  2  5  1 -1</clus>
<clus scale="   41.037">  2  5  1 -1</clus>
</clustering>
</event>
<event>
10    2  0.1133532E-006  0.2345128E+03  0.7546771E-02  0.1123737E+00
          2   -1    0    0  503    0  0.00000000000E+00  0.00000000000E+00  0.14769258205E+03  0.14769258205E+03  0.00000000000E+00 0. -1.
         -2   -1    0    0    0  501 -0.00000000000E+00 -0.00000000000E+00 -0.84426035533E+03  0.84426035533E+03  0.00000000000E+00 0.  1.
         23    2    1    2    0    0 -0.37214428530E+02 -0.11846516052E+03 -0.35185836200E+03  0.38549934572E+03  0.96884109612E+02 0.  0.
         23    2    1    2    0    0  0.69917703821E+02  0.28368480344E+03 -0.17225239421E+03  0.35183447166E+03  0.93547074366E+02 0.  0.
        -11    1    4    4    0    0  0.47107873821E+02  0.81159683209E+02 -0.95959087099E+02  0.13421696000E+03  0.00000000000E+00 0.  1.
         11    1    4    4    0    0  0.22809830001E+02  0.20252512023E+03 -0.76293307115E+02  0.21761751166E+03  0.00000000000E+00 0. -1.
        -13    1    3    3    0    0 -0.59582324860E+02 -0.12109869423E+03 -0.30320303690E+03  0.33188405922E+03  0.00000000000E+00 0.  1.
         13    1    3    3    0    0  0.22367896330E+02  0.26335337097E+01 -0.48655325100E+02  0.53615286501E+02  0.00000000000E+00 0. -1.
         21    1    1    2  502  501 -0.28808874919E+02 -0.12190946480E+03 -0.16986207299E+03  0.21105684714E+03  0.00000000000E+00 0. -1.
         21    1    1    2  503  502 -0.38944003719E+01 -0.43310178119E+02 -0.25949440700E+01  0.43562272871E+02  0.00000000000E+00 0. -1.
<scales pt_clust_5="13000.00000" pt_clust_6="13000.00000" pt_clust_7="13000.00000" pt_clust_8="13000.00000" pt_clust_9="132.24070" pt_clust_10="43.48492"></scales>
<clustering>
<clus scale="   43.485">  1 10  2 -1</clus>
<clus scale="   93.547">  5  6 -1 -1</clus>
<clus scale="   96.884">  7  8 -1 -1</clus>
<clus scale="  132.241">  2  9  1 -1</clus>
<clus scale="  233.154">  1  5  2 -1</clus>
<clus scale="   43.485">  1  5  2 -1</clus>
</clustering>
</event>
<event>
10    2  0.1133532E-006  0.1664001E+03  0.7546771E-02  0.1207636E+00
          2   -1    0    0  503    0  0.00000000000E+00  0.00000000000E+00  0.29697182790E+03  0.29697182790E+03  0.00000000000E+00 0. -1.
         -2   -1    0    0    0  501 -0.00000000000E+00 -0.00000000000E+00 -0.22152630892E+03  0.22152630892E+03  0.00000000000E+00 0.  1.
         23    2    1    2    0    0  0.21582006533E+01  0.18070175153E+02 -0.15138682159E+02  0.95244387561E+02  0.92255756483E+02 0.  0.
         23    2    1    2    0    0 -0.11283241095E+03  0.28533308791E+02  0.43296196863E+02  0.16037356565E+03  0.10148801519E+03 0.  0.
        -11    1    3    3    0    0 -0.28989220312E+02  0.44058632401E+02 -0.14405396496E+02  0.54672236388E+02  0.00000000000E+00 0.  1.
         11    1    3    3    0    0  0.31147420966E+02 -0.25988457249E+02 -0.73328566280E+00  0.40572151173E+02  0.00000000000E+00 0. -1.
        -13    1    4    4    0    0 -0.75129062134E+02  0.34274821777E+02 -0.21370339410E+02  0.85298480593E+02  0.00000000000E+00 0.  1.
         13    1    4    4    0    0 -0.37703348818E+02 -0.57415129852E+01  0.64666536274E+02  0.75075085062E+02  0.00000000000E+00 0. -1.
         21    1    1    2  502  501 -0.22239182888E+02 -0.96649326270E+00 -0.73982582682E+02  0.77258901785E+02  0.00000000000E+00 0.  1.
         21    1    1    2  503  502  0.13291339319E+03 -0.45636990681E+02  0.12127058695E+03  0.18562128183E+03  0.00000000000E+00 0. -1.
<scales pt_clust_5="13000.00000" pt_clust_6="13000.00000" pt_clust_7="13000.00000" pt_clust_8="13000.00000" pt_clust_9="22.26017" pt_clust_10="131.86799"></scales>
<clustering>
<clus scale="   22.260">  2  9  1 -1</clus>
<clus scale="   92.256">  5  6 -1 -1</clus>
<clus scale="   94.147">  2  5  1 -1</clus>
<clus scale="  101.488">  7  8 -1 -1</clus>
<clus scale="  131.868">  1 10  2 -1</clus>
<clus scale="  131.868">  1  5  2 -1</clus>
</clustering>
</event>
<event>
10    2  0.1133532E-006  0.1838243E+03  0.7546771E-02  0.1172009E+00
          1   -1    0    0  503    0  0.00000000000E+00  0.00000000000E+00  0.51278253028E+03  0.51278253028E+03  0.00000000000E+00 0. -1.
         -1   -1    0    0    0  501 -0.00000000000E+00 -0.00000000000E+00 -0.50386103080E+03  0.50386103080E+03  0.00000000000E+00 0.  1.
         23    2    1    2    0    0  0.10353059045E+03 -0.13325960201E+03 -0.25430891382E+03  0.31867522368E+03  0.91674259499E+02 0.  0.
         23    2    1    2    0    0 -0.10695979072E+03 -0.62347989369E+02  0.37542050307E+03  0.40535680104E+03  0.89699015692E+02 0.  0.
        -11    1    4    4    0    0 -0.55856229047E+02 -0.80349668221E+02  0.26144002677E+03  0.27915385561E+03  0.00000000000E+00 0. -1.
         11    1    4    4    0    0 -0.51103561670E+02  0.18001678852E+02  0.11398047630E+03  0.12620294543E+03  0.00000000000E+00 0.  1.
        -13    1    3    3    0    0  0.39785896513E+02 -0.12023287013E+02 -0.11937060372E+03  0.12639943838E+03  0.00000000000E+00 0.  1.
         13    1    3    3    0    0  0.63744693933E+02 -0.12123631500E+03 -0.13493831010E+03  0.19227578530E+03  0.00000000000E+00 0. -1.
         21    1    1    2  502  501 -0.24691504327E+02  0.15300845524E+01 -0.92234549290E+02  0.95494626171E+02  0.00000000000E+00 0.  1.
         21    1    1    2  503  502  0.28120704598E+02  0.19407750683E+03 -0.19955540485E+02  0.19711691018E+03  0.00000000000E+00 0.  1.
<scales pt_clust_5="13000.00000" pt_clust_6="13000.00000" pt_clust_7="13000.00000" pt_clust_8="13000.00000" pt_clust_9="24.73887" pt_clust_10="159.33359"></scales>
<clustering>
<clus scale="   24.739">  2  9  1 -1</clus>
<clus scale="   89.699">  5  6 -1 -1</clus>
<clus scale="   91.674">  7  8 -1 -1</clus>
<clus scale="  153.494">  1  5  2 -1</clus>
<clus scale="  159.334">  1 10  2 -1</clus>
<clus scale="  153.494">  1  5  2 -1</clus>
</clustering>
</event>
<event>
10    2  0.1133532E-006  0.1049219E+03  0.7546771E-02  0.1271758E+00
         -1   -1    0    0    0  501 -0.00000000000E+00  0.00000000000E+00  0.11717022345E+03  0.11717022345E+03  0.00000000000E+00 0.  1.
          1   -1    0    0  502    0  0.00000000000E+00 -0.00000000000E+00 -0.20336064436E+03  0.20336064436E+03  0.00000000000E+00 0. -1.
         23    2    1    2    0    0 -0.46626485722E+02 -0.49483821270E+02 -0.25124198244E+02  0.11640952105E+03  0.91089371038E+02 0.  0.
         23    2    1    2    0    0  0.49023566674E+01  0.36861165780E+02 -0.77310878250E+02  0.12755580331E+03  0.94396675886E+02 0.  0.
        -13    1    3    3    0    0  0.28679388031E+01 -0.60786236183E+02 -0.24600713712E+02  0.65638302060E+02  0.00000000000E+00 0. -1.
         13    1    3    3    0    0 -0.49494424525E+02  0.11302414913E+02 -0.52348453161E+00  0.50771218993E+02  0.00000000000E+00 0.  1.
        -13    1    4    4    0    0 -0.10910308724E+02 -0.30045955494E+02 -0.17571472570E+02  0.36476717592E+02  0.00000000000E+00 0.  1.
         13    1    4    4    0    0  0.15812665391E+02  0.66907121274E+02 -0.59739405681E+02  0.91079085717E+02  0.00000000000E+00 0. -1.
         21    1    1    2  502  503  0.43419011745E+02  0.32764749962E+02  0.92433653502E+01  0.55174081088E+02  0.00000000000E+00 0. -1.
         21    1    1    2  503  501 -0.16948826899E+01 -0.20142094472E+02  0.70012902393E+01  0.21391462364E+02  0.00000000000E+00 0. -1.
<scales pt_clust_5="13000.00000" pt_clust_6="13000.00000" pt_clust_7="13000.00000" pt_clust_8="13000.00000" pt_clust_9="50.39673" pt_clust_10="20.21328"></scales>
<clustering>
<clus scale="   20.213">  1 10  2 -1</clus>
<clus scale="   50.397">  1  9  2 -1</clus>
<clus scale="   91.089">  5  6 -1 -1</clus>
<clus scale="   94.397">  7  8 -1 -1</clus>
<clus scale="  101.957">  1  5  2 -1</clus>
<clus scale="  104.922">  2  5  1 -1</clus>
</clustering>
</event>
<event>
10    2  0.1133532E-006  0.1763077E+03  0.7546771E-02  0.1171612E+00
          1   -1    0    0  503    0  0.00000000000E+00  0.00000000000E+00  0.46898826092E+03  0.46898826092E+03  0.00000000000E+00 0. -1.
         -1   -1    0    0    0  501 -0.00000000000E+00 -0.00000000000E+00 -0.21641674697E+03  0.21641674697E+03  0.00000000000E+00 0.  1.
         23    2    1    2    0    0 -0.73053478395E+01 -0.81925300076E+02  0.34540120594E+02  0.12822460334E+03  0.92105407398E+02 0.  0.
         23    2    1    2    0    0 -0.28232101937E+02  0.24838861599E+03  0.22454335620E+03  0.34804152351E+03  0.90659953347E+02 0.  0.
        -13    1    4    4    0    0  0.33214296427E+02  0.94723360479E+02  0.81629725470E+02  0.12937973793E+03  0.00000000000E+00 0.  1.
         13    1    4    4    0    0 -0.61446398364E+02  0.15366525551E+03  0.14291363073E+03  0.21866178558E+03  0.00000000000E+00 0. -1.
        -13    1    3    3    0    0 -0.48013466746E+02 -0.53982119873E+02  0.95147444640E+01  0.72869009991E+02  0.00000000000E+00 0. -1.
         13    1    3    3    0    0  0.40708118906E+02 -0.27943180204E+02  0.25025376130E+02  0.55355593351E+02  0.00000000000E+00 0.  1.
         21    1    1    2  502  501  0.59014733756E+01 -0.94209798394E+02 -0.62356587869E+02  0.11313115200E+03  0.00000000000E+00 0.  1.
         21    1    1    2  503  502  0.29635976401E+02 -0.72253517520E+02  0.55844625025E+02  0.96007729041E+02  0.00000000000E+00 0.  1.
<scales pt_clust_5="13000.00000" pt_clust_6="13000.00000" pt_clust_7="13000.00000" pt_clust_8="13000.00000" pt_clust_9="99.18495" pt_clust_10="78.09521"></scales>
<clustering>
<clus scale="   78.095">  1 10  2 -1</clus>
<clus scale="   90.660">  5  6 -1 -1</clus>
<clus scale="   92.105">  7  8 -1 -1</clus>
<clus scale="   99.185">  2  9  1 -1</clus>
<clus scale="  175.557">  1  5  2 -1</clus>
<clus scale="   78.095">  1  5  2 -1</clus>
</clustering>
</event>
<event>
10    2  0.1133532E-006  0.9316807E+02  0.7546771E-02  0.1296065E+00
          2   -1    0    0  503    0  0.00000000000E+00  0.00000000000E+00  0.25698875647E+03  0.25698875647E+03  0.00000000000E+00 0. -1.
         -2   -1    0    0    0  501 -0.00000000000E+00 -0.00000000000E+00 -0.17569931847E+03  0.17569931847E+03  0.00000000000E+00 0.  1.
         23    2    1    2    0    0 -0.17149747467E+02 -0.20898808160E+02 -0.41968939079E+02  0.10497275136E+03  0.92341825089E+02 0.  0.
         23    2    1    2    0    0  0.45447301089E+01  0.18056194777E+02  0.15030978640E+03  0.17675183469E+03  0.91112559167E+02 0.  0.
        -11    1    3    3    0    0 -0.39836131232E+02  0.75509998707E+00 -0.57516331350E+02  0.69968677989E+02  0.00000000000E+00 0.  1.
         11    1    3    3    0    0  0.22686383766E+02 -0.21653908147E+02  0.15547392271E+02  0.35004073375E+02  0.00000000000E+00 0. -1.
        -11    1    4    4    0    0 -0.28825777504E+02 -0.10922435609E+02  0.14757139932E+02  0.34175989046E+02  0.00000000000E+00 0. -1.
         11    1    4    4    0    0  0.33370507613E+02  0.28978630386E+02  0.13555264646E+03  0.14257584564E+03  0.00000000000E+00 0.  1.
         21    1    1    2  502  501  0.46770918646E+01  0.26024777590E+02 -0.84483030465E+02  0.88524271663E+02  0.00000000000E+00 0.  1.
         21    1    1    2  503  502  0.79279254932E+01 -0.23182164208E+02  0.57431621147E+02  0.62439217224E+02  0.00000000000E+00 0.  1.
<scales pt_clust_5="13000.00000" pt_clust_6="13000.00000" pt_clust_7="13000.00000" pt_clust_8="13000.00000" pt_clust_9="26.22241" pt_clust_10="24.50030"></scales>
<clustering>
<clus scale="   24.500">  1 10  2 -1</clus>
<clus scale="   26.222">  2  9  1 -1</clus>
<clus scale="   91.113">  7  8 -1 -1</clus>
<clus scale="   91.950">  1  7  2 -1</clus>
<clus scale="   92.342">  5  6 -1 -1</clus>
<clus scale="   24.500">  1  5  2 -1</clus>
</clustering>
</event>
<event>
10    2  0.1133532E-006  0.9576305E+02  0.7546771E-02  0.1290194E+00
         -3   -1    0    0    0  501 -0.00000000000E+00  0.00000000000E+00  0.14037844053E+03  0.14037844053E+03  0.00000000000E+00 0.  1.
          3   -1    0    0  503    0  0.00000000000E+00 -0.00000000000E+00 -0.15898936314E+03  0.15898936314E+03  0.00000000000E+00 0. -1.
         23    2    1    2    0    0  0.41369579873E+01  0.14599130879E+02  0.45890876355E+02  0.10456175007E+03  0.92719674296E+02 0.  0.
         23    2    1    2    0    0 -0.43538020334E+02  0.67781411745E+01 -0.31143978762E+02  0.10612147645E+03  0.91380074073E+02 0.  0.
        -13    1    4    4    0    0 -0.48945515074E+01 -0.24449851107E+02 -0.47639582494E+02  0.53770639515E+02  0.00000000000E+00 0. -1.
         13    1    4    4    0    0 -0.38643468827E+02  0.31227992282E+02  0.16495603732E+02  0.52350836931E+02  0.00000000000E+00 0.  1.
        -13    1    3    3    0    0 -0.82545709252E+01  0.52363032365E+02  0.34384184999E+02  0.63184628492E+02  0.00000000000E+00 0.  1.
         13    1    3    3    0    0  0.12391528913E+02 -0.37763901486E+02  0.11506691356E+02  0.41377121580E+02  0.00000000000E+00 0. -1.
         21    1    1    2  502  501  0.19574138422E+02 -0.18239085161E+02  0.18864843200E+02  0.32736729089E+02  0.00000000000E+00 0.  1.
         21    1    1    2  503  502  0.19826923925E+02 -0.31381868926E+01 -0.52222663406E+02  0.55947848060E+02  0.00000000000E+00 0.  1.
<scales pt_clust_5="13000.00000" pt_clust_6="13000.00000" pt_clust_7="13000.00000" pt_clust_8="13000.00000" pt_clust_9="27.86504" pt_clust_10="20.07374"></scales>
<clustering>
<clus scale="   20.074">  2 10  1 -1</clus>
<clus scale="   27.865">  1  9  2 -1</clus>
<clus scale="   91.380">  5  6 -1 -1</clus>
<clus scale="   92.720">  7  8 -1 -1</clus>
<clus scale="   94.467">  2  5  1 -1</clus>
<clus scale="   20.074">  2  5  1 -1</clus>
</clustering>
</event>
<event>
10    2  0.1133532E-006  0.1065105E+03  0.7546771E-02  0.1268426E+00
         -2   -1    0    0    0  501 -0.00000000000E+00  0.00000000000E+00  0.12970580890E+03  0.12970580890E+03  0.00000000000E+00 0.  1.
          2   -1    0    0  503    0  0.00000000000E+00 -0.00000000000E+00 -0.58286870553E+03  0.58286870553E+03  0.00000000000E+00 0. -1.
         23    2    1    2    0    0 -0.58213905004E+02  0.32837674655E+02 -0.35157013137E+02  0.11996998098E+03  0.93218073094E+02 0.  0.
         23    2    1    2    0    0 -0.35564150795E+01 -0.16563296946E+02 -0.25528239721E+03  0.27130574436E+03  0.90281303185E+02 0.  0.
        -11    1    3    3    0    0 -0.24105417175E+02 -0.32773588934E+02 -0.14512844271E+02  0.43194929305E+02  0.00000000000E+00 0. -1.
         11    1    3    3    0    0 -0.34108487829E+02  0.65611263589E+02 -0.20644168866E+02  0.76775051676E+02  0.00000000000E+00 0.  1.
        -13    1    4    4    0    0 -0.46619994295E+02 -0.12997606041E+02 -0.12488228765E+03  0.13393262262E+03  0.00000000000E+00 0.  1.
         13    1    4    4    0    0  0.43063579215E+02 -0.35656909043E+01 -0.13040010955E+03  0.13737312174E+03  0.00000000000E+00 0. -1.
         21    1    1    2  502  501  0.51927043169E+02  0.40597693940E+02  0.61267790924E+02  0.89990737135E+02  0.00000000000E+00 0.  1.
         21    1    1    2  503  502  0.98432769149E+01 -0.56872071649E+02 -0.22399127721E+03  0.23130805196E+03  0.00000000000E+00 0. -1.
<scales pt_clust_5="13000.00000" pt_clust_6="13000.00000" pt_clust_7="13000.00000" pt_clust_8="13000.00000" pt_clust_9="64.84343" pt_clust_10="57.71761"></scales>
<clustering>
<clus scale="   57.718">  2 10  1 -1</clus>
<clus scale="   64.843">  1  9  2 -1</clus>
<clus scale="   90.281">  7  8 -1 -1</clus>
<clus scale="   93.218">  5  6 -1 -1</clus>
<clus scale="  103.950">  2  7  1 -1</clus>
<clus scale="   57.718">  2  5  1 -1</clus>
</clustering>
</event>
<event>
10    2  0.1133532E-006  0.1043682E+03  0.7546771E-02  0.1273477E+00
         -1   -1    0    0    0  501 -0.00000000000E+00  0.00000000000E+00  0.34105289674E+03  0.34105289674E+03  0.00000000000E+00 0.  1.
          1   -1    0    0  503    0  0.00000000000E+00 -0.00000000000E+00 -0.15960735852E+03  0.15960735852E+03  0.00000000000E+00 0. -1.
         23    2    1    2    0    0  0.40220601222E+02 -0.49784863709E+01  0.10326238487E+03  0.14695979241E+03  0.96392833593E+02 0.  0.
         23    2    1    2    0    0  0.54876207769E+02  0.83690205526E+01 -0.92445666740E+02  0.14166756000E+03  0.91880670291E+02 0.  0.
        -11    1    4    4    0    0  0.78163615966E+02  0.48915118434E+01 -0.87826433485E+02  0.11767310724E+03  0.00000000000E+00 0. -1.
         11    1    4    4    0    0 -0.23287408197E+02  0.34775087092E+01 -0.46192332551E+01  0.23994452759E+02  0.00000000000E+00 0.  1.
        -11    1    3    3    0    0  0.11481754366E+00 -0.46471963296E+02  0.52377006388E+02  0.70021477804E+02  0.00000000000E+00 0.  1.
         11    1    3    3    0    0  0.40105783678E+02  0.41493476926E+02  0.50885378483E+02  0.76938314611E+02  0.00000000000E+00 0. -1.
         21    1    1    2  502  501 -0.13394751521E+02 -0.22396579882E+02  0.96901528241E+02  0.10035403497E+03  0.00000000000E+00 0.  1.
         21    1    1    2  503  502 -0.81702057470E+02  0.19006045700E+02  0.73727291852E+02  0.11167886788E+03  0.00000000000E+00 0.  1.
<scales pt_clust_5="13000.00000" pt_clust_6="13000.00000" pt_clust_7="13000.00000" pt_clust_8="13000.00000" pt_clust_9="26.09648" pt_clust_10="87.44980"></scales>
<clustering>
<clus scale="   26.096">  1  9  2 -1</clus>
<clus scale="   87.450">  1 10  2 -1</clus>
<clus scale="   91.881">  5  6 -1 -1</clus>
<clus scale="   96.393">  7  8 -1 -1</clus>
<clus scale="  100.216">  2  5  1 -1</clus>
<clus scale="  100.216">  2  5  1 -1</clus>
</clustering>
</event>
<event>
10    2  0.1133532E-006  0.9733521E+02  0.7546771E-02  0.1286044E+00
         -1   -1    0    0    0  501 -0.00000000000E+00  0.00000000000E+00  0.16124964806E+03  0.16124964806E+03  0.00000000000E+00 0.  1.
          1   -1    0    0  503    0  0.00000000000E+00 -0.00000000000E+00 -0.15844062899E+03  0.15844062899E+03  0.00000000000E+00 0. -1.
         23    2    1    2    0    0 -0.44501993310E+02  0.35715500363E+02  0.65299320571E+02  0.12590583156E+03  0.91281174281E+02 0.  0.
         23    2    1    2    0    0 -0.97053008410E+01 -0.21959618518E+02 -0.40205324425E+02  0.10266589492E+03  0.91364107603E+02 0.  0.
        -13    1    3    3    0    0 -0.19188456259E+01  0.58504249487E+02  0.28031666397E+02  0.64901490719E+02  0.00000000000E+00 0. -1.
         13    1    3    3    0    0 -0.42583147685E+02 -0.22788749124E+02  0.37267654174E+02  0.61004340837E+02  0.00000000000E+00 0.  1.
        -13    1    4    4    0    0 -0.86025800371E+01 -0.49185589039E+02  0.46864862656E+01  0.50151667030E+02  0.00000000000E+00 0.  1.
         13    1    4    4    0    0 -0.11027208038E+01  0.27225970521E+02 -0.44891810691E+02  0.52514227892E+02  0.00000000000E+00 0. -1.
         21    1    1    2  502  501  0.27457059331E+02 -0.48472125835E+01  0.24088809995E+02  0.36846388478E+02  0.00000000000E+00 0.  1.
         21    1    1    2  503  502  0.26750234821E+02 -0.89086692609E+01 -0.46373787067E+02  0.54272162090E+02  0.00000000000E+00 0. -1.
<scales pt_clust_5="13000.00000" pt_clust_6="13000.00000" pt_clust_7="13000.00000" pt_clust_8="13000.00000" pt_clust_9="27.88164" pt_clust_10="29.02782"></scales>
<clustering>
<clus scale="   27.882">  1  9  2 -1</clus>
<clus scale="   29.028">  2 10  1 -1</clus>
<clus scale="   91.281">  5  6 -1 -1</clus>
<clus scale="   91.364">  7  8 -1 -1</clus>
<clus scale="   97.257">  1  5  2 -1</clus>
<clus scale="   29.028">  2  5  1 -1</clus>
</clustering>
</event>
<event>
10    2  0.1133532E-006  0.1177061E+03  0.7546771E-02  0.1253126E+00
         -1   -1    0    0    0  501 -0.00000000000E+00  0.00000000000E+00  0.28102387568E+03  0.28102387568E+03  0.00000000000E+00 0.  1.
          1   -1    0    0  503    0  0.00000000000E+00 -0.00000000000E+00 -0.24017838936E+03  0.24017838936E+03  0.00000000000E+00 0. -1.
         23    2    1    2    0    0  0.27578693408E+02 -0.16662558653E+02  0.86211089894E+02  0.14110078346E+03  0.10695257773E+03 0.  0.
         23    2    1    2    0    0 -0.16459574379E+02 -0.52362414508E+02 -0.43297176204E+02  0.11527356749E+03  0.91654840863E+02 0.  0.
        -11    1    4    4    0    0  0.33329168095E+02 -0.20330294039E+02 -0.40128243373E+02  0.55985982333E+02  0.00000000000E+00 0.  1.
         11    1    4    4    0    0 -0.49788742474E+02 -0.32032120470E+02 -0.31689328310E+01  0.59287585161E+02  0.00000000000E+00 0. -1.
        -11    1    3    3    0    0 -0.32317791246E+02  0.21840621241E+02  0.19846508759E+02  0.43764555032E+02  0.00000000000E+00 0. -1.
         11    1    3    3    0    0  0.59896484655E+02 -0.38503179895E+02  0.66364581134E+02  0.97336228431E+02  0.00000000000E+00 0.  1.
         21    1    1    2  502  501 -0.89716784625E+01  0.98592111123E+02  0.11053496574E+03  0.14838758048E+03  0.00000000000E+00 0.  1.
         21    1    1    2  503  502 -0.21474405664E+01 -0.29567137962E+02 -0.11260339311E+03  0.11644033360E+03  0.00000000000E+00 0. -1.
<scales pt_clust_5="13000.00000" pt_clust_6="13000.00000" pt_clust_7="13000.00000" pt_clust_8="13000.00000" pt_clust_9="94.59651" pt_clust_10="29.64502"></scales>
<clustering>
<clus scale="   29.645">  2 10  1 -1</clus>
<clus scale="   91.655">  5  6 -1 -1</clus>
<clus scale="   94.597">  1  9  2 -1</clus>
<clus scale="  104.002">  2  5  1 -1</clus>
<clus scale="  106.953">  7  8 -1 -1</clus>
<clus scale="   29.645">  2  5  1 -1</clus>
</clustering>
</event>
<event>
10    2  0.1133532E-006  0.9680410E+02  0.7546771E-02  0.1288115E+00
          1   -1    0    0  503    0  0.00000000000E+00  0.00000000000E+00  0.79024935331E+03  0.79024935331E+03  0.00000000000E+00 0. -1.
         -1   -1    0    0    0  501 -0.00000000000E+00 -0.00000000000E+00 -0.40281632845E+02  0.40281632845E+02  0.00000000000E+00 0.  1.
         23    2    1    2    0    0  0.55915456967E+02  0.31497228138E+02  0.33695502828E+03  0.35494697888E+03  0.91269124188E+02 0.  0.
         23    2    1    2    0    0  0.65908031761E+01 -0.19982774891E+02  0.27336508266E+03  0.28839569993E+03  0.89447534010E+02 0.  0.
        -11    1    3    3    0    0  0.15786649329E+02  0.51000551186E+02  0.26467050096E+03  0.27000138629E+03  0.00000000000E+00 0. -1.
         11    1    3    3    0    0  0.40128807638E+02 -0.19503323048E+02  0.72284527317E+02  0.84945592598E+02  0.00000000000E+00 0.  1.
        -11    1    4    4    0    0 -0.11426474938E+02 -0.53014300186E+02  0.16509130940E+03  0.17377059818E+03  0.00000000000E+00 0.  1.
         11    1    4    4    0    0  0.18017278114E+02  0.33031525295E+02  0.10827377327E+03  0.11462510175E+03  0.00000000000E+00 0. -1.
         21    1    1    2  502  501 -0.65496885528E+02 -0.32824354407E+02  0.36557596428E+02  0.81876358692E+02  0.00000000000E+00 0.  1.
         21    1    1    2  503  502  0.29906253848E+01  0.21309901160E+02  0.10309001310E+03  0.10531194865E+03  0.00000000000E+00 0. -1.
<scales pt_clust_5="13000.00000" pt_clust_6="13000.00000" pt_clust_7="13000.00000" pt_clust_8="13000.00000" pt_clust_9="72.22300" pt_clust_10="21.51873"></scales>
<clustering>
<clus scale="   21.519">  1 10  2 -1</clus>
<clus scale="   72.223">  2  9  1 -1</clus>
<clus scale="   89.448">  7  8 -1 -1</clus>
<clus scale="   91.269">  5  6 -1 -1</clus>
<clus scale="   95.089">  1  7  2 -1</clus>
<clus scale="   21.519">  1  5  2 -1</clus>
</clustering>
</event>
<event>
10    2  0.1133532E-006  0.1338566E+03  0.7546771E-02  0.1237624E+00
          1   -1    0    0  503    0  0.00000000000E+00  0.00000000000E+00  0.83905672407E+03  0.83905672407E+03  0.00000000000E+00 0. -1.
         -1   -1    0    0    0  501 -0.00000000000E+00 -0.00000000000E+00 -0.22333813733E+03  0.22333813733E+03  0.00000000000E+00 0.  1.
         23    2    1    2    0    0 -0.32720645759E+02  0.18826230179E+02  0.81239274699E+01  0.99366778563E+02  0.91557036228E+02 0.  0.
         23    2    1    2    0    0 -0.13010676490E+03 -0.61079203281E+02  0.63292091932E+03  0.65516477006E+03  0.89406635452E+02 0.  0.
        -11    1    3    3    0    0 -0.55312031611E+01  0.39811621131E+02 -0.28411821560E+02  0.49221854799E+02  0.00000000000E+00 0. -1.
         11    1    3    3    0    0 -0.27189442598E+02 -0.20985390952E+02  0.36535749030E+02  0.50144923764E+02  0.00000000000E+00 0.  1.
        -11    1    4    4    0    0 -0.20469497523E+02  0.77430997296E+01  0.23358683097E+02  0.32009123673E+02  0.00000000000E+00 0.  1.
         11    1    4    4    0    0 -0.10963726738E+03 -0.68822303010E+02  0.60956223623E+03  0.62315564639E+03  0.00000000000E+00 0. -1.
         21    1    1    2  502  501  0.72885785508E+02  0.70867095861E+02 -0.13123345748E+03  0.16600211857E+03  0.00000000000E+00 0.  1.
         21    1    1    2  503  502  0.89941625150E+02 -0.28614122760E+02  0.10590719744E+03  0.14186119422E+03  0.00000000000E+00 0.  1.
<scales pt_clust_5="13000.00000" pt_clust_6="13000.00000" pt_clust_7="13000.00000" pt_clust_8="13000.00000" pt_clust_9="99.61953" pt_clust_10="94.38360"></scales>
<clustering>
<clus scale="   89.407">  7  8 -1 -1</clus>
<clus scale="   91.557">  5  6 -1 -1</clus>
<clus scale="   94.384">  1 10  2 -1</clus>
<clus scale="   96.617">  2  5  1 -1</clus>
<clus scale="   99.620">  2  9  1 -1</clus>
<clus scale="   94.384">  1  5  2 -1</clus>
</clustering>
</event>
<event>
10    2  0.1133532E-006  0.1450758E+03  0.7546771E-02  0.1226293E+00
         -1   -1    0    0    0  501 -0.00000000000E+00  0.00000000000E+00  0.27571564682E+02  0.27571564682E+02  0.00000000000E+00 0.  1.
          1   -1    0    0  503    0  0.00000000000E+00 -0.00000000000E+00 -0.17706409845E+04  0.17706409845E+04  0.00000000000E+00 0. -1.
         23    2    1    2    0    0 -0.35067066794E+02 -0.14971699764E+02 -0.27794609587E+03  0.29268235951E+03  0.83397124616E+02 0.  0.
         23    2    1    2    0    0 -0.33923412940E+02  0.11164642228E+03 -0.51765004583E+03  0.53838189159E+03  0.90982249351E+02 0.  0.
        -13    1    3    3    0    0  0.13560624696E+02 -0.19106588658E+02 -0.22049114844E+02  0.32173214600E+02  0.00000000000E+00 0.  1.
         13    1    3    3    0    0 -0.48627691490E+02  0.41348888941E+01 -0.25589698103E+03  0.26050914491E+03  0.00000000000E+00 0. -1.
        -13    1    4    4    0    0  0.25248495033E+02  0.37100376995E+02 -0.25721968837E+03  0.26110513698E+03  0.00000000000E+00 0.  1.
         13    1    4    4    0    0 -0.59171907973E+02  0.74546045289E+02 -0.26043035746E+03  0.27727675461E+03  0.00000000000E+00 0. -1.
         21    1    1    2  502  501 -0.19289944888E+02 -0.20646964416E+02 -0.26187701672E+02  0.38525249282E+02  0.00000000000E+00 0. -1.
         21    1    1    2  503  502  0.88280424622E+02 -0.76027758104E+02 -0.92128557642E+03  0.92862304876E+03  0.00000000000E+00 0.  1.
<scales pt_clust_5="13000.00000" pt_clust_6="13000.00000" pt_clust_7="13000.00000" pt_clust_8="13000.00000" pt_clust_9="28.25596" pt_clust_10="113.00103"></scales>
<clustering>
<clus scale="   28.256">  1  9  2 -1</clus>
<clus scale="   83.397">  5  6 -1 -1</clus>
<clus scale="   90.982">  7  8 -1 -1</clus>
<clus scale="   95.823">  1  5  2 -1</clus>
<clus scale="  113.001">  2 10  1 -1</clus>
<clus scale="  113.001">  2  5  1 -1</clus>
</clustering>
</event>
<event>
10    2  0.1133532E-006  0.1075182E+03  0.7546771E-02  0.1265683E+00
          2   -1    0    0  503    0  0.00000000000E+00  0.00000000000E+00  0.45561807268E+03  0.45561807268E+03  0.00000000000E+00 0. -1.
         -2   -1    0    0    0  501 -0.00000000000E+00 -0.00000000000E+00 -0.78144235645E+02  0.78144235645E+02  0.00000000000E+00 0.  1.
         23    2    1    2    0    0  0.58067474646E+01  0.33229894163E+02  0.84820059056E+02  0.12921980432E+03  0.91462403357E+02 0.  0.
         23    2    1    2    0    0 -0.55854800901E+02 -0.74036300849E+02  0.21955851201E+03  0.25489794527E+03  0.90365312369E+02 0.  0.
        -11    1    4    4    0    0 -0.39777108106E+02 -0.64978092603E+01  0.15478973590E+03  0.15995093684E+03  0.00000000000E+00 0.  1.
         11    1    4    4    0    0 -0.16077692795E+02 -0.67538491588E+02  0.64768776104E+02  0.94947008429E+02  0.00000000000E+00 0. -1.
        -11    1    3    3    0    0  0.34966775618E+02  0.17650759995E+02  0.10737257776E+01  0.39183894812E+02  0.00000000000E+00 0.  1.
         11    1    3    3    0    0 -0.29160028154E+02  0.15579134168E+02  0.83746333278E+02  0.90035909508E+02  0.00000000000E+00 0. -1.
         21    1    1    2  502  501  0.16295393661E+02  0.13348281435E+02 -0.30623593513E+02  0.37168816923E+02  0.00000000000E+00 0.  1.
         21    1    1    2  503  502  0.33752659775E+02  0.27458125251E+02  0.10371885949E+03  0.11247574182E+03  0.00000000000E+00 0.  1.
<scales pt_clust_5="13000.00000" pt_clust_6="13000.00000" pt_clust_7="13000.00000" pt_clust_8="13000.00000" pt_clust_9="21.06458" pt_clust_10="45.59519"></scales>
<clustering>
<clus scale="   21.065">  2  9  1 -1</clus>
<clus scale="   45.595">  1 10  2 -1</clus>
<clus scale="   90.365">  5  6 -1 -1</clus>
<clus scale="   91.462">  7  8 -1 -1</clus>
<clus scale="  106.587">  1  5  2 -1</clus>
<clus scale="   45.595">  1  5  2 -1</clus>
</clustering>
</event>
<event>
10    2  0.1133532E-006  0.2725383E+03  0.7546771E-02  0.1100071E+00
          1   -1    0    0  503    0  0.00000000000E+00  0.00000000000E+00  0.85088681393E+03  0.85088681393E+03  0.00000000000E+00 0. -1.
         -1   -1    0    0    0  501 -0.00000000000E+00 -0.00000000000E+00 -0.15420349270E+03  0.15420349270E+03  0.00000000000E+00 0.  1.
         23    2    1    2    0    0  0.16848066878E+03 -0.16387511639E+03  0.12387679103E+03  0.27972769805E+03  0.87529059046E+02 0.  0.
         23    2    1    2    0    0 -0.11866247650E+03  0.24211331205E+03  0.40909524455E+03  0.49862059735E+03  0.92541567908E+02 0.  0.
        -11    1    4    4    0    0 -0.31082694931E+02  0.20324001996E+02  0.11002654364E+03  0.11612510188E+03  0.00000000000E+00 0.  1.
         11    1    4    4    0    0 -0.87579781570E+02  0.22178931005E+03  0.29906870091E+03  0.38249549547E+03  0.00000000000E+00 0. -1.
        -13    1    3    3    0    0  0.44579695687E+02 -0.10406559259E+03  0.54713481584E+02  0.12574005685E+03  0.00000000000E+00 0. -1.
         13    1    3    3    0    0  0.12390097309E+03 -0.59809523798E+02  0.69163309443E+02  0.15398764120E+03  0.00000000000E+00 0.  1.
         21    1    1    2  502  501 -0.23170783457E+02 -0.75203682863E+02  0.20881043010E+02  0.81415582534E+02  0.00000000000E+00 0. -1.
         21    1    1    2  503  502 -0.26647408818E+02 -0.30345127939E+01  0.14283024264E+03  0.14532642870E+03  0.00000000000E+00 0. -1.
<scales pt_clust_5="13000.00000" pt_clust_6="13000.00000" pt_clust_7="13000.00000" pt_clust_8="13000.00000" pt_clust_9="79.48985" pt_clust_10="26.81963"></scales>
<clustering>
<clus scale="   26.820">  1 10  2 -1</clus>
<clus scale="   79.490">  2  9  1 -1</clus>
<clus scale="   87.529">  7  8 -1 -1</clus>
<clus scale="   92.542">  5  6 -1 -1</clus>
<clus scale="  270.877">  2  7  1 -1</clus>
<clus scale="   26.820">  1  5  2 -1</clus>
</clustering>
</event>
<event>
10    2  0.1133532E-006  0.1107028E+03  0.7546771E-02  0.1259406E+00
          2   -1    0    0  503    0  0.00000000000E+00  0.00000000000E+00  0.12810505894E+03  0.12810505894E+03  0.00000000000E+00 0. -1.
         -2   -1    0    0    0  501 -0.00000000000E+00 -0.00000000000E+00 -0.29892432412E+03  0.29892432412E+03  0.00000000000E+00 0.  1.
         23    2    1    2    0    0  0.70921662567E+02  0.39784641948E+02 -0.17149783617E+03  0.21015786640E+03  0.90233702378E+02 0.  0.
         23    2    1    2    0    0 -0.48441807153E+02 -0.32066295521E+02  0.60136273580E+02  0.12327649765E+03  0.90586243346E+02 0.  0.
        -11    1    4    4    0    0  0.19518694961E+02 -0.84157451622E+01  0.44965778958E+02  0.49736560968E+02  0.00000000000E+00 0.  1.
         11    1    4    4    0    0 -0.67960502114E+02 -0.23650550359E+02  0.15170494622E+02  0.73539936680E+02  0.00000000000E+00 0. -1.
        -13    1    3    3    0    0  0.87883760846E+02  0.23330159340E+02 -0.15963670337E+03  0.18371643590E+03  0.00000000000E+00 0.  1.
         13    1    3    3    0    0 -0.16962098280E+02  0.16454482608E+02 -0.11861132793E+02  0.26441430504E+02  0.00000000000E+00 0. -1.
         21    1    1    2  502  501 -0.87308511766E+01 -0.35183212202E+02 -0.49405215911E+02  0.61277741002E+02  0.00000000000E+00 0.  1.
         21    1    1    2  503  502 -0.13749004237E+02  0.27464865775E+02 -0.10052486685E+02  0.32317278012E+02  0.00000000000E+00 0. -1.
<scales pt_clust_5="13000.00000" pt_clust_6="13000.00000" pt_clust_7="13000.00000" pt_clust_8="13000.00000" pt_clust_9="35.08022" pt_clust_10="30.71407"></scales>
<clustering>
<clus scale="   30.714">  1 10  2 -1</clus>
<clus scale="   35.080">  2  9  1 -1</clus>
<clus scale="   90.234">  7  8 -1 -1</clus>
<clus scale="   90.586">  5  6 -1 -1</clus>
<clus scale="  110.414">  2  7  1 -1</clus>
<clus scale="   30.714">  1  5  2 -1</clus>
</clustering>
</event>
<event>
10    2  0.1133532E-006  0.9420671E+02  0.7546771E-02  0.1294439E+00
          1   -1    0    0  503    0  0.00000000000E+00  0.00000000000E+00  0.22299467804E+03  0.22299467804E+03  0.00000000000E+00 0. -1.
         -1   -1    0    0    0  501 -0.00000000000E+00 -0.00000000000E+00 -0.25149814810E+03  0.25149814810E+03  0.00000000000E+00 0.  1.
         23    2    1    2    0    0  0.16702059211E+02  0.11639342183E+02 -0.37020630569E+02  0.10044362974E+03  0.91126080783E+02 0.  0.
         23    2    1    2    0    0  0.10976270593E+02  0.13512062907E+02  0.79445610214E+01  0.95612698229E+02  0.93678266704E+02 0.  0.
        -11    1    4    4    0    0  0.48548764597E+02 -0.19721003994E+01 -0.12429392754E+02  0.50153380027E+02  0.00000000000E+00 0.  1.
         11    1    4    4    0    0 -0.37572494004E+02  0.15484163306E+02  0.20373953775E+02  0.45459318202E+02  0.00000000000E+00 0. -1.
        -13    1    3    3    0    0  0.84291926213E+00 -0.26670882117E+02  0.17527512825E+02  0.31925854281E+02  0.00000000000E+00 0. -1.
         13    1    3    3    0    0  0.15859139949E+02  0.38310224300E+02 -0.54548143394E+02  0.68517775457E+02  0.00000000000E+00 0.  1.
         21    1    1    2  502  501 -0.22898362348E+01  0.34213076953E+02 -0.12910152021E+03  0.13357761977E+03  0.00000000000E+00 0.  1.
         21    1    1    2  503  502 -0.25388493570E+02 -0.59364482043E+02  0.12967411969E+03  0.14485887840E+03  0.00000000000E+00 0. -1.
<scales pt_clust_5="13000.00000" pt_clust_6="13000.00000" pt_clust_7="13000.00000" pt_clust_8="13000.00000" pt_clust_9="34.28962" pt_clust_10="62.64256"></scales>
<clustering>
<clus scale="   34.290">  2  9  1 -1</clus>
<clus scale="   62.643">  1 10  2 -1</clus>
<clus scale="   91.126">  7  8 -1 -1</clus>
<clus scale="   91.669">  2  7  1 -1</clus>
<clus scale="   93.678">  5  6 -1 -1</clus>
<clus scale="   62.643">  1  5  2 -1</clus>
</clustering>
</event>
<event>
10    2  0.1133532E-006  0.1441417E+03  0.7546771E-02  0.1209031E+00
          4   -1    0    0  503    0  0.00000000000E+00  0.00000000000E+00  0.22090601113E+03  0.22090601113E+03  0.00000000000E+00 0. -1.
         -4   -1    0    0    0  501 -0.00000000000E+00 -0.00000000000E+00 -0.38738003396E+03  0.38738003396E+03  0.00000000000E+00 0.  1.
         23    2    1    2    0    0  0.10526729982E+03 -0.34536375069E+02 -0.28327512704E+03  0.31581858514E+03  0.84985972395E+02 0.  0.
         23    2    1    2    0    0 -0.93872901135E+02  0.88111951014E+02  0.23182563311E+02  0.15921766537E+03  0.90757899078E+02 0.  0.
        -11    1    4    4    0    0 -0.30296347060E+02 -0.13470468930E+02 -0.10426326755E+02  0.34756732700E+02  0.00000000000E+00 0.  1.
         11    1    4    4    0    0 -0.63576554075E+02  0.10158241994E+03  0.33608890065E+02  0.12446093267E+03  0.00000000000E+00 0. -1.
        -13    1    3    3    0    0  0.26086209834E+02 -0.51429708566E+02 -0.99577052683E+02  0.11506995563E+03  0.00000000000E+00 0.  1.
         13    1    3    3    0    0  0.79181089987E+02  0.16893333497E+02 -0.18369807436E+03  0.20074862951E+03  0.00000000000E+00 0. -1.
         21    1    1    2  502  501  0.10092715462E+02 -0.53253698364E+02  0.22033733868E+02  0.58509014032E+02  0.00000000000E+00 0.  1.
         21    1    1    2  503  502 -0.21487114148E+02 -0.32187758052E+00  0.71584807030E+02  0.74740780549E+02  0.00000000000E+00 0.  1.
<scales pt_clust_5="13000.00000" pt_clust_6="13000.00000" pt_clust_7="13000.00000" pt_clust_8="13000.00000" pt_clust_9="53.50935" pt_clust_10="21.48952"></scales>
<clustering>
<clus scale="   21.490">  1 10  2 -1</clus>
<clus scale="   53.509">  1  9  2 -1</clus>
<clus scale="   84.986">  7  8 -1 -1</clus>
<clus scale="   90.758">  5  6 -1 -1</clus>
<clus scale="  140.579">  2  7  1 -1</clus>
<clus scale="   21.490">  1  5  2 -1</clus>
</clustering>
</event>
<event>
10    2  0.1133532E-006  0.1935960E+03  0.7546771E-02  0.1185293E+00
          1   -1    0    0  503    0  0.00000000000E+00  0.00000000000E+00  0.85103456870E+03  0.85103456870E+03  0.00000000000E+00 0. -1.
         -1   -1    0    0    0  501 -0.00000000000E+00 -0.00000000000E+00 -0.32539028971E+03  0.32539028971E+03  0.00000000000E+00 0.  1.
         23    2    1    2    0    0  0.30612395037E+02 -0.47469973471E+01  0.20954816553E+02  0.10053375285E+03  0.93318156919E+02 0.  0.
         23    2    1    2    0    0  0.80971959549E+02 -0.15016300461E+03  0.71672816433E+03  0.74204158609E+03  0.88436800862E+02 0.  0.
        -13    1    4    4    0    0 -0.26620966504E+01 -0.82752668733E+02  0.36517347210E+03  0.37444192563E+03  0.00000000000E+00 0.  1.
         13    1    4    4    0    0  0.83634056199E+02 -0.67410335878E+02  0.35155469223E+03  0.36759966046E+03  0.00000000000E+00 0. -1.
        -13    1    3    3    0    0  0.35227206725E+02  0.18884687340E+02 -0.26057929538E+02  0.47713763229E+02  0.00000000000E+00 0. -1.
         13    1    3    3    0    0 -0.46148116886E+01 -0.23631684688E+02  0.47012746091E+02  0.52819989617E+02  0.00000000000E+00 0.  1.
         21    1    1    2  502  501 -0.31377016240E+02 -0.32879147976E+02 -0.98873013339E+01  0.46511442113E+02  0.00000000000E+00 0. -1.
         21    1    1    2  503  502 -0.80207338345E+02  0.18778914993E+03 -0.20215140056E+03  0.28733807737E+03  0.00000000000E+00 0.  1.
<scales pt_clust_5="13000.00000" pt_clust_6="13000.00000" pt_clust_7="13000.00000" pt_clust_8="13000.00000" pt_clust_9="45.44838" pt_clust_10="172.21603"></scales>
<clustering>
<clus scale="   45.448">  2  9  1 -1</clus>
<clus scale="   88.437">  5  6 -1 -1</clus>
<clus scale="   93.318">  7  8 -1 -1</clus>
<clus scale="   97.414">  2  7  1 -1</clus>
<clus scale="  172.216">  2 10  1 -1</clus>
<clus scale="  193.596">  1  5  2 -1</clus>
</clustering>
</event>
<event>
10    2  0.1133532E-006  0.1956291E+03  0.7546771E-02  0.1168360E+00
          2   -1    0    0  503    0  0.00000000000E+00  0.00000000000E+00  0.95186702114E+03  0.95186702114E+03  0.00000000000E+00 0. -1.
         -2   -1    0    0    0  501 -0.00000000000E+00 -0.00000000000E+00 -0.17371002895E+03  0.17371002895E+03  0.00000000000E+00 0.  1.
         23    2    1    2    0    0  0.96638500085E+02 -0.12988809599E+02  0.94881539534E+02  0.16483060963E+03  0.93053288253E+02 0.  0.
         23    2    1    2    0    0 -0.26126775736E+03  0.56087498869E+02  0.25506752612E+03  0.38117857446E+03  0.93973475963E+02 0.  0.
        -11    1    3    3    0    0 -0.17705801772E+02 -0.10100953218E+02  0.15337495750E+02  0.25510065625E+02  0.00000000000E+00 0. -1.
         11    1    3    3    0    0  0.11434430186E+03 -0.28878563816E+01  0.79544043783E+02  0.13932054401E+03  0.00000000000E+00 0.  1.
        -13    1    4    4    0    0 -0.16214487059E+03  0.57119220345E+02  0.21241155056E+03  0.27326220229E+03  0.00000000000E+00 0.  1.
         13    1    4    4    0    0 -0.99122886772E+02 -0.10317214765E+01  0.42655975555E+02  0.10791637217E+03  0.00000000000E+00 0. -1.
         21    1    1    2  502  501  0.12677120731E+02 -0.19505746379E+02 -0.61781297843E+02  0.66016000296E+02  0.00000000000E+00 0.  1.
         21    1    1    2  503  502  0.15195213654E+03 -0.23592942891E+02  0.48998922438E+03  0.51355186570E+03  0.00000000000E+00 0. -1.
<scales pt_clust_5="13000.00000" pt_clust_6="13000.00000" pt_clust_7="13000.00000" pt_clust_8="13000.00000" pt_clust_9="23.26335" pt_clust_10="171.58011"></scales>
<clustering>
<clus scale="   23.263">  2  9  1 -1</clus>
<clus scale="   93.053">  5  6 -1 -1</clus>
<clus scale="   93.973">  7  8 -1 -1</clus>
<clus scale="  138.432">  2  5  1 -1</clus>
<clus scale="  171.580">  1 10  2 -1</clus>
<clus scale="  171.580">  1  5  2 -1</clus>
</clustering>
</event>
<event>
10    2  0.1133532E-006  0.2445585E+03  0.7546771E-02  0.1116954E+00
         -2   -1    0    0    0  501 -0.00000000000E+00  0.00000000000E+00  0.29069787428E+03  0.29069787428E+03  0.00000000000E+00 0.  1.
          2   -1    0    0  503    0  0.00000000000E+00 -0.00000000000E+00 -0.37414603400E+03  0.37414603400E+03  0.00000000000E+00 0. -1.
         23    2    1    2    0    0  0.67358853448E+02 -0.23246015547E+03  0.20971198291E+02  0.25998568508E+03  0.92616555041E+02 0.  0.
         23    2    1    2    0    0 -0.15394695842E+02  0.21744995912E+03 -0.51117609306E+02  0.24130532176E+03  0.89965365257E+02 0.  0.
        -13    1    4    4    0    0 -0.30216493474E+02  0.53395897837E+02 -0.45684758571E+02  0.76493500047E+02  0.00000000000E+00 0.  1.
         13    1    4    4    0    0  0.14821797632E+02  0.16405406128E+03 -0.54328507352E+01  0.16481182171E+03  0.00000000000E+00 0. -1.
        -13    1    3    3    0    0 -0.10215681761E+01 -0.15806488517E+03  0.11099112717E+02  0.15845738174E+03  0.00000000000E+00 0.  1.
         13    1    3    3    0    0  0.68380421624E+02 -0.74395270303E+02  0.98720855743E+01  0.10152830334E+03  0.00000000000E+00 0. -1.
         21    1    1    2  502  501 -0.19092744205E+02  0.21690370237E+02  0.48451088180E+02  0.56413765945E+02  0.00000000000E+00 0. -1.
         21    1    1    2  503  502 -0.32871413401E+02 -0.66801738882E+01 -0.10175283688E+03  0.10713913550E+03  0.00000000000E+00 0.  1.
<scales pt_clust_5="13000.00000" pt_clust_6="13000.00000" pt_clust_7="13000.00000" pt_clust_8="13000.00000" pt_clust_9="28.89645" pt_clust_10="33.70717"></scales>
<clustering>
<clus scale="   28.896">  1  9  2 -1</clus>
<clus scale="   33.707">  2 10  1 -1</clus>
<clus scale="   89.965">  5  6 -1 -1</clus>
<clus scale="   92.617">  7  8 -1 -1</clus>
<clus scale="  243.567">  2  5  1 -1</clus>
<clus scale="   33.707">  2  5  1 -1</clus>
</clustering>
</event>
<event>
10    2  0.1133532E-006  0.2047916E+03  0.7546771E-02  0.1145879E+00
          1   -1    0    0  503    0  0.00000000000E+00  0.00000000000E+00  0.98418428274E+03  0.98418428274E+03  0.00000000000E+00 0. -1.
         -1   -1    0    0    0  501 -0.00000000000E+00 -0.00000000000E+00 -0.77035491606E+02  0.77035491606E+02  0.00000000000E+00 0.  1.
         23    2    1    2    0    0 -0.46947618638E+02  0.15725093574E+03  0.17417857887E+03  0.25654684009E+03  0.92445487376E+02 0.  0.
         23    2    1    2    0    0  0.23332019504E+02 -0.20678713275E+03  0.47386383957E+03  0.52550565154E+03  0.91126011359E+02 0.  0.
        -11    1    3    3    0    0 -0.16028705619E+02  0.57529699069E+02  0.13022784392E+03  0.14326854858E+03  0.00000000000E+00 0. -1.
         11    1    3    3    0    0 -0.30918913019E+02  0.99721236674E+02  0.43950734946E+02  0.11327829151E+03  0.00000000000E+00 0.  1.
        -11    1    4    4    0    0 -0.13213187560E+02 -0.93675909150E+02  0.12378409874E+03  0.15579559487E+03  0.00000000000E+00 0.  1.
         11    1    4    4    0    0  0.36545207063E+02 -0.11311122360E+03  0.35007974083E+03  0.36971005667E+03  0.00000000000E+00 0. -1.
         21    1    1    2  502  501  0.14434156190E+02  0.19490979731E+02  0.71865592798E+01  0.25296042973E+02  0.00000000000E+00 0. -1.
         21    1    1    2  503  502  0.91814429438E+01  0.30045217271E+02  0.25191981342E+03  0.25387123974E+03  0.00000000000E+00 0. -1.
<scales pt_clust_5="13000.00000" pt_clust_6="13000.00000" pt_clust_7="13000.00000" pt_clust_8="13000.00000" pt_clust_9="24.25372" pt_clust_10="31.74507"></scales>
<clustering>
<clus scale="   24.254">  2  9  1 -1</clus>
<clus scale="   31.745">  1 10  2 -1</clus>
<clus scale="   91.126">  7  8 -1 -1</clus>
<clus scale="   92.445">  5  6 -1 -1</clus>
<clus scale="  204.199">  1  7  2 -1</clus>
<clus scale="   31.745">  1  5  2 -1</clus>
</clustering>
</event>
<event>
10    2  0.1133532E-006  0.1960262E+03  0.7546771E-02  0.1153789E+00
         -1   -1    0    0    0  501 -0.00000000000E+00  0.00000000000E+00  0.85507310175E+03  0.85507310175E+03  0.00000000000E+00 0.  1.
          1   -1    0    0  503    0  0.00000000000E+00 -0.00000000000E+00 -0.98950425279E+02  0.98950425279E+02  0.00000000000E+00 0. -1.
         23    2    1    2    0    0 -0.12320341785E+03  0.19555571807E+02  0.43687117246E+03  0.46464922708E+03  0.97370325756E+02 0.  0.
         23    2    1    2    0    0  0.21001715370E+03 -0.93365450099E+01  0.11374428831E+03  0.25583049574E+03  0.91198155185E+02 0.  0.
        -13    1    4    4    0    0  0.16166079858E+03  0.29311901095E+02  0.63642633085E+02  0.17619246888E+03  0.00000000000E+00 0. -1.
         13    1    4    4    0    0  0.48356355113E+02 -0.38648446105E+02  0.50101655223E+02  0.79638026860E+02  0.00000000000E+00 0.  1.
        -13    1    3    3    0    0 -0.73640981409E+02  0.58645064972E+02  0.28638008227E+03  0.30145611507E+03  0.00000000000E+00 0.  1.
         13    1    3    3    0    0 -0.49562436440E+02 -0.39089493165E+02  0.15049109019E+03  0.16319311201E+03  0.00000000000E+00 0. -1.
         21    1    1    2  502  501 -0.55987974460E+02 -0.28606150512E+02  0.17659843551E+03  0.18745658846E+03  0.00000000000E+00 0.  1.
         21    1    1    2  503  502 -0.30825761387E+02  0.18387123714E+02  0.28908780183E+02  0.46087215746E+02  0.00000000000E+00 0. -1.
<scales pt_clust_5="13000.00000" pt_clust_6="13000.00000" pt_clust_7="13000.00000" pt_clust_8="13000.00000" pt_clust_9="64.04529" pt_clust_10="35.89309"></scales>
<clustering>
<clus scale="   35.893">  2 10  1 -1</clus>
<clus scale="   64.045">  1  9  2 -1</clus>
<clus scale="   91.198">  5  6 -1 -1</clus>
<clus scale="   97.370">  7  8 -1 -1</clus>
<clus scale="  193.035">  2  5  1 -1</clus>
<clus scale="   35.893">  2  5  1 -1</clus>
</clustering>
</event>
<event>
10    2  0.1133532E-006  0.9834455E+02  0.7546771E-02  0.1287804E+00
         -4   -1    0    0    0  501 -0.00000000000E+00  0.00000000000E+00  0.49684575101E+03  0.49684575101E+03  0.00000000000E+00 0.  1.
          4   -1    0    0  503    0  0.00000000000E+00 -0.00000000000E+00 -0.55027157403E+02  0.55027157403E+02  0.00000000000E+00 0. -1.
         23    2    1    2    0    0  0.16408068873E+02 -0.14934912962E+02  0.15020545893E+03  0.17093002225E+03  0.78505517420E+02 0.  0.
         23    2    1    2    0    0 -0.13881682373E+02  0.70795985599E+02  0.12813463275E+03  0.17069459738E+03  0.86679806088E+02 0.  0.
        -11    1    3    3    0    0  0.42755872712E+02 -0.22458603721E+02  0.62144214585E+02  0.78704237108E+02  0.00000000000E+00 0. -1.
         11    1    3    3    0    0 -0.26347803839E+02  0.75236907592E+01  0.88061244344E+02  0.92225785143E+02  0.00000000000E+00 0.  1.
        -13    1    4    4    0    0  0.25597934838E+02  0.17786453932E+02  0.58853417472E+01  0.31721435323E+02  0.00000000000E+00 0. -1.
         13    1    4    4    0    0 -0.39479617210E+02  0.53009531666E+02  0.12224929100E+03  0.13897316206E+03  0.00000000000E+00 0.  1.
         21    1    1    2  502  501  0.17934275439E+02 -0.50651264024E+02  0.17713348565E+03  0.18510391817E+03  0.00000000000E+00 0. -1.
         21    1    1    2  503  502 -0.20460661939E+02 -0.52098086132E+01 -0.13654983724E+02  0.25144370608E+02  0.00000000000E+00 0. -1.
<scales pt_clust_5="13000.00000" pt_clust_6="13000.00000" pt_clust_7="13000.00000" pt_clust_8="13000.00000" pt_clust_9="53.56967" pt_clust_10="21.11352"></scales>
<clustering>
<clus scale="   21.114">  2 10  1 -1</clus>
<clus scale="   53.570">  1  9  2 -1</clus>
<clus scale="   78.506">  5  6 -1 -1</clus>
<clus scale="   86.680">  7  8 -1 -1</clus>
<clus scale="   91.222">  1  5  2 -1</clus>
<clus scale="   21.114">  2  5  1 -1</clus>
</clustering>
</event>
<event>
10    2  0.1133532E-006  0.1292066E+03  0.7546771E-02  0.1228825E+00
          1   -1    0    0  503    0  0.00000000000E+00  0.00000000000E+00  0.32580996863E+03  0.32580996863E+03  0.00000000000E+00 0. -1.
         -1   -1    0    0    0  501 -0.00000000000E+00 -0.00000000000E+00 -0.24461424519E+03  0.24461424519E+03  0.00000000000E+00 0.  1.
         23    2    1    2    0    0 -0.49105620050E+02  0.12352800407E+03  0.71751504805E+02  0.17661684722E+03  0.91513401044E+02 0.  0.
         23    2    1    2    0    0  0.36871300730E+02 -0.65208682998E+02  0.70077494300E+02  0.13699698691E+03  0.90805583859E+02 0.  0.
        -11    1    4    4    0    0 -0.98696331874E+01 -0.68896482222E+02  0.32033826452E+02  0.76617889289E+02  0.00000000000E+00 0.  1.
         11    1    4    4    0    0  0.46740933918E+02  0.36877992244E+01  0.38043667847E+02  0.60379097624E+02  0.00000000000E+00 0. -1.
        -13    1    3    3    0    0 -0.37778740392E+02  0.91238716188E+01  0.43302236551E+02  0.58185581971E+02  0.00000000000E+00 0.  1.
         13    1    3    3    0    0 -0.11326879658E+02  0.11440413245E+03  0.28449268254E+02  0.11843126525E+03  0.00000000000E+00 0. -1.
         21    1    1    2  502  501  0.34802981159E+02 -0.78706477602E+02 -0.14417439960E+03  0.16790537399E+03  0.00000000000E+00 0.  1.
         21    1    1    2  503  502 -0.22568661840E+02  0.20387156530E+02  0.83541123939E+02  0.88905005695E+02  0.00000000000E+00 0.  1.
<scales pt_clust_5="13000.00000" pt_clust_6="13000.00000" pt_clust_7="13000.00000" pt_clust_8="13000.00000" pt_clust_9="84.68466" pt_clust_10="30.41349"></scales>
<clustering>
<clus scale="   30.413">  1 10  2 -1</clus>
<clus scale="   84.685">  2  9  1 -1</clus>
<clus scale="   90.806">  5  6 -1 -1</clus>
<clus scale="   91.513">  7  8 -1 -1</clus>
<clus scale="  128.706">  1  5  2 -1</clus>
<clus scale="   30.413">  1  5  2 -1</clus>
</clustering>
</event>
<event>
10    2  0.1133532E-006  0.1263625E+03  0.7546771E-02  0.1233676E+00
          1   -1    0    0  503    0  0.00000000000E+00  0.00000000000E+00  0.47466622493E+02  0.47466622493E+02  0.00000000000E+00 0. -1.
         -1   -1    0    0    0  501 -0.00000000000E+00 -0.00000000000E+00 -0.62553312458E+03  0.62553312458E+03  0.00000000000E+00 0.  1.
         23    2    1    2    0    0 -0.75224966914E+02  0.21818267983E+01 -0.26248980000E+03  0.28807093659E+03  0.91762810489E+02 0.  0.
         23    2    1    2    0    0  0.96081369236E+02  0.44994734542E+02 -0.14881826269E+03  0.20336632077E+03  0.89189850674E+02 0.  0.
        -11    1    3    3    0    0 -0.10261746923E+02 -0.39924903122E+02 -0.87779425334E+02  0.96976950102E+02  0.00000000000E+00 0.  1.
         11    1    3    3    0    0 -0.64963219991E+02  0.42106729920E+02 -0.17471037466E+03  0.19109398649E+03  0.00000000000E+00 0. -1.
        -11    1    4    4    0    0  0.22070324200E+02  0.26928700042E+02  0.14944237664E+01  0.34849496390E+02  0.00000000000E+00 0. -1.
         11    1    4    4    0    0  0.74011045036E+02  0.18066034500E+02 -0.15031268646E+03  0.16851682438E+03  0.00000000000E+00 0.  1.
         21    1    1    2  502  501 -0.23763930131E+01 -0.38966061379E+02 -0.15088876060E+03  0.15585704751E+03  0.00000000000E+00 0.  1.
         21    1    1    2  503  502 -0.18480009309E+02 -0.82104999616E+01 -0.15869678802E+02  0.25705442205E+02  0.00000000000E+00 0. -1.
<scales pt_clust_5="13000.00000" pt_clust_6="13000.00000" pt_clust_7="13000.00000" pt_clust_8="13000.00000" pt_clust_9="39.59647" pt_clust_10="20.22185"></scales>
<clustering>
<clus scale="   20.222">  1 10  2 -1</clus>
<clus scale="   39.596">  2  9  1 -1</clus>
<clus scale="   89.190">  7  8 -1 -1</clus>
<clus scale="   91.763">  5  6 -1 -1</clus>
<clus scale="  124.507">  1  7  2 -1</clus>
<clus scale="   20.222">  1  5  2 -1</clus>
</clustering>
</event>
<event>
10    2  0.1133532E-006  0.1453284E+03  0.7546771E-02  0.1206632E+00
          1   -1    0    0  503    0  0.00000000000E+00  0.00000000000E+00  0.69886201639E+03  0.69886201639E+03  0.00000000000E+00 0. -1.
         -1   -1    0    0    0  501 -0.00000000000E+00 -0.00000000000E+00 -0.16752040115E+03  0.16752040115E+03  0.00000000000E+00 0.  1.
         23    2    1    2    0    0 -0.23742130729E+02  0.78550364775E+02  0.12135574436E+03  0.17287846713E+03  0.91792696489E+02 0.  0.
         23    2    1    2    0    0  0.62197609380E+02 -0.13251658984E+03  0.26757132077E+03  0.31893240333E+03  0.93243106977E+02 0.  0.
        -11    1    4    4    0    0 -0.17163262620E+02 -0.68476681611E+02  0.12645727788E+03  0.14482774816E+03  0.00000000000E+00 0. -1.
         11    1    4    4    0    0  0.79360871999E+02 -0.64039908233E+02  0.14111404288E+03  0.17410465516E+03  0.00000000000E+00 0.  1.
        -13    1    3    3    0    0 -0.28900481390E+02  0.69974009071E+01  0.89637152565E+02  0.94440566305E+02  0.00000000000E+00 0. -1.
         13    1    3    3    0    0  0.51583506616E+01  0.71552963868E+02  0.31718591799E+02  0.78437900823E+02  0.00000000000E+00 0.  1.
         21    1    1    2  502  501 -0.11848125647E+01  0.36715386043E+02 -0.11148022002E+03  0.11737658544E+03  0.00000000000E+00 0.  1.
         21    1    1    2  503  502 -0.37270666086E+02  0.17250839026E+02  0.25389477013E+03  0.25719496165E+03  0.00000000000E+00 0. -1.
<scales pt_clust_5="13000.00000" pt_clust_6="13000.00000" pt_clust_7="13000.00000" pt_clust_8="13000.00000" pt_clust_9="36.73450" pt_clust_10="41.59462"></scales>
<clustering>
<clus scale="   36.734">  2  9  1 -1</clus>
<clus scale="   41.595">  1 10  2 -1</clus>
<clus scale="   91.793">  7  8 -1 -1</clus>
<clus scale="   93.243">  5  6 -1 -1</clus>
<clus scale="  144.402">  2  7  1 -1</clus>
<clus scale="   41.595">  1  5  2 -1</clus>
</clustering>
</event>
<event>
10    2  0.1133532E-006  0.1257264E+03  0.7546771E-02  0.1234553E+00
         -3   -1    0    0    0  501 -0.00000000000E+00  0.00000000000E+00  0.28086413777E+02  0.28086413777E+02  0.00000000000E+00 0.  1.
          3   -1    0    0  503    0  0.00000000000E+00 -0.00000000000E+00 -0.10298190996E+04  0.10298190996E+04  0.00000000000E+00 0. -1.
         23    2    1    2    0    0  0.75172821739E+02  0.56832580284E+01 -0.35777592676E+03  0.37717889681E+03  0.92612385137E+02 0.  0.
         23    2    1    2    0    0 -0.10115172652E+03  0.10347759483E+02 -0.41671986568E+03  0.43838088853E+03  0.90463302342E+02 0.  0.
        -11    1    3    3    0    0  0.34337035165E+02 -0.31095131201E+02 -0.68269590799E+02  0.82502582966E+02  0.00000000000E+00 0.  1.
         11    1    3    3    0    0  0.40835786575E+02  0.36778389229E+02 -0.28950633596E+03  0.29467631384E+03  0.00000000000E+00 0. -1.
        -13    1    4    4    0    0 -0.57688420016E+02 -0.34448150669E+02 -0.14848301558E+03  0.16297801939E+03  0.00000000000E+00 0. -1.
         13    1    4    4    0    0 -0.43463306505E+02  0.44795910152E+02 -0.26823685010E+03  0.27540286914E+03  0.00000000000E+00 0.  1.
         21    1    1    2  502  501 -0.21605963336E+02 -0.76251948920E-01 -0.21147019378E+02  0.30232761942E+02  0.00000000000E+00 0.  1.
         21    1    1    2  503  502  0.47584868118E+02 -0.15954765562E+02 -0.20608987397E+03  0.21211296606E+03  0.00000000000E+00 0. -1.
<scales pt_clust_5="13000.00000" pt_clust_6="13000.00000" pt_clust_7="13000.00000" pt_clust_8="13000.00000" pt_clust_9="21.60610" pt_clust_10="47.57944"></scales>
<clustering>
<clus scale="   21.606">  1  9  2 -1</clus>
<clus scale="   47.579">  2 10  1 -1</clus>
<clus scale="   90.463">  7  8 -1 -1</clus>
<clus scale="   92.612">  5  6 -1 -1</clus>
<clus scale="  124.152">  2  7  1 -1</clus>
<clus scale="   47.579">  2  5  1 -1</clus>
</clustering>
</event>
<event>
10    2  0.1133532E-006  0.9634494E+02  0.7546771E-02  0.1289314E+00
         -2   -1    0    0    0  501 -0.00000000000E+00  0.00000000000E+00  0.86812705940E+02  0.86812705940E+02  0.00000000000E+00 0.  1.
          2   -1    0    0  503    0  0.00000000000E+00 -0.00000000000E+00 -0.10569201313E+04  0.10569201313E+04  0.00000000000E+00 0. -1.
         23    2    1    2    0    0  0.39015474497E+02  0.19589358725E+02 -0.36893807910E+02  0.10514056950E+03  0.88246450739E+02 0.  0.
         23    2    1    2    0    0  0.55904684297E+02 -0.13970343973E+02 -0.27267934522E+03  0.29300246369E+03  0.90420761901E+02 0.  0.
        -11    1    4    4    0    0  0.80485576861E+02 -0.17226280464E+02 -0.21517468477E+03  0.23037972520E+03  0.00000000000E+00 0.  1.
         11    1    4    4    0    0 -0.24580892564E+02  0.32559364904E+01 -0.57504660455E+02  0.62622738488E+02  0.00000000000E+00 0. -1.
        -13    1    3    3    0    0  0.20464709452E+02  0.44138291489E+02 -0.51701403023E+02  0.70993155889E+02  0.00000000000E+00 0.  1.
         13    1    3    3    0    0  0.18550765045E+02 -0.24548932764E+02  0.14807595113E+02  0.34147413615E+02  0.00000000000E+00 0. -1.
         21    1    1    2  502  501 -0.55385082704E+01  0.21925302511E+02  0.36158088164E+02  0.42647406764E+02  0.00000000000E+00 0. -1.
         21    1    1    2  503  502 -0.89381650523E+02 -0.27544317262E+02 -0.69669236040E+03  0.70294239729E+03  0.00000000000E+00 0. -1.
<scales pt_clust_5="13000.00000" pt_clust_6="13000.00000" pt_clust_7="13000.00000" pt_clust_8="13000.00000" pt_clust_9="22.61402" pt_clust_10="93.46463"></scales>
<clustering>
<clus scale="   22.614">  1  9  2 -1</clus>
<clus scale="   88.246">  7  8 -1 -1</clus>
<clus scale="   90.421">  5  6 -1 -1</clus>
<clus scale="   93.465">  2 10  1 -1</clus>
<clus scale="   94.307">  1  7  2 -1</clus>
<clus scale="   93.465">  2  5  1 -1</clus>
</clustering>
</event>
<event>
10    2  0.1133532E-006  0.2296572E+03  0.7546771E-02  0.1128446E+00
         -2   -1    0    0    0  501 -0.00000000000E+00  0.00000000000E+00  0.30292296675E+03  0.30292296675E+03  0.00000000000E+00 0.  1.
          2   -1    0    0  503    0  0.00000000000E+00 -0.00000000000E+00 -0.71559274856E+03  0.71559274856E+03  0.00000000000E+00 0. -1.
         23    2    1    2    0    0 -0.16567947812E+03 -0.22907955495E+03 -0.42741986388E+03  0.52417334531E+03  0.11019448231E+03 0.  0.
         23    2    1    2    0    0  0.31009591613E+02  0.13833157765E+03 -0.13916478905E+03  0.21837883838E+03  0.90693210313E+02 0.  0.
        -11    1    3    3    0    0 -0.80330781675E+02 -0.88513436443E+02 -0.92792487552E+02  0.15132121022E+03  0.00000000000E+00 0.  1.
         11    1    3    3    0    0 -0.85348696441E+02 -0.14056611851E+03 -0.33462737633E+03  0.37285213509E+03  0.00000000000E+00 0. -1.
        -11    1    4    4    0    0 -0.16686560692E+02  0.34244915460E+02 -0.81979396458E+02  0.90397881536E+02  0.00000000000E+00 0. -1.
         11    1    4    4    0    0  0.47696152305E+02  0.10408666219E+03 -0.57185392587E+02  0.12798095685E+03  0.00000000000E+00 0.  1.
         21    1    1    2  502  501  0.11460844754E+03  0.10545630483E+03  0.18127126864E+03  0.23898828697E+03  0.00000000000E+00 0.  1.
         21    1    1    2  503  502  0.20061438964E+02 -0.14708327527E+02 -0.27356397522E+02  0.36975244655E+02  0.00000000000E+00 0.  1.
<scales pt_clust_5="13000.00000" pt_clust_6="13000.00000" pt_clust_7="13000.00000" pt_clust_8="13000.00000" pt_clust_9="155.95003" pt_clust_10="24.87562"></scales>
<clustering>
<clus scale="   24.876">  2 10  1 -1</clus>
<clus scale="   90.693">  7  8 -1 -1</clus>
<clus scale="  110.194">  5  6 -1 -1</clus>
<clus scale="  155.950">  1  9  2 -1</clus>
<clus scale="  220.963">  2  7  1 -1</clus>
<clus scale="   24.876">  2  5  1 -1</clus>
</clustering>
</event>
<event>
10    2  0.1133532E-006  0.9504637E+02  0.7546771E-02  0.1291558E+00
          2   -1    0    0  503    0  0.00000000000E+00  0.00000000000E+00  0.20014120051E+03  0.20014120051E+03  0.00000000000E+00 0. -1.
         -2   -1    0    0    0  501 -0.00000000000E+00 -0.00000000000E+00 -0.30450291200E+03  0.30450291200E+03  0.00000000000E+00 0.  1.
         23    2    1    2    0    0  0.15550614037E+02  0.13744738570E+02 -0.18755038215E+03  0.20868764138E+03  0.89132745863E+02 0.  0.
         23    2    1    2    0    0 -0.58314709865E+02 -0.88429226796E+01  0.14311593214E+03  0.17816524603E+03  0.88214977148E+02 0.  0.
        -11    1    4    4    0    0 -0.35527377748E+02 -0.35296504499E+02  0.26961482358E+02  0.56876702879E+02  0.00000000000E+00 0. -1.
         11    1    4    4    0    0 -0.22787332117E+02  0.26453581819E+02  0.11615444978E+03  0.12128854315E+03  0.00000000000E+00 0.  1.
        -13    1    3    3    0    0  0.29772409583E+02  0.36100184032E+02 -0.17136614843E+03  0.17764001939E+03  0.00000000000E+00 0.  1.
         13    1    3    3    0    0 -0.14221795547E+02 -0.22355445462E+02 -0.16184233717E+02  0.31047621992E+02  0.00000000000E+00 0. -1.
         21    1    1    2  502  501  0.17185946460E+02 -0.12395281052E+02 -0.81055551973E+02  0.83779485877E+02  0.00000000000E+00 0. -1.
         21    1    1    2  503  502  0.25578149368E+02  0.74934651621E+01  0.21128290491E+02  0.34011739213E+02  0.00000000000E+00 0. -1.
<scales pt_clust_5="13000.00000" pt_clust_6="13000.00000" pt_clust_7="13000.00000" pt_clust_8="13000.00000" pt_clust_9="21.18961" pt_clust_10="27.03487"></scales>
<clustering>
<clus scale="   21.190">  2  9  1 -1</clus>
<clus scale="   27.035">  1 10  2 -1</clus>
<clus scale="   88.215">  5  6 -1 -1</clus>
<clus scale="   89.133">  7  8 -1 -1</clus>
<clus scale="   94.186">  1  5  2 -1</clus>
<clus scale="   27.035">  1  5  2 -1</clus>
</clustering>
</event>
<event>
10    2  0.1133532E-006  0.2907883E+03  0.7546771E-02  0.1089987E+00
         -1   -1    0    0    0  501 -0.00000000000E+00  0.00000000000E+00  0.21950705318E+03  0.21950705318E+03  0.00000000000E+00 0.  1.
          1   -1    0    0  503    0  0.00000000000E+00 -0.00000000000E+00 -0.53866993293E+03  0.53866993293E+03  0.00000000000E+00 0. -1.
         23    2    1    2    0    0 -0.14566387265E+03  0.24020109820E+03 -0.11768811377E+03  0.31783184917E+03  0.90840854521E+02 0.  0.
         23    2    1    2    0    0  0.14225986272E+03 -0.23298447606E+03 -0.22737576222E+03  0.36640687099E+03  0.89636059936E+02 0.  0.
        -11    1    4    4    0    0  0.11070236538E+03 -0.22214119468E+03 -0.22121959170E+03  0.33247531010E+03  0.00000000000E+00 0.  1.
         11    1    4    4    0    0  0.31557497334E+02 -0.10843281383E+02 -0.61561705168E+01  0.33931560891E+02  0.00000000000E+00 0. -1.
        -13    1    3    3    0    0 -0.22435647355E+02 -0.24080436998E+01 -0.39536102051E+01  0.22908251359E+02  0.00000000000E+00 0.  1.
         13    1    3    3    0    0 -0.12322822530E+03  0.24260914190E+03 -0.11373450356E+03  0.29492359781E+03  0.00000000000E+00 0. -1.
         21    1    1    2  502  501 -0.93168322724E+01  0.27230063320E+02 -0.37946654331E+00  0.28782350614E+02  0.00000000000E+00 0.  1.
         21    1    1    2  503  502  0.12720842210E+02 -0.34446685459E+02  0.26280462781E+02  0.45155915334E+02  0.00000000000E+00 0.  1.
<scales pt_clust_5="13000.00000" pt_clust_6="13000.00000" pt_clust_7="13000.00000" pt_clust_8="13000.00000" pt_clust_9="28.77985" pt_clust_10="31.71517"></scales>
<clustering>
<clus scale="   28.780">  1  9  2 -1</clus>
<clus scale="   31.715">  1 10  2 -1</clus>
<clus scale="   89.636">  5  6 -1 -1</clus>
<clus scale="   90.841">  7  8 -1 -1</clus>
<clus scale="  290.414">  2  5  1 -1</clus>
<clus scale="  290.414">  2  5  1 -1</clus>
</clustering>
</event>
<event>
10    2  0.1133532E-006  0.1971561E+03  0.7546771E-02  0.1153169E+00
          1   -1    0    0  503    0  0.00000000000E+00  0.00000000000E+00  0.44574244974E+03  0.44574244974E+03  0.00000000000E+00 0. -1.
         -1   -1    0    0    0  501 -0.00000000000E+00 -0.00000000000E+00 -0.17634369006E+03  0.17634369006E+03  0.00000000000E+00 0.  1.
         23    2    1    2    0    0  0.17363873120E+03 -0.11229291894E+03  0.10562160650E+03  0.24945926489E+03  0.91180548726E+02 0.  0.
         23    2    1    2    0    0 -0.79537155883E+02  0.11235205241E+03  0.14281979182E+03  0.22240740877E+03  0.10059035586E+03 0.  0.
        -11    1    4    4    0    0  0.20849877932E+02  0.25657130350E+01  0.24893046698E+02  0.32572443370E+02  0.00000000000E+00 0.  1.
         11    1    4    4    0    0 -0.10038703382E+03  0.10978633938E+03  0.11792674512E+03  0.18983496540E+03  0.00000000000E+00 0. -1.
        -11    1    3    3    0    0  0.76522937887E+02 -0.63067792708E+02  0.20454124508E+01  0.99184122782E+02  0.00000000000E+00 0.  1.
         11    1    3    3    0    0  0.97115793309E+02 -0.49225126231E+02  0.10357619405E+03  0.15027514211E+03  0.00000000000E+00 0. -1.
         21    1    1    2  502  501 -0.28554932060E+02 -0.19371260514E+02 -0.44015492589E+02  0.55928467409E+02  0.00000000000E+00 0.  1.
         21    1    1    2  503  502 -0.65546643253E+02  0.19312127042E+02  0.64972853945E+02  0.94290998734E+02  0.00000000000E+00 0.  1.
<scales pt_clust_5="13000.00000" pt_clust_6="13000.00000" pt_clust_7="13000.00000" pt_clust_8="13000.00000" pt_clust_9="34.50551" pt_clust_10="70.94208"></scales>
<clustering>
<clus scale="   34.506">  2  9  1 -1</clus>
<clus scale="   70.942">  1 10  2 -1</clus>
<clus scale="   91.181">  7  8 -1 -1</clus>
<clus scale="  100.590">  5  6 -1 -1</clus>
<clus scale="  192.525">  2  7  1 -1</clus>
<clus scale="   70.942">  1  5  2 -1</clus>
</clustering>
</event>
<event>
10    2  0.1133532E-006  0.1412508E+03  0.7546771E-02  0.1212046E+00
         -1   -1    0    0    0  501 -0.00000000000E+00  0.00000000000E+00  0.26657602597E+03  0.26657602597E+03  0.00000000000E+00 0.  1.
          1   -1    0    0  503    0  0.00000000000E+00 -0.00000000000E+00 -0.27180033559E+03  0.27180033559E+03  0.00000000000E+00 0. -1.
         23    2    1    2    0    0  0.57803523978E+01  0.11118705024E+03  0.18489862375E+03  0.23439657340E+03  0.91423629011E+02 0.  0.
         23    2    1    2    0    0 -0.59582149246E+02 -0.99848808468E+02 -0.17687815105E+03  0.23128407862E+03  0.93202079603E+02 0.  0.
        -11    1    3    3    0    0  0.21852267035E+02 -0.77647246294E+01  0.21309606019E+02  0.31494631793E+02  0.00000000000E+00 0. -1.
         11    1    3    3    0    0 -0.16071914637E+02  0.11895177487E+03  0.16358901773E+03  0.20290194161E+03  0.00000000000E+00 0.  1.
        -13    1    4    4    0    0 -0.49840195459E+02 -0.12315285216E+01 -0.62465388126E+02  0.79921752105E+02  0.00000000000E+00 0. -1.
         13    1    4    4    0    0 -0.97419537878E+01 -0.98617279946E+02 -0.11441276293E+03  0.15136232652E+03  0.00000000000E+00 0.  1.
         21    1    1    2  502  501  0.29156919984E+02 -0.12659571555E+02  0.15033156568E+02  0.35162288482E+02  0.00000000000E+00 0.  1.
         21    1    1    2  503  502  0.24644876865E+02  0.13213297777E+01 -0.28277938892E+02  0.37533421054E+02  0.00000000000E+00 0. -1.
<scales pt_clust_5="13000.00000" pt_clust_6="13000.00000" pt_clust_7="13000.00000" pt_clust_8="13000.00000" pt_clust_9="32.72016" pt_clust_10="24.68027"></scales>
<clustering>
<clus scale="   24.680">  2 10  1 -1</clus>
<clus scale="   32.720">  1  9  2 -1</clus>
<clus scale="   91.424">  5  6 -1 -1</clus>
<clus scale="   93.202">  7  8 -1 -1</clus>
<clus scale="  140.084">  1  5  2 -1</clus>
<clus scale="   24.680">  2  5  1 -1</clus>
</clustering>
</event>
<event>
10    2  0.1133532E-006  0.2419926E+03  0.7546771E-02  0.1119482E+00
         -2   -1    0    0    0  501 -0.00000000000E+00  0.00000000000E+00  0.65381801541E+03  0.65381801541E+03  0.00000000000E+00 0.  1.
          2   -1    0    0  503    0  0.00000000000E+00 -0.00000000000E+00 -0.27860924746E+03  0.27860924746E+03  0.00000000000E+00 0. -1.
         23    2    1    2    0    0  0.17444570832E+03 -0.95680073198E+02  0.31206394306E+03  0.37993895321E+03  0.85928586916E+02 0.  0.
         23    2    1    2    0    0 -0.22058266871E+03  0.12482037224E+02 -0.15101281301E+03  0.28616277541E+03  0.10134963913E+03 0.  0.
        -11    1    4    4    0    0 -0.98427610800E+01  0.29920715950E+02 -0.16681693579E+02  0.35642784533E+02  0.00000000000E+00 0.  1.
         11    1    4    4    0    0 -0.21073990763E+03 -0.17438678726E+02 -0.13433111943E+03  0.25051999088E+03  0.00000000000E+00 0. -1.
        -13    1    3    3    0    0  0.10316230569E+03 -0.91048570737E+02  0.15419185834E+03  0.20665776716E+03  0.00000000000E+00 0.  1.
         13    1    3    3    0    0  0.71283402631E+02 -0.46315024607E+01  0.15787208472E+03  0.17328118605E+03  0.00000000000E+00 0. -1.
         21    1    1    2  502  501  0.58683589077E+02  0.10606004250E+03  0.20597371697E+03  0.23899302987E+03  0.00000000000E+00 0.  1.
         21    1    1    2  503  502 -0.12546628688E+02 -0.22862006527E+02  0.81839209248E+01  0.27332504378E+02  0.00000000000E+00 0. -1.
<scales pt_clust_5="13000.00000" pt_clust_6="13000.00000" pt_clust_7="13000.00000" pt_clust_8="13000.00000" pt_clust_9="119.61228" pt_clust_10="26.07852"></scales>
<clustering>
<clus scale="   26.079">  2 10  1 -1</clus>
<clus scale="   85.929">  7  8 -1 -1</clus>
<clus scale="  101.350">  5  6 -1 -1</clus>
<clus scale="  119.612">  1  9  2 -1</clus>
<clus scale="  235.950">  1  7  2 -1</clus>
<clus scale="   26.079">  2  5  1 -1</clus>
</clustering>
</event>
<event>
10    2  0.1133532E-006  0.1075025E+03  0.7546771E-02  0.1266260E+00
          2   -1    0    0  503    0  0.00000000000E+00  0.00000000000E+00  0.51598665604E+03  0.51598665604E+03  0.00000000000E+00 0. -1.
         -2   -1    0    0    0  501 -0.00000000000E+00 -0.00000000000E+00 -0.80010849224E+02  0.80010849224E+02  0.00000000000E+00 0.  1.
         23    2    1    2    0    0 -0.38675045234E+02 -0.50469516438E+02  0.93241824472E+01  0.10965666570E+03  0.88852196033E+02 0.  0.
         23    2    1    2    0    0  0.49932384657E+02  0.46026900072E+02  0.18146896375E+03  0.21418705991E+03  0.91287421143E+02 0.  0.
        -13    1    3    3    0    0  0.19370256888E+02 -0.22561222165E+02 -0.23001464091E+02  0.37593655686E+02  0.00000000000E+00 0. -1.
         13    1    3    3    0    0 -0.58045302122E+02 -0.27908294273E+02  0.32325646538E+02  0.72063010010E+02  0.00000000000E+00 0.  1.
        -13    1    4    4    0    0  0.73544680964E+02  0.22433208921E+02  0.99984888867E+02  0.12613107057E+03  0.00000000000E+00 0. -1.
         13    1    4    4    0    0 -0.23612296306E+02  0.23593691152E+02  0.81484074886E+02  0.88055989342E+02  0.00000000000E+00 0.  1.
         21    1    1    2  502  501  0.27912003927E+02 -0.56650415963E+00  0.45300504111E+01  0.28282896721E+02  0.00000000000E+00 0. -1.
         21    1    1    2  503  502 -0.39169343351E+02  0.50091205249E+01  0.24065261021E+03  0.24387088294E+03  0.00000000000E+00 0. -1.
<scales pt_clust_5="13000.00000" pt_clust_6="13000.00000" pt_clust_7="13000.00000" pt_clust_8="13000.00000" pt_clust_9="27.91775" pt_clust_10="38.83283"></scales>
<clustering>
<clus scale="   27.918">  2  9  1 -1</clus>
<clus scale="   38.833">  1 10  2 -1</clus>
<clus scale="   88.852">  5  6 -1 -1</clus>
<clus scale="   91.287">  7  8 -1 -1</clus>
<clus scale="  105.442">  2  5  1 -1</clus>
<clus scale="   38.833">  1  5  2 -1</clus>
</clustering>
</event>
<event>
10    2  0.1133532E-006  0.1418367E+03  0.7546771E-02  0.1216604E+00
          1   -1    0    0  503    0  0.00000000000E+00  0.00000000000E+00  0.10238014530E+03  0.10238014530E+03  0.00000000000E+00 0. -1.
         -1   -1    0    0    0  501 -0.00000000000E+00 -0.00000000000E+00 -0.35684892403E+03  0.35684892403E+03  0.00000000000E+00 0.  1.
         23    2    1    2    0    0 -0.73544191221E+02  0.59634137522E+02 -0.17010068125E+03  0.22242409885E+03  0.10757908517E+03 0.  0.
         23    2    1    2    0    0  0.40120631825E+02 -0.81510424006E+02 -0.90478947460E+02  0.15386272516E+03  0.85051066658E+02 0.  0.
        -11    1    4    4    0    0  0.14022291980E+02 -0.86410022020E+02 -0.38785349936E+02  0.95747688993E+02  0.00000000000E+00 0.  1.
         11    1    4    4    0    0  0.26098339845E+02  0.48995980141E+01 -0.51693597524E+02  0.58115036164E+02  0.00000000000E+00 0. -1.
        -13    1    3    3    0    0 -0.32927492507E+02  0.46994782465E+02 -0.17048665549E+03  0.17988448805E+03  0.00000000000E+00 0.  1.
         13    1    3    3    0    0 -0.40616698714E+02  0.12639355057E+02  0.38597423944E+00  0.42539610798E+02  0.00000000000E+00 0. -1.
         21    1    1    2  502  501  0.27383531623E+01  0.21299969587E+02 -0.29143067437E+02  0.36200906923E+02  0.00000000000E+00 0.  1.
         21    1    1    2  503  502  0.30685206234E+02  0.57631689786E+00  0.35253917416E+02  0.46741338406E+02  0.00000000000E+00 0. -1.
<scales pt_clust_5="13000.00000" pt_clust_6="13000.00000" pt_clust_7="13000.00000" pt_clust_8="13000.00000" pt_clust_9="21.47527" pt_clust_10="30.74852"></scales>
<clustering>
<clus scale="   21.475">  2  9  1 -1</clus>
<clus scale="   30.749">  1 10  2 -1</clus>
<clus scale="   85.051">  5  6 -1 -1</clus>
<clus scale="  107.579">  7  8 -1 -1</clus>
<clus scale="  125.611">  1  5  2 -1</clus>
<clus scale="   30.749">  1  5  2 -1</clus>
</clustering>
</event>
<event>
10    2  0.1133532E-006  0.1078809E+03  0.7546771E-02  0.1264888E+00
          1   -1    0    0  503    0  0.00000000000E+00  0.00000000000E+00  0.32796158212E+03  0.32796158212E+03  0.00000000000E+00 0. -1.
         -1   -1    0    0    0  501 -0.00000000000E+00 -0.00000000000E+00 -0.18101611791E+03  0.18101611791E+03  0.00000000000E+00 0.  1.
         23    2    1    2    0    0 -0.22267556048E+02 -0.78937229832E+02 -0.10425505016E+03  0.16077058634E+03  0.90835761907E+02 0.  0.
         23    2    1    2    0    0  0.62637321511E+02  0.30522398364E+02  0.13678243609E+03  0.17880150561E+03  0.91681474340E+02 0.  0.
        -13    1    4    4    0    0  0.23927586527E+02 -0.59337676212E+01 -0.68962941784E+01  0.25598786467E+02  0.00000000000E+00 0.  1.
         13    1    4    4    0    0  0.38709734984E+02  0.36456165985E+02  0.14367873027E+03  0.15320271914E+03  0.00000000000E+00 0. -1.
        -13    1    3    3    0    0 -0.42207789266E+02 -0.20486216672E+02 -0.98192400407E+01  0.47933287215E+02  0.00000000000E+00 0. -1.
         13    1    3    3    0    0  0.19940233218E+02 -0.58451013159E+02 -0.94435810118E+02  0.11283729912E+03  0.00000000000E+00 0.  1.
         21    1    1    2  502  501  0.14092059694E+02  0.26215145720E+02 -0.10317454881E+02  0.31500315662E+02  0.00000000000E+00 0.  1.
         21    1    1    2  503  502 -0.54461825157E+02  0.22199685747E+02  0.12473553316E+03  0.13790529242E+03  0.00000000000E+00 0. -1.
<scales pt_clust_5="13000.00000" pt_clust_6="13000.00000" pt_clust_7="13000.00000" pt_clust_8="13000.00000" pt_clust_9="29.76273" pt_clust_10="58.69545"></scales>
<clustering>
<clus scale="   29.763">  2  9  1 -1</clus>
<clus scale="   58.695">  1 10  2 -1</clus>
<clus scale="   90.836">  7  8 -1 -1</clus>
<clus scale="   91.681">  5  6 -1 -1</clus>
<clus scale="  107.163">  2  7  1 -1</clus>
<clus scale="   58.695">  1  5  2 -1</clus>
</clustering>
</event>
<event>
10    2  0.1133532E-006  0.1680487E+03  0.7546771E-02  0.1192374E+00
         -1   -1    0    0    0  501 -0.00000000000E+00  0.00000000000E+00  0.56671607329E+03  0.56671607329E+03  0.00000000000E+00 0.  1.
          1   -1    0    0  503    0  0.00000000000E+00 -0.00000000000E+00 -0.28519859023E+03  0.28519859023E+03  0.00000000000E+00 0. -1.
         23    2    1    2    0    0  0.12129859482E+02 -0.60678640908E+02  0.99589795129E+02  0.14831136427E+03  0.90824570050E+02 0.  0.
         23    2    1    2    0    0 -0.14864108504E+03  0.49827917887E+02 -0.11076481312E+03  0.21612093178E+03  0.99309716373E+02 0.  0.
        -13    1    4    4    0    0 -0.10869841230E+03  0.61705062173E+02 -0.35242510983E+02  0.12986490717E+03  0.00000000000E+00 0. -1.
         13    1    4    4    0    0 -0.39942672745E+02 -0.11877144286E+02 -0.75522302135E+02  0.86256024614E+02  0.00000000000E+00 0.  1.
        -13    1    3    3    0    0  0.60435928345E+01 -0.35311327959E+02  0.11330840974E+03  0.11883690762E+03  0.00000000000E+00 0.  1.
         13    1    3    3    0    0  0.60862666471E+01 -0.25367312949E+02 -0.13718614607E+02  0.29474456648E+02  0.00000000000E+00 0. -1.
         21    1    1    2  502  501  0.13355714072E+02 -0.48013241378E+02  0.33953169486E+03  0.34316966396E+03  0.00000000000E+00 0. -1.
         21    1    1    2  503  502  0.12315551149E+03  0.58863964399E+02 -0.46839193809E+02  0.14431270350E+03  0.00000000000E+00 0.  1.
<scales pt_clust_5="13000.00000" pt_clust_6="13000.00000" pt_clust_7="13000.00000" pt_clust_8="13000.00000" pt_clust_9="49.83620" pt_clust_10="135.56530"></scales>
<clustering>
<clus scale="   49.836">  1  9  2 -1</clus>
<clus scale="   90.825">  7  8 -1 -1</clus>
<clus scale="   99.310">  5  6 -1 -1</clus>
<clus scale="  127.328">  1  7  2 -1</clus>
<clus scale="  135.565">  1 10  2 -1</clus>
<clus scale="  168.049">  2  5  1 -1</clus>
</clustering>
</event>
<event>
10    2  0.1836223E-006  0.1027692E+03  0.7546771E-02  0.1275915E+00
         -2   -1    0    0    0  501 -0.00000000000E+00  0.00000000000E+00  0.65994811182E+03  0.65994811182E+03  0.00000000000E+00 0.  1.
          2   -1    0    0  503    0  0.00000000000E+00 -0.00000000000E+00 -0.11516794050E+03  0.11516794050E+03  0.00000000000E+00 0. -1.
         23    2    1    2    0    0  0.45253554704E+02 -0.28129062905E+02  0.44750878947E+03  0.45959927943E+03  0.90156822264E+02 0.  0.
         23    2    1    2    0    0  0.14097236199E+02  0.63395709064E+02 -0.66810992984E+02  0.13167143280E+03  0.93037140084E+02 0.  0.
        -11    1    3    3    0    0 -0.10338047394E+02 -0.45124775257E+02  0.21579989304E+03  0.22070957026E+03  0.00000000000E+00 0. -1.
         11    1    3    3    0    0  0.55591602098E+02  0.16995712352E+02  0.23170889643E+03  0.23888970917E+03  0.00000000000E+00 0.  1.
        -13    1    4    4    0    0  0.26512060784E+02  0.81735071319E+02 -0.67872439591E+02  0.10949967720E+03  0.00000000000E+00 0.  1.
         13    1    4    4    0    0 -0.12414824584E+02 -0.18339362255E+02  0.10614466074E+01  0.22171755598E+02  0.00000000000E+00 0. -1.
         21    1    1    2  502  501 -0.32460023930E+02 -0.12860434007E+02  0.13139109845E+03  0.13595096421E+03  0.00000000000E+00 0.  1.
         21    1    1    2  503  502 -0.26890766973E+02 -0.22406212152E+02  0.32691276376E+02  0.47894375896E+02  0.00000000000E+00 0.  1.
<scales pt_clust_5="13000.00000" pt_clust_6="13000.00000" pt_clust_7="13000.00000" pt_clust_8="13000.00000" pt_clust_9="34.91481" pt_clust_10="37.55102"></scales>
<clustering>
<clus scale="   34.915">  1  9  2 -1</clus>
<clus scale="   37.551">  2 10  1 -1</clus>
<clus scale="   90.157">  5  6 -1 -1</clus>
<clus scale="   93.037">  7  8 -1 -1</clus>
<clus scale="  100.169">  1  5  2 -1</clus>
<clus scale="   37.551">  2  5  1 -1</clus>
</clustering>
</event>
<event>
10    2  0.1133532E-006  0.3355532E+03  0.7546771E-02  0.1068774E+00
         -1   -1    0    0    0  501 -0.00000000000E+00  0.00000000000E+00  0.17440367387E+03  0.17440367387E+03  0.00000000000E+00 0.  1.
          1   -1    0    0  503    0  0.00000000000E+00 -0.00000000000E+00 -0.18287354957E+04  0.18287354957E+04  0.00000000000E+00 0. -1.
         23    2    1    2    0    0  0.20582212469E+03 -0.22758639098E+03 -0.66953193984E+03  0.74172477238E+03  0.87888037472E+02 0.  0.
         23    2    1    2    0    0 -0.17240155875E+03  0.29193769292E+03 -0.10445389864E+04  0.11018891049E+04  0.90266224668E+02 0.  0.
        -11    1    3    3    0    0  0.18177732396E+03 -0.23098192112E+03 -0.63221316350E+03  0.69720092333E+03  0.00000000000E+00 0. -1.
         11    1    3    3    0    0  0.24044800729E+02  0.33955301374E+01 -0.37318776337E+02  0.44523849051E+02  0.00000000000E+00 0.  1.
        -13    1    4    4    0    0 -0.11844770590E+03  0.26106873164E+03 -0.89982835075E+03  0.94439282213E+03  0.00000000000E+00 0.  1.
         13    1    4    4    0    0 -0.53953852847E+02  0.30868961285E+02 -0.14471063565E+03  0.15749628275E+03  0.00000000000E+00 0. -1.
         21    1    1    2  502  501 -0.38854811348E+02 -0.44423917446E+01 -0.31516466516E+02  0.50226674895E+02  0.00000000000E+00 0.  1.
         21    1    1    2  503  502  0.54342454105E+01 -0.59908910195E+02  0.91255570929E+02  0.10929861742E+03  0.00000000000E+00 0.  1.
<scales pt_clust_5="13000.00000" pt_clust_6="13000.00000" pt_clust_7="13000.00000" pt_clust_8="13000.00000" pt_clust_9="39.10794" pt_clust_10="65.19195"></scales>
<clustering>
<clus scale="   39.108">  1  9  2 -1</clus>
<clus scale="   65.192">  1 10  2 -1</clus>
<clus scale="   87.888">  5  6 -1 -1</clus>
<clus scale="   90.266">  7  8 -1 -1</clus>
<clus scale="  334.921">  1  5  2 -1</clus>
<clus scale="  335.553">  2  5  1 -1</clus>
</clustering>
</event>
<event>
10    2  0.1133532E-006  0.9701262E+02  0.7546771E-02  0.1288651E+00
          2   -1    0    0  503    0  0.00000000000E+00  0.00000000000E+00  0.48337522959E+03  0.48337522959E+03  0.00000000000E+00 0. -1.
         -2   -1    0    0    0  501 -0.00000000000E+00 -0.00000000000E+00 -0.55240105211E+02  0.55240105211E+02  0.00000000000E+00 0.  1.
         23    2    1    2    0    0 -0.13270042097E+01 -0.42885900312E+01  0.54945590231E+02  0.10297637019E+03  0.86976789928E+02 0.  0.
         23    2    1    2    0    0  0.77784392846E+02 -0.80121444584E+01  0.14187947341E+03  0.18566841628E+03  0.90710361021E+02 0.  0.
        -11    1    3    3    0    0  0.17939344269E+02  0.37094988573E+02  0.22268815342E+02  0.46837574519E+02  0.00000000000E+00 0.  1.
         11    1    3    3    0    0 -0.19266348479E+02 -0.41383578605E+02  0.32676774889E+02  0.56138795667E+02  0.00000000000E+00 0. -1.
        -13    1    4    4    0    0  0.49531389820E+02 -0.22798744183E+02  0.14373103026E+03  0.15372621888E+03  0.00000000000E+00 0. -1.
         13    1    4    4    0    0  0.28253003027E+02  0.14786599724E+02 -0.18515568423E+01  0.31942197391E+02  0.00000000000E+00 0.  1.
         21    1    1    2  502  501 -0.26603234566E+02  0.36301217579E+01  0.22241796416E+02  0.34865561535E+02  0.00000000000E+00 0. -1.
         21    1    1    2  503  502 -0.49854154071E+02  0.86706127317E+01  0.20906826431E+03  0.21510498680E+03  0.00000000000E+00 0. -1.
<scales pt_clust_5="13000.00000" pt_clust_6="13000.00000" pt_clust_7="13000.00000" pt_clust_8="13000.00000" pt_clust_9="26.84976" pt_clust_10="52.25781"></scales>
<clustering>
<clus scale="   26.850">  2  9  1 -1</clus>
<clus scale="   52.258">  1 10  2 -1</clus>
<clus scale="   86.977">  5  6 -1 -1</clus>
<clus scale="   90.710">  7  8 -1 -1</clus>
<clus scale="   93.531">  2  5  1 -1</clus>
<clus scale="   52.258">  1  5  2 -1</clus>
</clustering>
</event>
<event>
10    2  0.1133532E-006  0.1029030E+03  0.7546771E-02  0.1274474E+00
         -1   -1    0    0    0  501 -0.00000000000E+00  0.00000000000E+00  0.10389985387E+03  0.10389985387E+03  0.00000000000E+00 0.  1.
          1   -1    0    0  503    0  0.00000000000E+00 -0.00000000000E+00 -0.41885669430E+03  0.41885669430E+03  0.00000000000E+00 0. -1.
         23    2    1    2    0    0 -0.27109432393E+02 -0.25360913885E+02 -0.84902233216E+02  0.12913187725E+03  0.89936395528E+02 0.  0.
         23    2    1    2    0    0 -0.27280727587E+01  0.68562350870E+02 -0.20776803525E+03  0.23671075274E+03  0.90311603081E+02 0.  0.
        -13    1    3    3    0    0 -0.21664223727E+02 -0.54776009806E+02 -0.28835849508E+02  0.65583961887E+02  0.00000000000E+00 0.  1.
         13    1    3    3    0    0 -0.54452086657E+01  0.29415095921E+02 -0.56066383708E+02  0.63547915368E+02  0.00000000000E+00 0. -1.
        -13    1    4    4    0    0 -0.19224706040E+02 -0.15225623619E+02 -0.74472721501E+02  0.78406601665E+02  0.00000000000E+00 0.  1.
         13    1    4    4    0    0  0.16496633281E+02  0.83787974489E+02 -0.13329531375E+03  0.15830415107E+03  0.00000000000E+00 0. -1.
         21    1    1    2  502  501  0.71588664881E+01 -0.26223897152E+02  0.62159006548E+02  0.67843085471E+02  0.00000000000E+00 0.  1.
         21    1    1    2  503  502  0.22678638663E+02 -0.16977539834E+02 -0.84445578501E+02  0.89070832705E+02  0.00000000000E+00 0.  1.
<scales pt_clust_5="13000.00000" pt_clust_6="13000.00000" pt_clust_7="13000.00000" pt_clust_8="13000.00000" pt_clust_9="27.18349" pt_clust_10="29.62115"></scales>
<clustering>
<clus scale="   27.183">  1  9  2 -1</clus>
<clus scale="   29.621">  2 10  1 -1</clus>
<clus scale="   89.936">  5  6 -1 -1</clus>
<clus scale="   90.312">  7  8 -1 -1</clus>
<clus scale="  102.574">  1  5  2 -1</clus>
<clus scale="   29.621">  2  5  1 -1</clus>
</clustering>
</event>
<event>
10    2  0.1133532E-006  0.1050022E+03  0.7546771E-02  0.1275496E+00
          1   -1    0    0  503    0  0.00000000000E+00  0.00000000000E+00  0.51568890075E+03  0.51568890075E+03  0.00000000000E+00 0. -1.
         -1   -1    0    0    0  501 -0.00000000000E+00 -0.00000000000E+00 -0.51075200240E+02  0.51075200240E+02  0.00000000000E+00 0.  1.
         23    2    1    2    0    0 -0.71180123329E+02 -0.21072896112E+01  0.11859095943E+03  0.17143552044E+03  0.10126831381E+03 0.  0.
         23    2    1    2    0    0 -0.90019816538E+01  0.19767368247E+02  0.15114248943E+03  0.17750446621E+03  0.90509661874E+02 0.  0.
        -11    1    3    3    0    0  0.21524408516E+02 -0.51723499908E+01  0.16833006092E+01  0.22201055545E+02  0.00000000000E+00 0.  1.
         11    1    3    3    0    0 -0.92704531845E+02  0.30650603795E+01  0.11690765882E+03  0.14923446489E+03  0.00000000000E+00 0. -1.
        -11    1    4    4    0    0 -0.26092936280E+02 -0.79664664373E+01  0.14066159374E+03  0.14328290151E+03  0.00000000000E+00 0.  1.
         11    1    4    4    0    0  0.17090954626E+02  0.27733834684E+02  0.10480895693E+02  0.34221564705E+02  0.00000000000E+00 0. -1.
         21    1    1    2  502  501  0.43419806287E+02  0.47928384222E+01  0.48663903731E+02  0.65394391231E+02  0.00000000000E+00 0.  1.
         21    1    1    2  503  502  0.36762298695E+02 -0.22452917058E+02  0.14621634791E+03  0.15242972311E+03  0.00000000000E+00 0.  1.
<scales pt_clust_5="13000.00000" pt_clust_6="13000.00000" pt_clust_7="13000.00000" pt_clust_8="13000.00000" pt_clust_9="49.15942" pt_clust_10="43.07668"></scales>
<clustering>
<clus scale="   43.077">  1 10  2 -1</clus>
<clus scale="   49.159">  2  9  1 -1</clus>
<clus scale="   90.510">  7  8 -1 -1</clus>
<clus scale="   94.669">  1  7  2 -1</clus>
<clus scale="  101.268">  5  6 -1 -1</clus>
<clus scale="   43.077">  1  5  2 -1</clus>
</clustering>
</event>
<event>
10    2  0.1133532E-006  0.1048176E+03  0.7546771E-02  0.1271468E+00
         -1   -1    0    0    0  501 -0.00000000000E+00  0.00000000000E+00  0.33194075712E+03  0.33194075712E+03  0.00000000000E+00 0.  1.
          1   -1    0    0  503    0  0.00000000000E+00 -0.00000000000E+00 -0.67426842276E+02  0.67426842276E+02  0.00000000000E+00 0. -1.
         23    2    1    2    0    0  0.38423771079E+02 -0.52333961764E+02  0.15886967352E+03  0.19329859806E+03  0.88935623409E+02 0.  0.
         23    2    1    2    0    0 -0.26487137216E+02  0.30330831585E+02  0.67772585274E+02  0.12056475053E+03  0.91220655413E+02 0.  0.
        -11    1    3    3    0    0 -0.28977496985E+02 -0.19699463494E+02  0.45491020832E+02  0.57421225778E+02  0.00000000000E+00 0.  1.
         11    1    3    3    0    0  0.67401268064E+02 -0.32634498270E+02  0.11337865268E+03  0.13587737228E+03  0.00000000000E+00 0. -1.
        -13    1    4    4    0    0  0.22027396949E+02  0.42115760473E+01  0.61072708973E+02  0.65060121199E+02  0.00000000000E+00 0.  1.
         13    1    4    4    0    0 -0.48514534165E+02  0.26119255537E+02  0.66998763004E+01  0.55504629334E+02  0.00000000000E+00 0. -1.
         21    1    1    2  502  501 -0.26199593956E+02 -0.32744203399E+00  0.49934030043E+02  0.56390897299E+02  0.00000000000E+00 0.  1.
         21    1    1    2  503  502  0.14262960093E+02  0.22330572213E+02 -0.12062373989E+02  0.29113353504E+02  0.00000000000E+00 0. -1.
<scales pt_clust_5="13000.00000" pt_clust_6="13000.00000" pt_clust_7="13000.00000" pt_clust_8="13000.00000" pt_clust_9="26.20164" pt_clust_10="26.06579"></scales>
<clustering>
<clus scale="   26.202">  1  9  2 -1</clus>
<clus scale="   26.066">  2 10  1 -1</clus>
<clus scale="   88.936">  5  6 -1 -1</clus>
<clus scale="   91.221">  7  8 -1 -1</clus>
<clus scale="  102.835">  1  5  2 -1</clus>
<clus scale="   26.066">  2  5  1 -1</clus>
</clustering>
</event>
<event>
10    2  0.1133532E-006  0.1092025E+03  0.7546771E-02  0.1262506E+00
          1   -1    0    0  503    0  0.00000000000E+00  0.00000000000E+00  0.25025118296E+03  0.25025118296E+03  0.00000000000E+00 0. -1.
         -1   -1    0    0    0  501 -0.00000000000E+00 -0.00000000000E+00 -0.41561955943E+03  0.41561955943E+03  0.00000000000E+00 0.  1.
         23    2    1    2    0    0 -0.47247562212E+01  0.45106581381E+01 -0.21585208803E+03  0.23488822745E+03  0.92399600263E+02 0.  0.
         23    2    1    2    0    0 -0.10329317652E+03 -0.78014171231E+01  0.16727025328E+03  0.21688232719E+03  0.91259321676E+02 0.  0.
        -11    1    3    3    0    0 -0.20693756449E+02 -0.38968872780E+02 -0.80057104130E+02  0.91410855610E+02  0.00000000000E+00 0. -1.
         11    1    3    3    0    0  0.15969000228E+02  0.43479530919E+02 -0.13579498390E+03  0.14347737184E+03  0.00000000000E+00 0.  1.
        -13    1    4    4    0    0 -0.18569586489E+02  0.18527532811E+02 -0.14349093057E+01  0.26270857983E+02  0.00000000000E+00 0.  1.
         13    1    4    4    0    0 -0.84723590030E+02 -0.26328949934E+02  0.16870516258E+03  0.19061146921E+03  0.00000000000E+00 0. -1.
         21    1    1    2  502  501  0.62932028922E+02  0.21451882340E+02 -0.14384661137E+03  0.15846914880E+03  0.00000000000E+00 0.  1.
         21    1    1    2  503  502  0.45085903818E+02 -0.18161123355E+02  0.27060069645E+02  0.55631038943E+02  0.00000000000E+00 0.  1.
<scales pt_clust_5="13000.00000" pt_clust_6="13000.00000" pt_clust_7="13000.00000" pt_clust_8="13000.00000" pt_clust_9="67.78533" pt_clust_10="48.60623"></scales>
<clustering>
<clus scale="   48.606">  1 10  2 -1</clus>
<clus scale="   67.785">  2  9  1 -1</clus>
<clus scale="   91.259">  7  8 -1 -1</clus>
<clus scale="   92.400">  5  6 -1 -1</clus>
<clus scale="  108.239">  1  7  2 -1</clus>
<clus scale="   48.606">  1  5  2 -1</clus>
</clustering>
</event>
<event>
10    2  0.1133532E-006  0.2035371E+03  0.7546771E-02  0.1146802E+00
         -1   -1    0    0    0  501 -0.00000000000E+00  0.00000000000E+00  0.77679895632E+03  0.77679895632E+03  0.00000000000E+00 0.  1.
          1   -1    0    0  503    0  0.00000000000E+00 -0.00000000000E+00 -0.18976787549E+03  0.18976787549E+03  0.00000000000E+00 0. -1.
         23    2    1    2    0    0 -0.13406375846E+03 -0.19877807300E+02  0.23314434315E+03  0.28432756421E+03  0.90098060295E+02 0.  0.
         23    2    1    2    0    0  0.21063420903E+03  0.41094517943E+02 -0.27737617963E+02  0.23445418435E+03  0.90243335989E+02 0.  0.
        -11    1    3    3    0    0 -0.74976917106E+02 -0.36223026770E+02  0.65867683414E+02  0.10617060556E+03  0.00000000000E+00 0. -1.
         11    1    3    3    0    0 -0.59086841356E+02  0.16345219471E+02  0.16727665974E+03  0.17815695864E+03  0.00000000000E+00 0.  1.
        -13    1    4    4    0    0  0.13705298883E+03  0.27507821205E+02 -0.61065433215E+02  0.15254241741E+03  0.00000000000E+00 0. -1.
         13    1    4    4    0    0  0.73581220195E+02  0.13586696739E+02  0.33327815251E+02  0.81911766939E+02  0.00000000000E+00 0.  1.
         21    1    1    2  502  501 -0.50904986541E+02 -0.46029204883E+02  0.40123006572E+03  0.40705720850E+03  0.00000000000E+00 0.  1.
         21    1    1    2  503  502 -0.25665464027E+02  0.24812494239E+02 -0.19605710076E+02  0.40727874750E+02  0.00000000000E+00 0.  1.
<scales pt_clust_5="13000.00000" pt_clust_6="13000.00000" pt_clust_7="13000.00000" pt_clust_8="13000.00000" pt_clust_9="68.67629" pt_clust_10="35.69840"></scales>
<clustering>
<clus scale="   35.698">  2 10  1 -1</clus>
<clus scale="   68.676">  1  9  2 -1</clus>
<clus scale="   90.098">  5  6 -1 -1</clus>
<clus scale="   90.243">  7  8 -1 -1</clus>
<clus scale="  203.473">  1  5  2 -1</clus>
<clus scale="   35.698">  2  5  1 -1</clus>
</clustering>
</event>
<event>
10    2  0.1133532E-006  0.1140570E+03  0.7546771E-02  0.1253320E+00
          1   -1    0    0  503    0  0.00000000000E+00  0.00000000000E+00  0.33990556862E+03  0.33990556862E+03  0.00000000000E+00 0. -1.
         -1   -1    0    0    0  501 -0.00000000000E+00 -0.00000000000E+00 -0.89737354105E+02  0.89737354105E+02  0.00000000000E+00 0.  1.
         23    2    1    2    0    0  0.49347746945E+02 -0.40973529291E+02 -0.59697073777E+01  0.11411747143E+03  0.94197291088E+02 0.  0.
         23    2    1    2    0    0 -0.44908964469E+02  0.14969706784E+02  0.15664004184E+03  0.18892753195E+03  0.94427762932E+02 0.  0.
        -13    1    3    3    0    0  0.25135480353E+02 -0.70929775909E+02 -0.70778366419E+01  0.75583869010E+02  0.00000000000E+00 0.  1.
         13    1    3    3    0    0  0.24212266592E+02  0.29956246618E+02  0.11081292642E+01  0.38533602420E+02  0.00000000000E+00 0. -1.
        -13    1    4    4    0    0 -0.28502324235E+02  0.52846366170E+02  0.11794728218E+03  0.13235060362E+03  0.00000000000E+00 0. -1.
         13    1    4    4    0    0 -0.16406640235E+02 -0.37876659386E+02  0.38692759656E+02  0.56576928335E+02  0.00000000000E+00 0.  1.
         21    1    1    2  502  501  0.21526325730E+02  0.15387788494E+02  0.36278133280E+01  0.26708196564E+02  0.00000000000E+00 0. -1.
         21    1    1    2  503  502 -0.25965108205E+02  0.10616034012E+02  0.95870066725E+02  0.99889722775E+02  0.00000000000E+00 0. -1.
<scales pt_clust_5="13000.00000" pt_clust_6="13000.00000" pt_clust_7="13000.00000" pt_clust_8="13000.00000" pt_clust_9="26.46066" pt_clust_10="27.69504"></scales>
<clustering>
<clus scale="   26.461">  2  9  1 -1</clus>
<clus scale="   27.695">  1 10  2 -1</clus>
<clus scale="   94.197">  5  6 -1 -1</clus>
<clus scale="   94.428">  7  8 -1 -1</clus>
<clus scale="  113.866">  2  5  1 -1</clus>
<clus scale="   27.695">  1  5  2 -1</clus>
</clustering>
</event>
<event>
10    2  0.1133532E-006  0.9940378E+02  0.7546771E-02  0.1282032E+00
          3   -1    0    0  503    0  0.00000000000E+00  0.00000000000E+00  0.21682352647E+03  0.21682352647E+03  0.00000000000E+00 0. -1.
         -3   -1    0    0    0  501 -0.00000000000E+00 -0.00000000000E+00 -0.13504860661E+03  0.13504860661E+03  0.00000000000E+00 0.  1.
         23    2    1    2    0    0  0.14358689321E+02  0.22980169069E+02 -0.55705361089E+02  0.11057781333E+03  0.91597518620E+02 0.  0.
         23    2    1    2    0    0 -0.75264356733E+02 -0.22394647008E+02  0.54637233355E+02  0.13311302465E+03  0.92561365874E+02 0.  0.
        -11    1    3    3    0    0  0.48259034596E+02  0.10376685621E+01 -0.50504748742E+02  0.69862299001E+02  0.00000000000E+00 0.  1.
         11    1    3    3    0    0 -0.33900345275E+02  0.21942500507E+02 -0.52006123472E+01  0.40715514329E+02  0.00000000000E+00 0. -1.
        -11    1    4    4    0    0 -0.18865689546E+02  0.28438292328E+02  0.45149620359E+02  0.56596280188E+02  0.00000000000E+00 0.  1.
         11    1    4    4    0    0 -0.56398667187E+02 -0.50832939336E+02  0.94876129962E+01  0.76516744457E+02  0.00000000000E+00 0. -1.
         21    1    1    2  502  501  0.32449321824E+02  0.39589732252E+01  0.18220725743E+02  0.37424948931E+02  0.00000000000E+00 0.  1.
         21    1    1    2  503  502  0.28456345587E+02 -0.45444952862E+01  0.64622321853E+02  0.70756346169E+02  0.00000000000E+00 0.  1.
<scales pt_clust_5="13000.00000" pt_clust_6="13000.00000" pt_clust_7="13000.00000" pt_clust_8="13000.00000" pt_clust_9="37.88616" pt_clust_10="28.81694"></scales>
<clustering>
<clus scale="   28.817">  1 10  2 -1</clus>
<clus scale="   37.886">  1  9  2 -1</clus>
<clus scale="   91.598">  5  6 -1 -1</clus>
<clus scale="   92.561">  7  8 -1 -1</clus>
<clus scale="   98.507">  2  5  1 -1</clus>
<clus scale="   28.817">  1  5  2 -1</clus>
</clustering>
</event>
<event>
10    2  0.1133532E-006  0.1120072E+03  0.7546771E-02  0.1257496E+00
          1   -1    0    0  503    0  0.00000000000E+00  0.00000000000E+00  0.11513192059E+03  0.11513192059E+03  0.00000000000E+00 0. -1.
         -1   -1    0    0    0  501 -0.00000000000E+00 -0.00000000000E+00 -0.42495031105E+03  0.42495031105E+03  0.00000000000E+00 0.  1.
         23    2    1    2    0    0 -0.10186027892E+03  0.13240352403E+02 -0.11101207414E+03  0.17700407406E+03  0.91956175845E+02 0.  0.
         23    2    1    2    0    0  0.17169484287E+02  0.64570805716E+02 -0.71341498413E+02  0.13310296289E+03  0.90347159302E+02 0.  0.
        -13    1    4    4    0    0  0.45948353166E+02  0.49773037142E+02 -0.74376472834E+02  0.10060052732E+03  0.00000000000E+00 0. -1.
         13    1    4    4    0    0 -0.28778868879E+02  0.14797768574E+02  0.30349744219E+01  0.32502435577E+02  0.00000000000E+00 0.  1.
        -13    1    3    3    0    0 -0.33431971741E+02 -0.18101119557E+02  0.53808170908E+01  0.38396620375E+02  0.00000000000E+00 0. -1.
         13    1    3    3    0    0 -0.68428307176E+02  0.31341471959E+02 -0.11639289123E+03  0.13860745369E+03  0.00000000000E+00 0.  1.
         21    1    1    2  502  501  0.18572622613E+02  0.87594644496E+01 -0.11895208721E+03  0.12071151386E+03  0.00000000000E+00 0.  1.
         21    1    1    2  503  502  0.66118172017E+02 -0.86570622568E+02 -0.85127306931E+01  0.10926368082E+03  0.00000000000E+00 0.  1.
<scales pt_clust_5="13000.00000" pt_clust_6="13000.00000" pt_clust_7="13000.00000" pt_clust_8="13000.00000" pt_clust_9="20.53462" pt_clust_10="109.83209"></scales>
<clustering>
<clus scale="   20.535">  2  9  1 -1</clus>
<clus scale="   90.347">  5  6 -1 -1</clus>
<clus scale="   91.956">  7  8 -1 -1</clus>
<clus scale="  109.832">  1 10  2 -1</clus>
<clus scale="  110.690">  1  5  2 -1</clus>
<clus scale="  109.832">  1  5  2 -1</clus>
</clustering>
</event>
<event>
10    2  0.1133532E-006  0.1055985E+03  0.7546771E-02  0.1273157E+00
          1   -1    0    0  503    0  0.00000000000E+00  0.00000000000E+00  0.20507703382E+03  0.20507703382E+03  0.00000000000E+00 0. -1.
         -1   -1    0    0    0  501 -0.00000000000E+00 -0.00000000000E+00 -0.11825050765E+03  0.11825050765E+03  0.00000000000E+00 0.  1.
         23    2    1    2    0    0 -0.74853650264E+02 -0.45112896658E+01  0.30888817573E+02  0.12369091082E+03  0.93391122043E+02 0.  0.
         23    2    1    2    0    0  0.23523975755E+02 -0.17813045480E+02  0.80996766697E+02  0.12033028835E+03  0.83953678030E+02 0.  0.
        -13    1    3    3    0    0  0.92578858886E+01  0.24146651039E+02 -0.74515902943E+01  0.26912736862E+02  0.00000000000E+00 0.  1.
         13    1    3    3    0    0 -0.84111536152E+02 -0.28657940704E+02  0.38340407868E+02  0.96778173959E+02  0.00000000000E+00 0. -1.
        -13    1    4    4    0    0 -0.19952168234E+02 -0.17229049728E+02  0.70971804915E+02  0.75709485962E+02  0.00000000000E+00 0.  1.
         13    1    4    4    0    0  0.43476143988E+02 -0.58399575235E+00  0.10024961782E+02  0.44620802389E+02  0.00000000000E+00 0. -1.
         21    1    1    2  502  501  0.21414526621E+02  0.14910761279E+02 -0.37820329344E+02  0.45948776524E+02  0.00000000000E+00 0.  1.
         21    1    1    2  503  502  0.29915147889E+02  0.74135738667E+01  0.12761271244E+02  0.33357565775E+02  0.00000000000E+00 0.  1.
<scales pt_clust_5="13000.00000" pt_clust_6="13000.00000" pt_clust_7="13000.00000" pt_clust_8="13000.00000" pt_clust_9="26.09430" pt_clust_10="34.12992"></scales>
<clustering>
<clus scale="   26.094">  2  9  1 -1</clus>
<clus scale="   34.130">  1 10  2 -1</clus>
<clus scale="   83.954">  7  8 -1 -1</clus>
<clus scale="   93.391">  5  6 -1 -1</clus>
<clus scale="   97.352">  1  7  2 -1</clus>
<clus scale="   34.130">  1  5  2 -1</clus>
</clustering>
</event>
<event>
10    2  0.1133532E-006  0.1742766E+03  0.7546771E-02  0.1183342E+00
          2   -1    0    0  503    0  0.00000000000E+00  0.00000000000E+00  0.16512593914E+04  0.16512593914E+04  0.00000000000E+00 0. -1.
         -2   -1    0    0    0  501 -0.00000000000E+00 -0.00000000000E+00 -0.76789815397E+02  0.76789815397E+02  0.00000000000E+00 0.  1.
         23    2    1    2    0    0 -0.10130359762E+03  0.28812170123E+02  0.73712020817E+02  0.15801891649E+03  0.91891000190E+02 0.  0.
         23    2    1    2    0    0  0.17439354039E+02  0.13962088373E+03  0.66321433436E+03  0.68386695001E+03  0.89569134064E+02 0.  0.
        -13    1    4    4    0    0 -0.47222402136E+01  0.14035324919E+03  0.61451656704E+03  0.63035858468E+03  0.00000000000E+00 0.  1.
         13    1    4    4    0    0  0.22161594253E+02 -0.73236545478E+00  0.48697767317E+02  0.53508365334E+02  0.00000000000E+00 0. -1.
        -13    1    3    3    0    0 -0.10937165171E+03  0.14379560447E+01  0.68352093889E+02  0.12898152835E+03  0.00000000000E+00 0.  1.
         13    1    3    3    0    0  0.80680540900E+01  0.27374214078E+02  0.53599269279E+01  0.29037388138E+02  0.00000000000E+00 0. -1.
         21    1    1    2  502  501 -0.37673526442E+01 -0.20563084318E+02 -0.86975724808E+01  0.22642463419E+02  0.00000000000E+00 0. -1.
         21    1    1    2  503  502  0.87631596228E+02 -0.14786996954E+03  0.84624079328E+03  0.86352087685E+03  0.00000000000E+00 0. -1.
<scales pt_clust_5="13000.00000" pt_clust_6="13000.00000" pt_clust_7="13000.00000" pt_clust_8="13000.00000" pt_clust_9="20.90534" pt_clust_10="149.49822"></scales>
<clustering>
<clus scale="   20.905">  2  9  1 -1</clus>
<clus scale="   89.569">  5  6 -1 -1</clus>
<clus scale="   91.891">  7  8 -1 -1</clus>
<clus scale="  139.476">  2  7  1 -1</clus>
<clus scale="  149.498">  1 10  2 -1</clus>
<clus scale="  149.498">  1  5  2 -1</clus>
</clustering>
</event>
<event>
10    2  0.1133532E-006  0.1114994E+03  0.7546771E-02  0.1260369E+00
         -2   -1    0    0    0  501 -0.00000000000E+00  0.00000000000E+00  0.11457964222E+03  0.11457964222E+03  0.00000000000E+00 0.  1.
          2   -1    0    0  503    0  0.00000000000E+00 -0.00000000000E+00 -0.37912689931E+03  0.37912689931E+03  0.00000000000E+00 0. -1.
         23    2    1    2    0    0 -0.39921424646E+02  0.28889653702E+02  0.57929585690E+02  0.12385491845E+03  0.97754138983E+02 0.  0.
         23    2    1    2    0    0  0.60954691535E+02 -0.62760347129E+02 -0.23222911275E+03  0.26448589414E+03  0.91477274776E+02 0.  0.
        -11    1    3    3    0    0  0.20804208746E+02  0.41857976488E+02  0.31518408621E+02  0.56376549905E+02  0.00000000000E+00 0. -1.
         11    1    3    3    0    0 -0.60725633391E+02 -0.12968322787E+02  0.26411177069E+02  0.67478368540E+02  0.00000000000E+00 0.  1.
        -13    1    4    4    0    0 -0.51300715231E+01  0.20009229513E+02 -0.39027363985E+02  0.44156789276E+02  0.00000000000E+00 0.  1.
         13    1    4    4    0    0  0.66084763058E+02 -0.82769576642E+02 -0.19320174876E+03  0.22032910486E+03  0.00000000000E+00 0. -1.
         21    1    1    2  502  501 -0.26194263216E+02  0.13169139303E+02 -0.32333113788E+02  0.43646258748E+02  0.00000000000E+00 0. -1.
         21    1    1    2  503  502  0.51609963270E+01  0.20701554125E+02 -0.57914616250E+02  0.61719470199E+02  0.00000000000E+00 0. -1.
<scales pt_clust_5="13000.00000" pt_clust_6="13000.00000" pt_clust_7="13000.00000" pt_clust_8="13000.00000" pt_clust_9="29.97851" pt_clust_10="21.33519"></scales>
<clustering>
<clus scale="   21.335">  2 10  1 -1</clus>
<clus scale="   29.979">  2  9  1 -1</clus>
<clus scale="   91.477">  7  8 -1 -1</clus>
<clus scale="   97.754">  5  6 -1 -1</clus>
<clus scale="  106.039">  2  7  1 -1</clus>
<clus scale="   21.335">  2  5  1 -1</clus>
</clustering>
</event>
<event>
10    2  0.1133532E-006  0.1339009E+03  0.7546771E-02  0.1225206E+00
          2   -1    0    0  503    0  0.00000000000E+00  0.00000000000E+00  0.12461904628E+03  0.12461904628E+03  0.00000000000E+00 0. -1.
         -2   -1    0    0    0  501 -0.00000000000E+00 -0.00000000000E+00 -0.59304669582E+03  0.59304669582E+03  0.00000000000E+00 0.  1.
         23    2    1    2    0    0  0.38509923210E+02  0.11709070939E+03 -0.40438497573E+03  0.43507092387E+03  0.10279227496E+03 0.  0.
         23    2    1    2    0    0 -0.21919017889E+02 -0.95464808209E+02  0.53427256229E+02  0.14361394366E+03  0.90424112673E+02 0.  0.
        -11    1    3    3    0    0  0.12757494623E+02  0.83756709352E+02 -0.37310681292E+03  0.38260506254E+03  0.00000000000E+00 0.  1.
         11    1    3    3    0    0  0.25752428587E+02  0.33334000042E+02 -0.31278162802E+02  0.52465861331E+02  0.00000000000E+00 0. -1.
        -11    1    4    4    0    0 -0.49545191899E+02 -0.21238981717E+02  0.25513920360E+02  0.59638750127E+02  0.00000000000E+00 0.  1.
         11    1    4    4    0    0  0.27626174009E+02 -0.74225826492E+02  0.27913335869E+02  0.83975193528E+02  0.00000000000E+00 0. -1.
         21    1    1    2  502  501 -0.17508458026E+02 -0.42738656525E+02 -0.10433056898E+03  0.11409647885E+03  0.00000000000E+00 0.  1.
         21    1    1    2  503  502  0.91755270512E+00  0.21112755340E+02 -0.13139361065E+02  0.24884395717E+02  0.00000000000E+00 0. -1.
<scales pt_clust_5="13000.00000" pt_clust_6="13000.00000" pt_clust_7="13000.00000" pt_clust_8="13000.00000" pt_clust_9="45.36919" pt_clust_10="21.13268"></scales>
<clustering>
<clus scale="   21.133">  1 10  2 -1</clus>
<clus scale="   45.369">  2  9  1 -1</clus>
<clus scale="   90.424">  7  8 -1 -1</clus>
<clus scale="  102.792">  5  6 -1 -1</clus>
<clus scale="  124.658">  1  7  2 -1</clus>
<clus scale="   21.133">  1  5  2 -1</clus>
</clustering>
</event>
<event>
10    2  0.1133532E-006  0.1056376E+03  0.7546771E-02  0.1269383E+00
          1   -1    0    0  503    0  0.00000000000E+00  0.00000000000E+00  0.50886096744E+03  0.50886096744E+03  0.00000000000E+00 0. -1.
         -1   -1    0    0    0  501 -0.00000000000E+00 -0.00000000000E+00 -0.59639563340E+02  0.59639563340E+02  0.00000000000E+00 0.  1.
         23    2    1    2    0    0 -0.47148083391E+02 -0.63148877758E+02  0.17016712028E+03  0.20894817077E+03  0.92150782492E+02 0.  0.
         23    2    1    2    0    0  0.34709688755E+02 -0.15579321491E+01  0.18532906317E+03  0.21039523268E+03  0.93338644899E+02 0.  0.
        -11    1    3    3    0    0  0.11091480022E+02  0.17702527660E+02  0.38796685119E+02  0.44063399674E+02  0.00000000000E+00 0.  1.
         11    1    3    3    0    0 -0.58239563413E+02 -0.80851405418E+02  0.13137043516E+03  0.16488477109E+03  0.00000000000E+00 0. -1.
        -13    1    4    4    0    0  0.86223591198E+01  0.44351385205E+02  0.66902307829E+02  0.80729853457E+02  0.00000000000E+00 0.  1.
         13    1    4    4    0    0  0.26087329635E+02 -0.45909317355E+02  0.11842675534E+03  0.12966537922E+03  0.00000000000E+00 0. -1.
         21    1    1    2  502  501  0.18894885502E+02  0.27593211379E+02 -0.13075192009E+02  0.35907696367E+02  0.00000000000E+00 0.  1.
         21    1    1    2  503  502 -0.64564908650E+01  0.37113598527E+02  0.10680041266E+03  0.11324943097E+03  0.00000000000E+00 0. -1.
<scales pt_clust_5="13000.00000" pt_clust_6="13000.00000" pt_clust_7="13000.00000" pt_clust_8="13000.00000" pt_clust_9="33.44252" pt_clust_10="39.92536"></scales>
<clustering>
<clus scale="   33.443">  2  9  1 -1</clus>
<clus scale="   39.925">  1 10  2 -1</clus>
<clus scale="   92.151">  5  6 -1 -1</clus>
<clus scale="   93.339">  7  8 -1 -1</clus>
<clus scale="  104.590">  2  5  1 -1</clus>
<clus scale="   39.925">  1  5  2 -1</clus>
</clustering>
</event>
<event>
10    2  0.1133532E-006  0.1040184E+03  0.7546771E-02  0.1273027E+00
          2   -1    0    0  503    0  0.00000000000E+00  0.00000000000E+00  0.85226310582E+03  0.85226310582E+03  0.00000000000E+00 0. -1.
         -2   -1    0    0    0  501 -0.00000000000E+00 -0.00000000000E+00 -0.24948888425E+02  0.24948888425E+02  0.00000000000E+00 0.  1.
         23    2    1    2    0    0  0.25655669945E+02 -0.39070948186E+02  0.14491989758E+03  0.17803939858E+03  0.92257781999E+02 0.  0.
         23    2    1    2    0    0 -0.22355176329E+02  0.47260818282E+02  0.47353398685E+03  0.48485668981E+03  0.90101243632E+02 0.  0.
        -13    1    3    3    0    0  0.56286586387E+02 -0.17068462837E+02  0.54982402909E+02  0.80514451252E+02  0.00000000000E+00 0.  1.
         13    1    3    3    0    0 -0.30630916441E+02 -0.22002485349E+02  0.89937494670E+02  0.97524947327E+02  0.00000000000E+00 0. -1.
        -13    1    4    4    0    0  0.31998352738E+02  0.15710549933E+02  0.10211539894E+03  0.10815854408E+03  0.00000000000E+00 0.  1.
         13    1    4    4    0    0 -0.54353529066E+02  0.31550268349E+02  0.37141858791E+03  0.37669814573E+03  0.00000000000E+00 0. -1.
         21    1    1    2  502  501 -0.23687487466E+02 -0.13090925133E+02  0.11488108421E+03  0.11802598398E+03  0.00000000000E+00 0. -1.
         21    1    1    2  503  502  0.20386993850E+02  0.49010550376E+01  0.93979248751E+02  0.96289921874E+02  0.00000000000E+00 0.  1.
<scales pt_clust_5="13000.00000" pt_clust_6="13000.00000" pt_clust_7="13000.00000" pt_clust_8="13000.00000" pt_clust_9="23.97039" pt_clust_10="20.96783"></scales>
<clustering>
<clus scale="   20.968">  1 10  2 -1</clus>
<clus scale="   23.970">  1  9  2 -1</clus>
<clus scale="   90.101">  7  8 -1 -1</clus>
<clus scale="   92.258">  5  6 -1 -1</clus>
<clus scale="  102.111">  1  7  2 -1</clus>
<clus scale="   20.968">  1  5  2 -1</clus>
</clustering>
</event>
<event>
10    2  0.1133532E-006  0.9137450E+02  0.7546771E-02  0.1301859E+00
          1   -1    0    0  502    0  0.00000000000E+00  0.00000000000E+00  0.16053264633E+03  0.16053264633E+03  0.00000000000E+00 0. -1.
         -1   -1    0    0    0  501 -0.00000000000E+00 -0.00000000000E+00 -0.18518508255E+03  0.18518508255E+03  0.00000000000E+00 0.  1.
         23    2    1    2    0    0  0.12299855944E+02 -0.12002900077E+02 -0.75666560145E+02  0.11666552856E+03  0.87120957081E+02 0.  0.
         23    2    1    2    0    0 -0.83063800128E+01 -0.64881379764E+00  0.11051617556E+03  0.14336002895E+03  0.90933249865E+02 0.  0.
        -11    1    3    3    0    0  0.19886517712E+02 -0.36311337903E+02 -0.51836700990E+01  0.41723581854E+02  0.00000000000E+00 0. -1.
         11    1    3    3    0    0 -0.75866617679E+01  0.24308437826E+02 -0.70482890046E+02  0.74941946702E+02  0.00000000000E+00 0.  1.
        -13    1    4    4    0    0 -0.43103996835E+02  0.65159679642E+01  0.23843066375E+02  0.49688068948E+02  0.00000000000E+00 0.  1.
         13    1    4    4    0    0  0.34797616822E+02 -0.71647817619E+01  0.86673109187E+02  0.93671960001E+02  0.00000000000E+00 0. -1.
         21    1    1    2  502  503 -0.26903362567E+02  0.96712160096E+01 -0.55239791177E+02  0.62199339754E+02  0.00000000000E+00 0. -1.
         21    1    1    2  503  501  0.22909886636E+02  0.29804978647E+01 -0.42622604589E+01  0.23492831618E+02  0.00000000000E+00 0. -1.
<scales pt_clust_5="13000.00000" pt_clust_6="13000.00000" pt_clust_7="13000.00000" pt_clust_8="13000.00000" pt_clust_9="21.84623" pt_clust_10="23.10295"></scales>
<clustering>
<clus scale="   23.103">  2 10  1 -1</clus>
<clus scale="   21.846">  2  9  1 -1</clus>
<clus scale="   87.121">  5  6 -1 -1</clus>
<clus scale="   87.581">  2  5  1 -1</clus>
<clus scale="   90.933">  7  8 -1 -1</clus>
<clus scale="   91.375">  1  5  2 -1</clus>
</clustering>
</event>
<event>
10    2  0.1133532E-006  0.1531412E+03  0.7546771E-02  0.1196744E+00
         -2   -1    0    0    0  501 -0.00000000000E+00  0.00000000000E+00  0.10338129276E+03  0.10338129276E+03  0.00000000000E+00 0.  1.
          2   -1    0    0  503    0  0.00000000000E+00 -0.00000000000E+00 -0.55182223880E+03  0.55182223880E+03  0.00000000000E+00 0. -1.
         23    2    1    2    0    0  0.10858026054E+03  0.22008251870E+02  0.15881255448E+01  0.14325346317E+03  0.90801962736E+02 0.  0.
         23    2    1    2    0    0 -0.95383428507E+02 -0.53198756933E+02 -0.38601314227E+03  0.41141204514E+03  0.91244828389E+02 0.  0.
        -13    1    4    4    0    0 -0.30168570565E+02 -0.41910730240E+02 -0.61906581733E+02  0.80616851967E+02  0.00000000000E+00 0.  1.
         13    1    4    4    0    0 -0.65214857942E+02 -0.11288026693E+02 -0.32410656054E+03  0.33079519317E+03  0.00000000000E+00 0. -1.
        -13    1    3    3    0    0  0.10165593100E+03 -0.10692502595E+02  0.21350328279E+02  0.10442267205E+03  0.00000000000E+00 0.  1.
         13    1    3    3    0    0  0.69243295412E+01  0.32700754465E+02 -0.19762202735E+02  0.38830791121E+02  0.00000000000E+00 0. -1.
         21    1    1    2  502  501  0.10662370695E+02  0.34147117274E+02 -0.41352296293E+01  0.36011274499E+02  0.00000000000E+00 0.  1.
         21    1    1    2  503  502 -0.23859202732E+02 -0.29566122114E+01 -0.59880699675E+02  0.64526748751E+02  0.00000000000E+00 0.  1.
<scales pt_clust_5="13000.00000" pt_clust_6="13000.00000" pt_clust_7="13000.00000" pt_clust_8="13000.00000" pt_clust_9="35.37719" pt_clust_10="24.04170"></scales>
<clustering>
<clus scale="   24.042">  2 10  1 -1</clus>
<clus scale="   35.377">  1  9  2 -1</clus>
<clus scale="   90.802">  7  8 -1 -1</clus>
<clus scale="   91.245">  5  6 -1 -1</clus>
<clus scale="  152.878">  1  7  2 -1</clus>
<clus scale="   24.042">  2  5  1 -1</clus>
</clustering>
</event>
<event>
10    2  0.1133532E-006  0.1250721E+03  0.7546771E-02  0.1235434E+00
         -1   -1    0    0    0  501 -0.00000000000E+00  0.00000000000E+00  0.28763164859E+03  0.28763164859E+03  0.00000000000E+00 0.  1.
          1   -1    0    0  503    0  0.00000000000E+00 -0.00000000000E+00 -0.36345454550E+03  0.36345454550E+03  0.00000000000E+00 0. -1.
         23    2    1    2    0    0 -0.28337301704E+02 -0.10084829359E+03  0.16729008157E+03  0.21749964873E+03  0.91360521116E+02 0.  0.
         23    2    1    2    0    0 -0.38846148430E+02  0.10219039645E+03 -0.24919905215E+03  0.28652409849E+03  0.89688299386E+02 0.  0.
        -13    1    3    3    0    0 -0.30572873670E+02 -0.10788434241E+02  0.99804454667E+02  0.10493817270E+03  0.00000000000E+00 0. -1.
         13    1    3    3    0    0  0.22355719659E+01 -0.90059859353E+02  0.67485626903E+02  0.11256147603E+03  0.00000000000E+00 0.  1.
        -13    1    4    4    0    0 -0.61160930464E+02  0.90537554503E+02 -0.23076050247E+03  0.25531963828E+03  0.00000000000E+00 0. -1.
         13    1    4    4    0    0  0.22314782034E+02  0.11652841951E+02 -0.18438549684E+02  0.31204460214E+02  0.00000000000E+00 0.  1.
         21    1    1    2  502  501  0.17398912122E+01  0.23896793229E+02  0.56042220711E+02  0.60949277684E+02  0.00000000000E+00 0.  1.
         21    1    1    2  503  502  0.65443558922E+02 -0.25238896089E+02 -0.49956147039E+02  0.86113169185E+02  0.00000000000E+00 0. -1.
<scales pt_clust_5="13000.00000" pt_clust_6="13000.00000" pt_clust_7="13000.00000" pt_clust_8="13000.00000" pt_clust_9="23.96005" pt_clust_10="69.61487"></scales>
<clustering>
<clus scale="   23.960">  1  9  2 -1</clus>
<clus scale="   69.615">  2 10  1 -1</clus>
<clus scale="   89.688">  7  8 -1 -1</clus>
<clus scale="   91.361">  5  6 -1 -1</clus>
<clus scale="  123.856">  2  7  1 -1</clus>
<clus scale="   69.615">  2  5  1 -1</clus>
</clustering>
</event>
<event>
10    2  0.1207522E-006  0.1506638E+03  0.7546771E-02  0.1201604E+00
          1   -1    0    0  503    0  0.00000000000E+00  0.00000000000E+00  0.12825664578E+04  0.12825664578E+04  0.00000000000E+00 0. -1.
         -1   -1    0    0    0  501 -0.00000000000E+00 -0.00000000000E+00 -0.22043778185E+03  0.22043778185E+03  0.00000000000E+00 0.  1.
         23    2    1    2    0    0 -0.72352240740E+02 -0.40761570229E+02 -0.15126367671E+03  0.19528030622E+03  0.91418519785E+02 0.  0.
         23    2    1    2    0    0  0.80297584270E+02  0.14575498581E+03  0.81438740258E+03  0.83732490766E+03  0.10096505122E+03 0.  0.
        -13    1    4    4    0    0  0.10135951670E+03  0.13053551542E+03  0.74784671502E+03  0.76589031955E+03  0.00000000000E+00 0. -1.
         13    1    4    4    0    0 -0.21061932433E+02  0.15219470395E+02  0.66540687565E+02  0.71434588111E+02  0.00000000000E+00 0.  1.
        -13    1    3    3    0    0 -0.11836169279E+02 -0.46206228606E+02 -0.22162498491E+02  0.52595501752E+02  0.00000000000E+00 0. -1.
         13    1    3    3    0    0 -0.60516071461E+02  0.54446583772E+01 -0.12910117821E+03  0.14268480447E+03  0.00000000000E+00 0.  1.
         21    1    1    2  502  501 -0.67751232335E+01 -0.38271418230E+02 -0.21646051075E+02  0.44487698022E+02  0.00000000000E+00 0. -1.
         21    1    1    2  503  502 -0.11702202958E+01 -0.66721997354E+02  0.42065100117E+03  0.42591132778E+03  0.00000000000E+00 0.  1.
<scales pt_clust_5="13000.00000" pt_clust_6="13000.00000" pt_clust_7="13000.00000" pt_clust_8="13000.00000" pt_clust_9="38.86649" pt_clust_10="67.27112"></scales>
<clustering>
<clus scale="   38.866">  2  9  1 -1</clus>
<clus scale="   67.271">  1 10  2 -1</clus>
<clus scale="   91.419">  7  8 -1 -1</clus>
<clus scale="  100.965">  5  6 -1 -1</clus>
<clus scale="  144.440">  2  7  1 -1</clus>
<clus scale="   67.271">  1  5  2 -1</clus>
</clustering>
</event>
<event>
10    2  0.1133532E-006  0.1894502E+03  0.7546771E-02  0.1158986E+00
         -2   -1    0    0    0  501 -0.00000000000E+00  0.00000000000E+00  0.44966595895E+03  0.44966595895E+03  0.00000000000E+00 0.  1.
          2   -1    0    0  503    0  0.00000000000E+00 -0.00000000000E+00 -0.55687149897E+03  0.55687149897E+03  0.00000000000E+00 0. -1.
         23    2    1    2    0    0  0.15092097573E+03 -0.48521795287E+02  0.19650956172E+03  0.26801506042E+03  0.89914177044E+02 0.  0.
         23    2    1    2    0    0 -0.15741484613E+03  0.41422173918E+02 -0.38564471722E+03  0.42808336880E+03  0.89656524863E+02 0.  0.
        -13    1    3    3    0    0  0.27763024309E+02 -0.52093878520E+02  0.65147380642E+02  0.87913246457E+02  0.00000000000E+00 0. -1.
         13    1    3    3    0    0  0.12315795142E+03  0.35720832334E+01  0.13136218108E+03  0.18010181397E+03  0.00000000000E+00 0.  1.
        -13    1    4    4    0    0 -0.15675599457E+03  0.13191195829E+02 -0.33504400834E+03  0.37013637622E+03  0.00000000000E+00 0. -1.
         13    1    4    4    0    0 -0.65885155490E+00  0.28230978089E+02 -0.50600708889E+02  0.57946992582E+02  0.00000000000E+00 0.  1.
         21    1    1    2  502  501 -0.15348765971E+01 -0.29987036613E+02  0.19183335146E+03  0.19416903188E+03  0.00000000000E+00 0.  1.
         21    1    1    2  503  502  0.80287469958E+01  0.37086657982E+02 -0.10990373597E+03  0.11626999681E+03  0.00000000000E+00 0. -1.
<scales pt_clust_5="13000.00000" pt_clust_6="13000.00000" pt_clust_7="13000.00000" pt_clust_8="13000.00000" pt_clust_9="30.02629" pt_clust_10="37.57831"></scales>
<clustering>
<clus scale="   30.026">  1  9  2 -1</clus>
<clus scale="   37.578">  2 10  1 -1</clus>
<clus scale="   89.657">  7  8 -1 -1</clus>
<clus scale="   89.914">  5  6 -1 -1</clus>
<clus scale="  189.328">  2  7  1 -1</clus>
<clus scale="   37.578">  2  5  1 -1</clus>
</clustering>
</event>
<event>
10    2  0.1133532E-006  0.1819864E+03  0.7546771E-02  0.1166088E+00
         -1   -1    0    0    0  501 -0.00000000000E+00  0.00000000000E+00  0.60909075540E+03  0.60909075540E+03  0.00000000000E+00 0.  1.
          1   -1    0    0  503    0  0.00000000000E+00 -0.00000000000E+00 -0.15658152161E+03  0.15658152161E+03  0.00000000000E+00 0. -1.
         23    2    1    2    0    0 -0.16390970195E+03 -0.69936844882E+02  0.40233283705E+03  0.44936585673E+03  0.91106579111E+02 0.  0.
         23    2    1    2    0    0  0.13042719617E+03  0.79649919818E+02  0.77051636632E+02  0.19464374628E+03  0.92703128476E+02 0.  0.
        -11    1    3    3    0    0 -0.16940294590E+02  0.17066374505E+02  0.92536392033E+02  0.95609720060E+02  0.00000000000E+00 0.  1.
         11    1    3    3    0    0 -0.14696940736E+03 -0.87003219387E+02  0.30979644502E+03  0.35375613667E+03  0.00000000000E+00 0. -1.
        -13    1    4    4    0    0  0.41027808054E+02 -0.12956685987E+02 -0.28896303979E+01  0.43121997974E+02  0.00000000000E+00 0.  1.
         13    1    4    4    0    0  0.89399388115E+02  0.92606605805E+02  0.79941267030E+02  0.15152174830E+03  0.00000000000E+00 0. -1.
         21    1    1    2  502  501  0.27124908876E+02  0.11873284052E+02  0.40761389427E+02  0.50380814044E+02  0.00000000000E+00 0. -1.
         21    1    1    2  503  502  0.63575969082E+01 -0.21586358989E+02 -0.67636629326E+02  0.71281859961E+02  0.00000000000E+00 0. -1.
<scales pt_clust_5="13000.00000" pt_clust_6="13000.00000" pt_clust_7="13000.00000" pt_clust_8="13000.00000" pt_clust_9="29.47916" pt_clust_10="22.50311"></scales>
<clustering>
<clus scale="   22.503">  2 10  1 -1</clus>
<clus scale="   29.479">  1  9  2 -1</clus>
<clus scale="   91.107">  5  6 -1 -1</clus>
<clus scale="   92.703">  7  8 -1 -1</clus>
<clus scale="  181.178">  1  5  2 -1</clus>
<clus scale="   22.503">  2  5  1 -1</clus>
</clustering>
</event>
<event>
10    2  0.1133532E-006  0.9339891E+02  0.7546771E-02  0.1296567E+00
          1   -1    0    0  503    0  0.00000000000E+00  0.00000000000E+00  0.37483087484E+03  0.37483087484E+03  0.00000000000E+00 0. -1.
         -1   -1    0    0    0  501 -0.00000000000E+00 -0.00000000000E+00 -0.14160661903E+03  0.14160661903E+03  0.00000000000E+00 0.  1.
         23    2    1    2    0    0  0.96898028525E+01 -0.59974819934E+01  0.80694908951E+02  0.12107498672E+03  0.89541174933E+02 0.  0.
         23    2    1    2    0    0  0.16549455298E+02 -0.15196962099E+02  0.14863808419E+03  0.17652886724E+03  0.92543658725E+02 0.  0.
        -11    1    3    3    0    0  0.25747777882E+00 -0.31353691013E+02  0.87693709027E+02  0.93130590237E+02  0.00000000000E+00 0. -1.
         11    1    3    3    0    0  0.94323250737E+01  0.25356209020E+02 -0.69988000764E+01  0.27944396480E+02  0.00000000000E+00 0.  1.
        -13    1    4    4    0    0  0.35189675740E+02  0.17940802903E+02  0.23995883081E+02  0.46216751209E+02  0.00000000000E+00 0.  1.
         13    1    4    4    0    0 -0.18640220442E+02 -0.33137765002E+02  0.12464220111E+03  0.13031211603E+03  0.00000000000E+00 0. -1.
         21    1    1    2  502  501 -0.18839880284E+01  0.69722938063E+02 -0.87884642788E+02  0.11219869848E+03  0.00000000000E+00 0.  1.
         21    1    1    2  503  502 -0.24355270122E+02 -0.48528493971E+02  0.91775905458E+02  0.10663494142E+03  0.00000000000E+00 0. -1.
<scales pt_clust_5="13000.00000" pt_clust_6="13000.00000" pt_clust_7="13000.00000" pt_clust_8="13000.00000" pt_clust_9="67.64720" pt_clust_10="54.29727"></scales>
<clustering>
<clus scale="   54.297">  1 10  2 -1</clus>
<clus scale="   67.647">  2  9  1 -1</clus>
<clus scale="   89.541">  5  6 -1 -1</clus>
<clus scale="   90.425">  2  5  1 -1</clus>
<clus scale="   92.544">  7  8 -1 -1</clus>
<clus scale="   54.297">  1  5  2 -1</clus>
</clustering>
</event>
<event>
10    2  0.1133532E-006  0.1044551E+03  0.7546771E-02  0.1271208E+00
          2   -1    0    0  503    0  0.00000000000E+00  0.00000000000E+00  0.10235856935E+03  0.10235856935E+03  0.00000000000E+00 0. -1.
         -2   -1    0    0    0  501 -0.00000000000E+00 -0.00000000000E+00 -0.23184089154E+03  0.23184089154E+03  0.00000000000E+00 0.  1.
         23    2    1    2    0    0  0.35036759335E+02  0.36995903492E+02 -0.14845759916E+03  0.18077166012E+03  0.89679780192E+02 0.  0.
         23    2    1    2    0    0 -0.93873001327E+01 -0.42349050117E+02  0.19122139888E+02  0.10141522248E+03  0.89653932801E+02 0.  0.
        -11    1    3    3    0    0  0.33539583404E+02  0.60765918395E+02 -0.13857566310E+03  0.15498585386E+03  0.00000000000E+00 0.  1.
         11    1    3    3    0    0  0.14971759311E+01 -0.23770014903E+02 -0.98819360579E+01  0.25785806260E+02  0.00000000000E+00 0. -1.
        -11    1    4    4    0    0 -0.37281969514E+02 -0.21943414278E+02 -0.21310179329E+02  0.48224292883E+02  0.00000000000E+00 0. -1.
         11    1    4    4    0    0  0.27894669381E+02 -0.20405635839E+02  0.40432319217E+02  0.53190929595E+02  0.00000000000E+00 0.  1.
         21    1    1    2  502  501 -0.86563166471E+01  0.18403016067E+02 -0.15569945683E+02  0.25613005033E+02  0.00000000000E+00 0. -1.
         21    1    1    2  503  502 -0.16993142556E+02 -0.13049869442E+02  0.15423082767E+02  0.26399573262E+02  0.00000000000E+00 0. -1.
<scales pt_clust_5="13000.00000" pt_clust_6="13000.00000" pt_clust_7="13000.00000" pt_clust_8="13000.00000" pt_clust_9="20.33723" pt_clust_10="21.31924"></scales>
<clustering>
<clus scale="   20.337">  2  9  1 -1</clus>
<clus scale="   21.319">  1 10  2 -1</clus>
<clus scale="   89.654">  7  8 -1 -1</clus>
<clus scale="   89.680">  5  6 -1 -1</clus>
<clus scale="  104.433">  1  7  2 -1</clus>
<clus scale="   21.319">  1  5  2 -1</clus>
</clustering>
</event>
<event>
10    2  0.1133532E-006  0.1327327E+03  0.7546771E-02  0.1223784E+00
         -1   -1    0    0    0  501 -0.00000000000E+00  0.00000000000E+00  0.42904695550E+02  0.42904695550E+02  0.00000000000E+00 0.  1.
          1   -1    0    0  503    0  0.00000000000E+00 -0.00000000000E+00 -0.84692894768E+03  0.84692894768E+03  0.00000000000E+00 0. -1.
         23    2    1    2    0    0  0.32911185951E+02  0.73168371535E+02 -0.93536010433E+02  0.15308113376E+03  0.90819004132E+02 0.  0.
         23    2    1    2    0    0 -0.71340915619E+01 -0.94792945649E+02 -0.54671690351E+03  0.56251531141E+03  0.92127656954E+02 0.  0.
        -11    1    3    3    0    0  0.96880100591E+01  0.69528032965E+02 -0.15918257159E+02  0.71981913130E+02  0.00000000000E+00 0.  1.
         11    1    3    3    0    0  0.23223175892E+02  0.36403385698E+01 -0.77617753274E+02  0.81099220629E+02  0.00000000000E+00 0. -1.
        -13    1    4    4    0    0  0.31049955578E+02 -0.16230607394E+02 -0.75012862868E+02  0.82791678045E+02  0.00000000000E+00 0.  1.
         13    1    4    4    0    0 -0.38184047140E+02 -0.78562338256E+02 -0.47170404064E+03  0.47972363336E+03  0.00000000000E+00 0. -1.
         21    1    1    2  502  501  0.45718022670E+01  0.24573691266E+02 -0.43588871116E+02  0.50246963725E+02  0.00000000000E+00 0.  1.
         21    1    1    2  503  502 -0.30348896656E+02 -0.29491171518E+01 -0.12018246707E+03  0.12399023434E+03  0.00000000000E+00 0.  1.
<scales pt_clust_5="13000.00000" pt_clust_6="13000.00000" pt_clust_7="13000.00000" pt_clust_8="13000.00000" pt_clust_9="24.99535" pt_clust_10="30.18073"></scales>
<clustering>
<clus scale="   24.995">  1  9  2 -1</clus>
<clus scale="   30.181">  2 10  1 -1</clus>
<clus scale="   90.819">  5  6 -1 -1</clus>
<clus scale="   92.128">  7  8 -1 -1</clus>
<clus scale="  131.828">  1  5  2 -1</clus>
<clus scale="   30.181">  2  5  1 -1</clus>
</clustering>
</event>
<event>
10    2  0.1133532E-006  0.9826360E+02  0.7546771E-02  0.1284037E+00
         -2   -1    0    0    0  501 -0.00000000000E+00  0.00000000000E+00  0.18577562107E+03  0.18577562107E+03  0.00000000000E+00 0.  1.
          2   -1    0    0  503    0  0.00000000000E+00 -0.00000000000E+00 -0.18195900613E+03  0.18195900613E+03  0.00000000000E+00 0. -1.
         23    2    1    2    0    0  0.27118215332E+02  0.59773862085E+02 -0.16899412103E+02  0.11367181470E+03  0.91254474616E+02 0.  0.
         23    2    1    2    0    0  0.17872834957E+02 -0.16559789667E+02 -0.48417648565E+02  0.10605731949E+03  0.91160416087E+02 0.  0.
        -13    1    4    4    0    0  0.13224792494E+02 -0.41512112993E+02 -0.63141891468E+02  0.76714073805E+02  0.00000000000E+00 0.  1.
         13    1    4    4    0    0  0.46480424624E+01  0.24952323327E+02  0.14724242903E+02  0.29343245683E+02  0.00000000000E+00 0. -1.
        -13    1    3    3    0    0  0.29027194233E+02  0.33314307735E+02  0.34347412250E+02  0.55965755898E+02  0.00000000000E+00 0.  1.
         13    1    3    3    0    0 -0.19089789012E+01  0.26459554349E+02 -0.51246824353E+02  0.57706058807E+02  0.00000000000E+00 0. -1.
         21    1    1    2  502  501 -0.74924667963E+02 -0.28203309546E+02  0.79626322573E+02  0.11291361205E+03  0.00000000000E+00 0.  1.
         21    1    1    2  503  502  0.29933617674E+02 -0.15010762872E+02 -0.10492646971E+02  0.35091880963E+02  0.00000000000E+00 0.  1.
<scales pt_clust_5="13000.00000" pt_clust_6="13000.00000" pt_clust_7="13000.00000" pt_clust_8="13000.00000" pt_clust_9="77.72317" pt_clust_10="33.48648"></scales>
<clustering>
<clus scale="   33.486">  2 10  1 -1</clus>
<clus scale="   77.723">  1  9  2 -1</clus>
<clus scale="   91.160">  5  6 -1 -1</clus>
<clus scale="   91.254">  7  8 -1 -1</clus>
<clus scale="   98.176">  2  5  1 -1</clus>
<clus scale="   33.486">  2  5  1 -1</clus>
</clustering>
</event>
<event>
10    2  0.1133532E-006  0.1275637E+03  0.7546771E-02  0.1231296E+00
          1   -1    0    0  503    0  0.00000000000E+00  0.00000000000E+00  0.62897349330E+03  0.62897349330E+03  0.00000000000E+00 0. -1.
         -1   -1    0    0    0  501 -0.00000000000E+00 -0.00000000000E+00 -0.34534941645E+03  0.34534941645E+03  0.00000000000E+00 0.  1.
         23    2    1    2    0    0 -0.97129922424E+02 -0.62632198499E+02 -0.10679021744E+03  0.18208054264E+03  0.91608729645E+02 0.  0.
         23    2    1    2    0    0  0.11748809231E+03  0.15275150710E+02  0.43142608621E+03  0.45654917208E+03  0.90949967538E+02 0.  0.
        -13    1    3    3    0    0 -0.55120681732E+02  0.31111699945E+01 -0.73629972623E+01  0.55697241063E+02  0.00000000000E+00 0. -1.
         13    1    3    3    0    0 -0.42009240692E+02 -0.65743368494E+02 -0.99427220178E+02  0.12638330157E+03  0.00000000000E+00 0.  1.
        -13    1    4    4    0    0  0.60724177201E+02 -0.35564387383E+02  0.25130327653E+03  0.26097047370E+03  0.00000000000E+00 0. -1.
         13    1    4    4    0    0  0.56763915109E+02  0.50839538093E+02  0.18012280968E+03  0.19557869838E+03  0.00000000000E+00 0.  1.
         21    1    1    2  502  501  0.35813960310E+02  0.51480459623E+01 -0.17805150989E+03  0.18169062250E+03  0.00000000000E+00 0. -1.
         21    1    1    2  503  502 -0.56172130196E+02  0.42209001826E+02  0.13703971797E+03  0.15400257253E+03  0.00000000000E+00 0.  1.
<scales pt_clust_5="13000.00000" pt_clust_6="13000.00000" pt_clust_7="13000.00000" pt_clust_8="13000.00000" pt_clust_9="36.18207" pt_clust_10="68.96667"></scales>
<clustering>
<clus scale="   36.182">  2  9  1 -1</clus>
<clus scale="   68.967">  1 10  2 -1</clus>
<clus scale="   90.950">  7  8 -1 -1</clus>
<clus scale="   91.609">  5  6 -1 -1</clus>
<clus scale="  127.091">  1  7  2 -1</clus>
<clus scale="   68.967">  1  5  2 -1</clus>
</clustering>
</event>
<event>
10    2  0.1133532E-006  0.1827462E+03  0.7546771E-02  0.1165243E+00
          1   -1    0    0  503    0  0.00000000000E+00  0.00000000000E+00  0.17466660145E+03  0.17466660145E+03  0.00000000000E+00 0. -1.
         -1   -1    0    0    0  501 -0.00000000000E+00 -0.00000000000E+00 -0.53440971417E+03  0.53440971417E+03  0.00000000000E+00 0.  1.
         23    2    1    2    0    0  0.64316217481E+02  0.14156980797E+03 -0.24654069969E+03  0.30523547427E+03  0.90596864119E+02 0.  0.
         23    2    1    2    0    0 -0.81185021065E+02 -0.13778973775E+03 -0.69876217117E+02  0.19692169846E+03  0.91205537823E+02 0.  0.
        -13    1    4    4    0    0 -0.63845580784E+02 -0.77727093030E+02 -0.86023224102E+02  0.13235465334E+03  0.00000000000E+00 0.  1.
         13    1    4    4    0    0 -0.17339440281E+02 -0.60062644723E+02  0.16147006984E+02  0.64567045116E+02  0.00000000000E+00 0. -1.
        -13    1    3    3    0    0  0.20840100636E+02  0.11720333056E+03 -0.21642771961E+03  0.24700584670E+03  0.00000000000E+00 0. -1.
         13    1    3    3    0    0  0.43476116845E+02  0.24366477413E+02 -0.30112980078E+02  0.58229627567E+02  0.00000000000E+00 0.  1.
         21    1    1    2  502  501  0.42474885008E+02 -0.18453884720E+02 -0.11792618737E+03  0.12669351754E+03  0.00000000000E+00 0.  1.
         21    1    1    2  503  502 -0.25606081424E+02  0.14673814504E+02  0.74599991463E+02  0.80225625359E+02  0.00000000000E+00 0. -1.
<scales pt_clust_5="13000.00000" pt_clust_6="13000.00000" pt_clust_7="13000.00000" pt_clust_8="13000.00000" pt_clust_9="44.98858" pt_clust_10="29.51258"></scales>
<clustering>
<clus scale="   29.513">  1 10  2 -1</clus>
<clus scale="   44.989">  2  9  1 -1</clus>
<clus scale="   90.597">  7  8 -1 -1</clus>
<clus scale="   91.206">  5  6 -1 -1</clus>
<clus scale="  182.443">  2  7  1 -1</clus>
<clus scale="   29.513">  1  5  2 -1</clus>
</clustering>
</event>
<event>
10    2  0.1133532E-006  0.1472735E+03  0.7546771E-02  0.1204559E+00
          1   -1    0    0  503    0  0.00000000000E+00  0.00000000000E+00  0.70779517052E+02  0.70779517052E+02  0.00000000000E+00 0. -1.
         -1   -1    0    0    0  501 -0.00000000000E+00 -0.00000000000E+00 -0.46775590348E+03  0.46775590348E+03  0.00000000000E+00 0.  1.
         23    2    1    2    0    0  0.11654790491E+03  0.28271485207E+02 -0.26598134774E+03  0.30569137193E+03  0.91205517978E+02 0.  0.
         23    2    1    2    0    0 -0.98972977260E+02 -0.19143038567E+02 -0.82094792891E+02  0.16081385098E+03  0.94654284075E+02 0.  0.
        -11    1    3    3    0    0  0.60324177445E+02 -0.31452623438E+02 -0.13439989667E+03  0.15063733312E+03  0.00000000000E+00 0. -1.
         11    1    3    3    0    0  0.56223727464E+02  0.59724108645E+02 -0.13158145108E+03  0.15505403881E+03  0.00000000000E+00 0.  1.
        -13    1    4    4    0    0 -0.55674572954E+02 -0.21098594752E+01  0.10953304812E+02  0.56781022067E+02  0.00000000000E+00 0. -1.
         13    1    4    4    0    0 -0.43298404306E+02 -0.17033179092E+02 -0.93048097703E+02  0.10403282891E+03  0.00000000000E+00 0.  1.
         21    1    1    2  502  501  0.26571425358E+01 -0.20706615706E+02 -0.43279439989E+02  0.48051371117E+02  0.00000000000E+00 0. -1.
         21    1    1    2  503  502 -0.20232070185E+02  0.11578169066E+02 -0.56208058074E+01  0.23978826510E+02  0.00000000000E+00 0. -1.
<scales pt_clust_5="13000.00000" pt_clust_6="13000.00000" pt_clust_7="13000.00000" pt_clust_8="13000.00000" pt_clust_9="20.87641" pt_clust_10="22.87672"></scales>
<clustering>
<clus scale="   20.876">  2  9  1 -1</clus>
<clus scale="   22.877">  1 10  2 -1</clus>
<clus scale="   91.206">  5  6 -1 -1</clus>
<clus scale="   94.654">  7  8 -1 -1</clus>
<clus scale="  145.081">  2  5  1 -1</clus>
<clus scale="   22.877">  1  5  2 -1</clus>
</clustering>
</event>
<event>
10    2  0.1133532E-006  0.1368198E+03  0.7546771E-02  0.1219656E+00
         -1   -1    0    0    0  501 -0.00000000000E+00  0.00000000000E+00  0.66170040955E+02  0.66170040955E+02  0.00000000000E+00 0.  1.
          1   -1    0    0  503    0  0.00000000000E+00 -0.00000000000E+00 -0.49258284565E+03  0.49258284565E+03  0.00000000000E+00 0. -1.
         23    2    1    2    0    0 -0.70089415960E+01 -0.96701821647E+02 -0.12695157452E+03  0.18798470172E+03  0.99101857876E+02 0.  0.
         23    2    1    2    0    0  0.45323028938E+02  0.90869355235E+02 -0.16799633161E+03  0.21646388983E+03  0.91227361543E+02 0.  0.
        -11    1    4    4    0    0  0.62116353730E+02  0.36645094597E+02 -0.57488769999E+02  0.92229404393E+02  0.00000000000E+00 0.  1.
         11    1    4    4    0    0 -0.16793324792E+02  0.54224260637E+02 -0.11050756161E+03  0.12423448544E+03  0.00000000000E+00 0. -1.
        -13    1    3    3    0    0  0.27249547011E+02 -0.97550748479E+02 -0.76206732717E+02  0.12675232721E+03  0.00000000000E+00 0.  1.
         13    1    3    3    0    0 -0.34258488607E+02  0.84892683229E+00 -0.50744841806E+02  0.61232374512E+02  0.00000000000E+00 0. -1.
         21    1    1    2  502  501 -0.35279507944E+01  0.20875860579E+02 -0.42898495151E+01  0.21602101763E+02  0.00000000000E+00 0.  1.
         21    1    1    2  503  502 -0.34786136547E+02 -0.15043394166E+02 -0.12717504905E+03  0.13270219329E+03  0.00000000000E+00 0. -1.
<scales pt_clust_5="13000.00000" pt_clust_6="13000.00000" pt_clust_7="13000.00000" pt_clust_8="13000.00000" pt_clust_9="21.17187" pt_clust_10="37.66999"></scales>
<clustering>
<clus scale="   21.172">  1  9  2 -1</clus>
<clus scale="   37.670">  2 10  1 -1</clus>
<clus scale="   91.227">  5  6 -1 -1</clus>
<clus scale="   99.102">  7  8 -1 -1</clus>
<clus scale="  131.228">  2  5  1 -1</clus>
<clus scale="   37.670">  2  5  1 -1</clus>
</clustering>
</event>
<event>
10    2  0.1133532E-006  0.1151015E+03  0.7546771E-02  0.1253457E+00
          1   -1    0    0  502    0  0.00000000000E+00  0.00000000000E+00  0.30150161450E+02  0.30150161450E+02  0.00000000000E+00 0. -1.
         -1   -1    0    0    0  501 -0.00000000000E+00 -0.00000000000E+00 -0.87211375620E+03  0.87211375620E+03  0.00000000000E+00 0.  1.
         23    2    1    2    0    0 -0.47886211420E+01  0.87798411114E+02 -0.41997520852E+03  0.43864105092E+03  0.91078558925E+02 0.  0.
         23    2    1    2    0    0  0.96661989929E+01 -0.51779693969E+02 -0.15251751736E+03  0.18807118493E+03  0.96615761593E+02 0.  0.
        -11    1    4    4    0    0  0.65570444503E+01 -0.77905216422E+02 -0.13639990942E+03  0.15721689752E+03  0.00000000000E+00 0. -1.
         11    1    4    4    0    0  0.31091545426E+01  0.26125522453E+02 -0.16117607937E+02  0.30854287401E+02  0.00000000000E+00 0.  1.
        -13    1    3    3    0    0 -0.36925609953E+02  0.43589035076E+01 -0.12395069037E+03  0.12940739682E+03  0.00000000000E+00 0.  1.
         13    1    3    3    0    0  0.32136988811E+02  0.83439507606E+02 -0.29602451815E+03  0.30923365409E+03  0.00000000000E+00 0. -1.
         21    1    1    2  502  503  0.18896261353E+02 -0.24489071835E+02 -0.15710738060E+03  0.16012342856E+03  0.00000000000E+00 0.  1.
         21    1    1    2  503  501 -0.23773839204E+02 -0.11529645309E+02 -0.11236348828E+03  0.11542825325E+03  0.00000000000E+00 0.  1.
<scales pt_clust_5="13000.00000" pt_clust_6="13000.00000" pt_clust_7="13000.00000" pt_clust_8="13000.00000" pt_clust_9="30.29045" pt_clust_10="26.42211"></scales>
<clustering>
<clus scale="   26.422">  2 10  1 -1</clus>
<clus scale="   30.290">  2  9  1 -1</clus>
<clus scale="   91.079">  7  8 -1 -1</clus>
<clus scale="   96.616">  5  6 -1 -1</clus>
<clus scale="  110.495">  2  7  1 -1</clus>
<clus scale="  115.101">  1  5  2 -1</clus>
</clustering>
</event>
<event>
10    2  0.1133532E-006  0.1657432E+03  0.7546771E-02  0.1182908E+00
          2   -1    0    0  503    0  0.00000000000E+00  0.00000000000E+00  0.32655003575E+03  0.32655003575E+03  0.00000000000E+00 0. -1.
         -2   -1    0    0    0  501 -0.00000000000E+00 -0.00000000000E+00 -0.41106014612E+03  0.41106014612E+03  0.00000000000E+00 0.  1.
         23    2    1    2    0    0  0.10041373678E+03 -0.37423324206E+02 -0.12096770031E+03  0.18705582695E+03  0.94198058108E+02 0.  0.
         23    2    1    2    0    0 -0.16482285235E+03  0.13537059464E+03 -0.88488496455E+02  0.24805544624E+03  0.90606400755E+02 0.  0.
        -11    1    3    3    0    0  0.79143980440E+02 -0.53339225052E+02 -0.12791539968E+03  0.15959696753E+03  0.00000000000E+00 0. -1.
         11    1    3    3    0    0  0.21269756335E+02  0.15915900847E+02  0.69476993715E+01  0.27458859424E+02  0.00000000000E+00 0.  1.
        -13    1    4    4    0    0 -0.14775297390E+03  0.10980069531E+03 -0.10625258183E+03  0.21254821838E+03  0.00000000000E+00 0.  1.
         13    1    4    4    0    0 -0.17069878442E+02  0.25569899321E+02  0.17764085378E+02  0.35507227865E+02  0.00000000000E+00 0. -1.
         21    1    1    2  502  501  0.86964802757E+02 -0.60528870042E+02 -0.53560082778E+02  0.11872364337E+03  0.00000000000E+00 0. -1.
         21    1    1    2  503  502 -0.22555687185E+02 -0.37418400389E+02  0.17850616916E+03  0.18377526532E+03  0.00000000000E+00 0. -1.
<scales pt_clust_5="13000.00000" pt_clust_6="13000.00000" pt_clust_7="13000.00000" pt_clust_8="13000.00000" pt_clust_9="107.04392" pt_clust_10="43.69091"></scales>
<clustering>
<clus scale="   43.691">  1 10  2 -1</clus>
<clus scale="   90.606">  7  8 -1 -1</clus>
<clus scale="   94.198">  5  6 -1 -1</clus>
<clus scale="  107.044">  1  9  2 -1</clus>
<clus scale="  163.729">  1  7  2 -1</clus>
<clus scale="   43.691">  1  5  2 -1</clus>
</clustering>
</event>
<event>
10    2  0.1133532E-006  0.1947764E+03  0.7546771E-02  0.1190036E+00
         -1   -1    0    0    0  501 -0.00000000000E+00  0.00000000000E+00  0.33101171969E+03  0.33101171969E+03  0.00000000000E+00 0.  1.
          1   -1    0    0  503    0  0.00000000000E+00 -0.00000000000E+00 -0.24466886455E+03  0.24466886455E+03  0.00000000000E+00 0. -1.
         23    2    1    2    0    0  0.16874400990E+03 -0.48095698619E+02  0.43703155999E+02  0.20308957482E+03  0.92453623268E+02 0.  0.
         23    2    1    2    0    0  0.54181523225E+01 -0.45056981655E+02 -0.52120103612E+02  0.99121984989E+02  0.71057545252E+02 0.  0.
        -11    1    3    3    0    0  0.66852500563E+02 -0.57715881089E+02  0.48257273697E+02  0.10064364971E+03  0.00000000000E+00 0.  1.
         11    1    3    3    0    0  0.10189150933E+03  0.96201824697E+01 -0.45541176974E+01  0.10244592512E+03  0.00000000000E+00 0. -1.
        -13    1    4    4    0    0 -0.14320073030E+02  0.15194128614E+02 -0.11739095803E+02  0.23952711876E+02  0.00000000000E+00 0. -1.
         13    1    4    4    0    0  0.19738225353E+02 -0.60251110269E+02 -0.40381007809E+02  0.75169273113E+02  0.00000000000E+00 0.  1.
         21    1    1    2  502  501 -0.47976804827E+02 -0.38597375231E+02  0.63368184076E+02  0.88357557284E+02  0.00000000000E+00 0. -1.
         21    1    1    2  503  502 -0.12618535739E+03  0.13175005550E+03  0.31391618680E+02  0.18511146715E+03  0.00000000000E+00 0. -1.
<scales pt_clust_5="13000.00000" pt_clust_6="13000.00000" pt_clust_7="13000.00000" pt_clust_8="13000.00000" pt_clust_9="61.57541" pt_clust_10="171.43563"></scales>
<clustering>
<clus scale="   61.575">  1  9  2 -1</clus>
<clus scale="   71.058">  7  8 -1 -1</clus>
<clus scale="   86.101">  2  7  1 -1</clus>
<clus scale="   92.454">  5  6 -1 -1</clus>
<clus scale="  171.436">  2 10  1 -1</clus>
<clus scale="   86.101">  2  5  1 -1</clus>
</clustering>
</event>
<event>
10    2  0.1133532E-006  0.3436430E+03  0.7546771E-02  0.1065302E+00
          1   -1    0    0  502    0  0.00000000000E+00  0.00000000000E+00  0.99898143483E+03  0.99898143483E+03  0.00000000000E+00 0. -1.
         -1   -1    0    0    0  501 -0.00000000000E+00 -0.00000000000E+00 -0.27239216046E+03  0.27239216046E+03  0.00000000000E+00 0.  1.
         23    2    1    2    0    0 -0.30947105304E+03  0.14608871661E+03 -0.90541001598E+02  0.36568270233E+03  0.91716519875E+02 0.  0.
         23    2    1    2    0    0  0.25084141717E+03 -0.10581255738E+03  0.70890983853E+03  0.76470627982E+03  0.90026781351E+02 0.  0.
        -13    1    4    4    0    0  0.19551829712E+03 -0.10099486373E+03  0.46345157584E+03  0.51304456937E+03  0.00000000000E+00 0. -1.
         13    1    4    4    0    0  0.55323120049E+02 -0.48176936500E+01  0.24545826269E+03  0.25166171045E+03  0.00000000000E+00 0.  1.
        -13    1    3    3    0    0 -0.19093747125E+03  0.13778132055E+03 -0.61689085830E+02  0.24340573849E+03  0.00000000000E+00 0.  1.
         13    1    3    3    0    0 -0.11853358180E+03  0.83073960674E+01 -0.28851915768E+02  0.12227696384E+03  0.00000000000E+00 0. -1.
         21    1    1    2  502  503  0.24936672916E+02  0.11225833727E+02  0.22246089559E+02  0.35252595644E+02  0.00000000000E+00 0. -1.
         21    1    1    2  503  501  0.33692962962E+02 -0.51501992963E+02  0.85974347870E+02  0.10573201750E+03  0.00000000000E+00 0.  1.
<scales pt_clust_5="13000.00000" pt_clust_6="13000.00000" pt_clust_7="13000.00000" pt_clust_8="13000.00000" pt_clust_9="27.34697" pt_clust_10="62.02214"></scales>
<clustering>
<clus scale="   27.347">  1  9  2 -1</clus>
<clus scale="   62.022">  1 10  2 -1</clus>
<clus scale="   90.027">  5  6 -1 -1</clus>
<clus scale="   91.717">  7  8 -1 -1</clus>
<clus scale="  343.196">  1  5  2 -1</clus>
<clus scale="   27.347">  1  5  2 -1</clus>
</clustering>
</event>
<event>
10    2  0.1133532E-006  0.1254692E+03  0.7546771E-02  0.1235280E+00
         -2   -1    0    0    0  501 -0.00000000000E+00  0.00000000000E+00  0.43433525642E+03  0.43433525642E+03  0.00000000000E+00 0.  1.
          2   -1    0    0  503    0  0.00000000000E+00 -0.00000000000E+00 -0.64750801506E+02  0.64750801506E+02  0.00000000000E+00 0. -1.
         23    2    1    2    0    0 -0.10499100746E+03 -0.24718872935E+02  0.21869990418E+03  0.25903675664E+03  0.87385690344E+02 0.  0.
         23    2    1    2    0    0  0.68359056501E+02 -0.14913761440E+02  0.78650882614E+02  0.13897312196E+03  0.90731397015E+02 0.  0.
        -11    1    3    3    0    0 -0.37921806324E+02 -0.47974611535E+02  0.14156638682E+03  0.15420982013E+03  0.00000000000E+00 0.  1.
         11    1    3    3    0    0 -0.67069201135E+02  0.23255738600E+02  0.77133517366E+02  0.10482693652E+03  0.00000000000E+00 0. -1.
        -13    1    4    4    0    0  0.54729054987E+02  0.27801183283E+02  0.18818755290E+02  0.64205301980E+02  0.00000000000E+00 0. -1.
         13    1    4    4    0    0  0.13630001514E+02 -0.42714944722E+02  0.59832127324E+02  0.74767819976E+02  0.00000000000E+00 0.  1.
         21    1    1    2  502  501  0.15538439342E+02  0.23156641162E+02  0.68617101986E+02  0.74067400468E+02  0.00000000000E+00 0. -1.
         21    1    1    2  503  502  0.21093511616E+02  0.16475993214E+02  0.36165661292E+01  0.27008778855E+02  0.00000000000E+00 0.  1.
<scales pt_clust_5="13000.00000" pt_clust_6="13000.00000" pt_clust_7="13000.00000" pt_clust_8="13000.00000" pt_clust_9="29.19638" pt_clust_10="26.76555"></scales>
<clustering>
<clus scale="   26.766">  2 10  1 -1</clus>
<clus scale="   29.196">  1  9  2 -1</clus>
<clus scale="   87.386">  5  6 -1 -1</clus>
<clus scale="   90.731">  7  8 -1 -1</clus>
<clus scale="  123.071">  1  5  2 -1</clus>
<clus scale="   26.766">  2  5  1 -1</clus>
</clustering>
</event>
<event>
10    2  0.1133532E-006  0.1378538E+03  0.7546771E-02  0.1216475E+00
          1   -1    0    0  503    0  0.00000000000E+00  0.00000000000E+00  0.41982339705E+03  0.41982339705E+03  0.00000000000E+00 0. -1.
         -1   -1    0    0    0  501 -0.00000000000E+00 -0.00000000000E+00 -0.93171835618E+02  0.93171835618E+02  0.00000000000E+00 0.  1.
         23    2    1    2    0    0  0.10656642311E+01  0.68012598021E+02  0.60229518659E+02  0.13056180180E+03  0.93765345638E+02 0.  0.
         23    2    1    2    0    0  0.44014777011E+02 -0.12278573277E+03  0.20717799399E+03  0.26181273074E+03  0.92787650139E+02 0.  0.
        -11    1    4    4    0    0  0.33187771773E+02 -0.53149860920E+01  0.16137057359E+02  0.37283802014E+02  0.00000000000E+00 0.  1.
         11    1    4    4    0    0  0.10827005238E+02 -0.11747074668E+03  0.19104093663E+03  0.22452892873E+03  0.00000000000E+00 0. -1.
        -11    1    3    3    0    0 -0.43155469380E+02  0.43471516260E+02  0.49750586021E+02  0.78913167930E+02  0.00000000000E+00 0.  1.
         11    1    3    3    0    0  0.44221133611E+02  0.24541081761E+02  0.10478932638E+02  0.51648633874E+02  0.00000000000E+00 0. -1.
         21    1    1    2  502  501 -0.22405695837E+02  0.55877033439E+02  0.33529578706E+01  0.60295110900E+02  0.00000000000E+00 0.  1.
         21    1    1    2  503  502 -0.22674745405E+02 -0.11038986900E+01  0.55891090911E+02  0.60325589220E+02  0.00000000000E+00 0.  1.
<scales pt_clust_5="13000.00000" pt_clust_6="13000.00000" pt_clust_7="13000.00000" pt_clust_8="13000.00000" pt_clust_9="60.88341" pt_clust_10="22.70160"></scales>
<clustering>
<clus scale="   22.702">  1 10  2 -1</clus>
<clus scale="   60.883">  2  9  1 -1</clus>
<clus scale="   92.788">  5  6 -1 -1</clus>
<clus scale="   93.765">  7  8 -1 -1</clus>
<clus scale="  137.191">  1  5  2 -1</clus>
<clus scale="   22.702">  1  5  2 -1</clus>
</clustering>
</event>
<event>
10    2  0.1133532E-006  0.9730317E+02  0.7546771E-02  0.1286273E+00
          1   -1    0    0  503    0  0.00000000000E+00  0.00000000000E+00  0.46440034396E+02  0.46440034396E+02  0.00000000000E+00 0. -1.
         -1   -1    0    0    0  501 -0.00000000000E+00 -0.00000000000E+00 -0.41506220944E+03  0.41506220944E+03  0.00000000000E+00 0.  1.
         23    2    1    2    0    0  0.47548129931E+02  0.34824786142E+02 -0.16508937520E+03  0.19765187964E+03  0.91313598830E+02 0.  0.
         23    2    1    2    0    0 -0.10451612483E+02  0.68969041620E+01 -0.86783640659E+02  0.12687826144E+03  0.91705449403E+02 0.  0.
        -11    1    4    4    0    0 -0.28054909909E+01  0.44073459794E+02 -0.75176199453E+02  0.87188311155E+02  0.00000000000E+00 0.  1.
         11    1    4    4    0    0 -0.76461214917E+01 -0.37176555632E+02 -0.11607441207E+02  0.39689950288E+02  0.00000000000E+00 0. -1.
        -13    1    3    3    0    0  0.49604567301E+02  0.61029578357E+02 -0.14349433755E+03  0.16363327119E+03  0.00000000000E+00 0.  1.
         13    1    3    3    0    0 -0.20564373702E+01 -0.26204792215E+02 -0.21595037648E+02  0.34018608447E+02  0.00000000000E+00 0. -1.
         21    1    1    2  502  501 -0.13124811225E+02 -0.16846760450E+02 -0.92075892569E+02  0.94520071941E+02  0.00000000000E+00 0. -1.
         21    1    1    2  503  502 -0.23971706223E+02 -0.24874929854E+02 -0.24673266611E+02  0.42452030809E+02  0.00000000000E+00 0. -1.
<scales pt_clust_5="13000.00000" pt_clust_6="13000.00000" pt_clust_7="13000.00000" pt_clust_8="13000.00000" pt_clust_9="21.35589" pt_clust_10="36.76175"></scales>
<clustering>
<clus scale="   21.356">  2  9  1 -1</clus>
<clus scale="   36.762">  1 10  2 -1</clus>
<clus scale="   91.314">  7  8 -1 -1</clus>
<clus scale="   91.705">  5  6 -1 -1</clus>
<clus scale="   96.934">  2  7  1 -1</clus>
<clus scale="   36.762">  1  5  2 -1</clus>
</clustering>
</event>
<event>
10    2  0.1133532E-006  0.9737766E+02  0.7546771E-02  0.1288915E+00
          1   -1    0    0  503    0  0.00000000000E+00  0.00000000000E+00  0.28911947141E+03  0.28911947141E+03  0.00000000000E+00 0. -1.
         -1   -1    0    0    0  501 -0.00000000000E+00 -0.00000000000E+00 -0.22681141700E+03  0.22681141700E+03  0.00000000000E+00 0.  1.
         23    2    1    2    0    0 -0.19755596978E+02 -0.29423017556E+02 -0.98716800527E+02  0.13797119252E+03  0.89638416346E+02 0.  0.
         23    2    1    2    0    0 -0.15683463745E+02  0.68086356263E+01  0.22370841091E+03  0.24369332761E+03  0.95124425130E+02 0.  0.
        -13    1    3    3    0    0  0.17143900750E+02 -0.37904772906E+02 -0.11919417656E+02  0.43275370123E+02  0.00000000000E+00 0. -1.
         13    1    3    3    0    0 -0.36899497727E+02  0.84817553497E+01 -0.86797382871E+02  0.94695822398E+02  0.00000000000E+00 0.  1.
        -13    1    4    4    0    0 -0.44213751409E+02 -0.31679754135E+01  0.47731563860E+02  0.65139804040E+02  0.00000000000E+00 0.  1.
         13    1    4    4    0    0  0.28530287664E+02  0.99766110398E+01  0.17597684705E+03  0.17855352357E+03  0.00000000000E+00 0. -1.
         21    1    1    2  502  501 -0.32139728364E+01  0.25727012764E+02 -0.85451589998E+02  0.89298281285E+02  0.00000000000E+00 0. -1.
         21    1    1    2  503  502  0.38653033560E+02 -0.31126308343E+01  0.22768034019E+02  0.44968086986E+02  0.00000000000E+00 0. -1.
<scales pt_clust_5="13000.00000" pt_clust_6="13000.00000" pt_clust_7="13000.00000" pt_clust_8="13000.00000" pt_clust_9="25.92699" pt_clust_10="38.41194"></scales>
<clustering>
<clus scale="   25.927">  2  9  1 -1</clus>
<clus scale="   38.412">  1 10  2 -1</clus>
<clus scale="   89.638">  5  6 -1 -1</clus>
<clus scale="   92.026">  2  5  1 -1</clus>
<clus scale="   95.124">  7  8 -1 -1</clus>
<clus scale="   38.412">  1  5  2 -1</clus>
</clustering>
</event>
<event>
10    2  0.1133532E-006  0.1304419E+03  0.7546771E-02  0.1246396E+00
          1   -1    0    0  503    0  0.00000000000E+00  0.00000000000E+00  0.48727697530E+03  0.48727697530E+03  0.00000000000E+00 0. -1.
         -1   -1    0    0    0  501 -0.00000000000E+00 -0.00000000000E+00 -0.10331589630E+03  0.10331589630E+03  0.00000000000E+00 0.  1.
         23    2    1    2    0    0 -0.64176072044E+02  0.13599184390E+02  0.11272128682E+03  0.16122710249E+03  0.94787045728E+02 0.  0.
         23    2    1    2    0    0 -0.43146543946E+02  0.18599396407E+02  0.17521051524E+03  0.19587532147E+03  0.73897598793E+02 0.  0.
        -11    1    3    3    0    0 -0.79946971251E+02  0.34062583757E+02  0.71292868914E+02  0.11240307372E+03  0.00000000000E+00 0.  1.
         11    1    3    3    0    0  0.15770899207E+02 -0.20463399368E+02  0.41428417901E+02  0.48824028769E+02  0.00000000000E+00 0. -1.
        -11    1    4    4    0    0 -0.10276331619E+02 -0.28372589641E+02  0.56943093133E+02  0.64444725851E+02  0.00000000000E+00 0. -1.
         11    1    4    4    0    0 -0.32870212326E+02  0.46971986048E+02  0.11826742211E+03  0.13143059562E+03  0.00000000000E+00 0.  1.
         21    1    1    2  502  501 -0.82605642540E+01 -0.26974030480E+02 -0.43738364501E+02  0.52046899728E+02  0.00000000000E+00 0. -1.
         21    1    1    2  503  502  0.11558318024E+03 -0.52245503169E+01  0.13976764144E+03  0.18144354790E+03  0.00000000000E+00 0. -1.
<scales pt_clust_5="13000.00000" pt_clust_6="13000.00000" pt_clust_7="13000.00000" pt_clust_8="13000.00000" pt_clust_9="28.21055" pt_clust_10="89.61310"></scales>
<clustering>
<clus scale="   28.211">  2  9  1 -1</clus>
<clus scale="   73.898">  7  8 -1 -1</clus>
<clus scale="   87.418">  1  7  2 -1</clus>
<clus scale="   89.613">  1 10  2 -1</clus>
<clus scale="   94.787">  5  6 -1 -1</clus>
<clus scale="   87.418">  1  5  2 -1</clus>
</clustering>
</event>
<event>
10    2  0.1133532E-006  0.1069294E+03  0.7546771E-02  0.1267543E+00
         -1   -1    0    0    0  501 -0.00000000000E+00  0.00000000000E+00  0.63379038740E+03  0.63379038740E+03  0.00000000000E+00 0.  1.
          1   -1    0    0  503    0  0.00000000000E+00 -0.00000000000E+00 -0.71436958153E+02  0.71436958153E+02  0.00000000000E+00 0. -1.
         23    2    1    2    0    0  0.79141057077E+01  0.90715909260E+01  0.16243533522E+03  0.18761172922E+03  0.93102072922E+02 0.  0.
         23    2    1    2    0    0 -0.16668624052E+02  0.11057701470E+03  0.87670476836E+02  0.16836591055E+03  0.90309734360E+02 0.  0.
        -11    1    4    4    0    0 -0.38798568575E+02  0.10460809583E+03  0.45747324472E+02  0.12058607023E+03  0.00000000000E+00 0. -1.
         11    1    4    4    0    0  0.22129944523E+02  0.59689188638E+01  0.41923152363E+02  0.47779840321E+02  0.00000000000E+00 0.  1.
        -13    1    3    3    0    0 -0.27941573948E+02 -0.28663687508E+02  0.89116022374E+02  0.97693418305E+02  0.00000000000E+00 0. -1.
         13    1    3    3    0    0  0.35855679655E+02  0.37735278434E+02  0.73319312846E+02  0.89918310917E+02  0.00000000000E+00 0.  1.
         21    1    1    2  502  501  0.80984486788E+01 -0.79699630870E+02  0.29508372351E+03  0.30576464792E+03  0.00000000000E+00 0.  1.
         21    1    1    2  503  502  0.65606966562E+00 -0.39948974754E+02  0.17163893676E+02  0.43485057863E+02  0.00000000000E+00 0. -1.
<scales pt_clust_5="13000.00000" pt_clust_6="13000.00000" pt_clust_7="13000.00000" pt_clust_8="13000.00000" pt_clust_9="83.75886" pt_clust_10="39.95436"></scales>
<clustering>
<clus scale="   39.954">  2 10  1 -1</clus>
<clus scale="   83.759">  1  9  2 -1</clus>
<clus scale="   90.310">  5  6 -1 -1</clus>
<clus scale="   93.102">  7  8 -1 -1</clus>
<clus scale="  104.507">  2  5  1 -1</clus>
<clus scale="   39.954">  2  5  1 -1</clus>
</clustering>
</event>
<event>
10    2  0.1133532E-006  0.1295225E+03  0.7546771E-02  0.1229512E+00
         -3   -1    0    0    0  501 -0.00000000000E+00  0.00000000000E+00  0.96972326840E+02  0.96972326840E+02  0.00000000000E+00 0.  1.
          3   -1    0    0  503    0  0.00000000000E+00 -0.00000000000E+00 -0.60861730482E+03  0.60861730482E+03  0.00000000000E+00 0. -1.
         23    2    1    2    0    0  0.47950398761E+02  0.34042747648E+02 -0.25676760021E+01  0.11366663583E+03  0.97238684343E+02 0.  0.
         23    2    1    2    0    0 -0.86589494298E+02 -0.97327444682E+02 -0.42128633549E+03  0.45055398212E+03  0.92446429488E+02 0.  0.
        -11    1    3    3    0    0  0.88693479596E+01  0.60008501639E+02  0.16741371882E+02  0.62928206193E+02  0.00000000000E+00 0.  1.
         11    1    3    3    0    0  0.39081050801E+02 -0.25965753991E+02 -0.19309047884E+02  0.50738429639E+02  0.00000000000E+00 0. -1.
        -13    1    4    4    0    0 -0.23754697756E+02 -0.14279350498E+02 -0.15790003745E+02  0.31898428400E+02  0.00000000000E+00 0.  1.
         13    1    4    4    0    0 -0.62834796542E+02 -0.83048094184E+02 -0.40549633174E+03  0.41865555372E+03  0.00000000000E+00 0. -1.
         21    1    1    2  502  501  0.22020155366E+01  0.34912686016E+02  0.72291639370E+01  0.35721216784E+02  0.00000000000E+00 0.  1.
         21    1    1    2  503  502  0.36437080001E+02  0.28372011018E+02 -0.95020130432E+02  0.10564779693E+03  0.00000000000E+00 0.  1.
<scales pt_clust_5="13000.00000" pt_clust_6="13000.00000" pt_clust_7="13000.00000" pt_clust_8="13000.00000" pt_clust_9="34.98206" pt_clust_10="47.84795"></scales>
<clustering>
<clus scale="   34.982">  1  9  2 -1</clus>
<clus scale="   47.848">  2 10  1 -1</clus>
<clus scale="   92.446">  7  8 -1 -1</clus>
<clus scale="   97.239">  5  6 -1 -1</clus>
<clus scale="  125.965">  2  7  1 -1</clus>
<clus scale="   47.848">  2  5  1 -1</clus>
</clustering>
</event>
<event>
10    2  0.1133532E-006  0.1931091E+03  0.7546771E-02  0.1172502E+00
         -1   -1    0    0    0  501 -0.00000000000E+00  0.00000000000E+00  0.70023593726E+02  0.70023593726E+02  0.00000000000E+00 0.  1.
          1   -1    0    0  503    0  0.00000000000E+00 -0.00000000000E+00 -0.13100844587E+04  0.13100844587E+04  0.00000000000E+00 0. -1.
         23    2    1    2    0    0 -0.41276254663E+02  0.19314883089E+03 -0.20973630023E+03  0.30170670079E+03  0.89595857018E+02 0.  0.
         23    2    1    2    0    0  0.79908810775E+02 -0.41759146676E+02 -0.42497054834E+03  0.44395810981E+03  0.91485473948E+02 0.  0.
        -11    1    3    3    0    0  0.18925252885E+02  0.12273842084E+03 -0.12346269863E+03  0.17511688411E+03  0.00000000000E+00 0.  1.
         11    1    3    3    0    0 -0.60201507548E+02  0.70410410051E+02 -0.86273601606E+02  0.12658981669E+03  0.00000000000E+00 0. -1.
        -11    1    4    4    0    0 -0.12261816497E+01 -0.46872671225E+02 -0.16936543001E+03  0.17573616507E+03  0.00000000000E+00 0. -1.
         11    1    4    4    0    0  0.81134992424E+02  0.51135245488E+01 -0.25560511832E+03  0.26822194474E+03  0.00000000000E+00 0.  1.
         21    1    1    2  502  501  0.20165409402E+02 -0.13085361860E+02 -0.23962058383E+02  0.33941871977E+02  0.00000000000E+00 0. -1.
         21    1    1    2  503  502 -0.58797965513E+02 -0.13830432236E+03 -0.58139195798E+03  0.60050136980E+03  0.00000000000E+00 0. -1.
<scales pt_clust_5="13000.00000" pt_clust_6="13000.00000" pt_clust_7="13000.00000" pt_clust_8="13000.00000" pt_clust_9="24.03894" pt_clust_10="171.06638"></scales>
<clustering>
<clus scale="   24.039">  1  9  2 -1</clus>
<clus scale="   89.596">  5  6 -1 -1</clus>
<clus scale="   91.485">  7  8 -1 -1</clus>
<clus scale="  130.924">  2  7  1 -1</clus>
<clus scale="  171.066">  2 10  1 -1</clus>
<clus scale="  130.924">  2  5  1 -1</clus>
</clustering>
</event>
<event>
10    2  0.1133532E-006  0.1792384E+03  0.7546771E-02  0.1168564E+00
          2   -1    0    0  503    0  0.00000000000E+00  0.00000000000E+00  0.91662557971E+03  0.91662557971E+03  0.00000000000E+00 0. -1.
         -2   -1    0    0    0  501 -0.00000000000E+00 -0.00000000000E+00 -0.82343329855E+02  0.82343329855E+02  0.00000000000E+00 0.  1.
         23    2    1    2    0    0  0.92480553998E+02  0.13228559460E+03  0.31389265024E+03  0.36438397047E+03  0.90525966749E+02 0.  0.
         23    2    1    2    0    0 -0.23614726288E+02 -0.15434096439E+03  0.30222668267E+03  0.35206144238E+03  0.90705583667E+02 0.  0.
        -11    1    3    3    0    0  0.75108729346E+02  0.30633071304E+02  0.12137117139E+03  0.14598173696E+03  0.00000000000E+00 0.  1.
         11    1    3    3    0    0  0.17371824652E+02  0.10165252330E+03  0.19252147885E+03  0.21840223351E+03  0.00000000000E+00 0. -1.
        -13    1    4    4    0    0 -0.43413176354E+02 -0.14258682085E+03  0.21339503798E+03  0.26029434799E+03  0.00000000000E+00 0.  1.
         13    1    4    4    0    0  0.19798450066E+02 -0.11754143548E+02  0.88831644691E+02  0.91767094397E+02  0.00000000000E+00 0. -1.
         21    1    1    2  502  501 -0.25995455267E+02  0.29675396117E+01 -0.24211536713E+02  0.35647839989E+02  0.00000000000E+00 0.  1.
         21    1    1    2  503  502 -0.42870372443E+02  0.19087830184E+02  0.24237445366E+03  0.24687565672E+03  0.00000000000E+00 0. -1.
<scales pt_clust_5="13000.00000" pt_clust_6="13000.00000" pt_clust_7="13000.00000" pt_clust_8="13000.00000" pt_clust_9="26.16429" pt_clust_10="48.00049"></scales>
<clustering>
<clus scale="   26.164">  2  9  1 -1</clus>
<clus scale="   48.000">  1 10  2 -1</clus>
<clus scale="   90.526">  5  6 -1 -1</clus>
<clus scale="   90.706">  7  8 -1 -1</clus>
<clus scale="  179.148">  2  5  1 -1</clus>
<clus scale="   48.000">  1  5  2 -1</clus>
</clustering>
</event>
<event>
10    2  0.1133532E-006  0.1335908E+03  0.7546771E-02  0.1235281E+00
         -3   -1    0    0    0  501 -0.00000000000E+00  0.00000000000E+00  0.62522082184E+02  0.62522082184E+02  0.00000000000E+00 0.  1.
          3   -1    0    0  503    0  0.00000000000E+00 -0.00000000000E+00 -0.10007022396E+04  0.10007022396E+04  0.00000000000E+00 0. -1.
         23    2    1    2    0    0 -0.61707269645E+02 -0.32444634186E+02 -0.32401236184E+02  0.11746245838E+03  0.88809614385E+02 0.  0.
         23    2    1    2    0    0 -0.44655344672E+01 -0.19902877635E+02 -0.44717716286E+03  0.45855510358E+03  0.99444972199E+02 0.  0.
        -11    1    3    3    0    0  0.17928732468E+02 -0.19143868140E+02 -0.25249994367E+02  0.36407270576E+02  0.00000000000E+00 0. -1.
         11    1    3    3    0    0 -0.79636002113E+02 -0.13300766045E+02 -0.71512418167E+01  0.81055187801E+02  0.00000000000E+00 0.  1.
        -11    1    4    4    0    0  0.33317494299E+02 -0.44294894449E+02 -0.21263136191E+03  0.21973663592E+03  0.00000000000E+00 0. -1.
         11    1    4    4    0    0 -0.37783028766E+02  0.24392016815E+02 -0.23454580096E+03  0.23881846765E+03  0.00000000000E+00 0.  1.
         21    1    1    2  502  501 -0.31970028538E+02 -0.12375061595E+02 -0.41367380034E+02  0.53726017953E+02  0.00000000000E+00 0. -1.
         21    1    1    2  503  502  0.98142832651E+02  0.64722573416E+02 -0.41723437829E+03  0.43348074183E+03  0.00000000000E+00 0.  1.
<scales pt_clust_5="13000.00000" pt_clust_6="13000.00000" pt_clust_7="13000.00000" pt_clust_8="13000.00000" pt_clust_9="34.28155" pt_clust_10="99.79663"></scales>
<clustering>
<clus scale="   34.282">  1  9  2 -1</clus>
<clus scale="   88.810">  5  6 -1 -1</clus>
<clus scale="   99.445">  7  8 -1 -1</clus>
<clus scale="  101.960">  2  7  1 -1</clus>
<clus scale="   99.797">  2 10  1 -1</clus>
<clus scale="  101.960">  2  5  1 -1</clus>
</clustering>
</event>
<event>
10    2  0.1133532E-006  0.1379457E+03  0.7546771E-02  0.1224814E+00
         -3   -1    0    0    0  501 -0.00000000000E+00  0.00000000000E+00  0.41396654545E+03  0.41396654545E+03  0.00000000000E+00 0.  1.
          3   -1    0    0  503    0  0.00000000000E+00 -0.00000000000E+00 -0.12080555106E+03  0.12080555106E+03  0.00000000000E+00 0. -1.
         23    2    1    2    0    0  0.98963695065E+02 -0.22983233673E+02  0.26113401470E+03  0.29438160235E+03  0.90263570694E+02 0.  0.
         23    2    1    2    0    0 -0.21444024880E+02 -0.27376259182E+01 -0.24211156163E+01  0.12015504014E+03  0.11816950145E+03 0.  0.
        -11    1    4    4    0    0 -0.10386200394E+02 -0.50563676316E+02  0.31514381289E+02  0.60479043885E+02  0.00000000000E+00 0.  1.
         11    1    4    4    0    0 -0.11057824486E+02  0.47826050398E+02 -0.33935496905E+02  0.59675996257E+02  0.00000000000E+00 0. -1.
        -11    1    3    3    0    0  0.73014566652E+02 -0.48854668218E+02  0.23031574009E+03  0.24650201963E+03  0.00000000000E+00 0. -1.
         11    1    3    3    0    0  0.25949128413E+02  0.25871434546E+02  0.30818274619E+02  0.47879582719E+02  0.00000000000E+00 0.  1.
         21    1    1    2  502  501 -0.25008490594E+02 -0.12130568410E+01  0.52796980683E+02  0.58433015308E+02  0.00000000000E+00 0.  1.
         21    1    1    2  503  502 -0.52511179591E+02  0.26933916432E+02 -0.18348885386E+02  0.61802438716E+02  0.00000000000E+00 0. -1.
<scales pt_clust_5="13000.00000" pt_clust_6="13000.00000" pt_clust_7="13000.00000" pt_clust_8="13000.00000" pt_clust_9="25.03789" pt_clust_10="60.33609"></scales>
<clustering>
<clus scale="   25.038">  1  9  2 -1</clus>
<clus scale="   60.336">  2 10  1 -1</clus>
<clus scale="   90.264">  7  8 -1 -1</clus>
<clus scale="  114.946">  1  7  2 -1</clus>
<clus scale="  118.170">  5  6 -1 -1</clus>
<clus scale="   60.336">  2  5  1 -1</clus>
</clustering>
</event>
<event>
10    2  0.1133532E-006  0.1219839E+03  0.7546771E-02  0.1249022E+00
          1   -1    0    0  503    0  0.00000000000E+00  0.00000000000E+00  0.93520704691E+02  0.93520704691E+02  0.00000000000E+00 0. -1.
         -1   -1    0    0    0  501 -0.00000000000E+00 -0.00000000000E+00 -0.23878634723E+03  0.23878634723E+03  0.00000000000E+00 0.  1.
         23    2    1    2    0    0  0.45346147610E+02  0.33515982158E+02 -0.72373895040E+02  0.12919990746E+03  0.90967253672E+02 0.  0.
         23    2    1    2    0    0 -0.11602679701E+02 -0.28619422077E+02 -0.23621945517E+02  0.11992843824E+03  0.11345104888E+03 0.  0.
        -11    1    3    3    0    0  0.52026997146E+02 -0.11500013780E+02 -0.13830212817E+02  0.55048465333E+02  0.00000000000E+00 0. -1.
         11    1    3    3    0    0 -0.66808495367E+01  0.45015995938E+02 -0.58543682223E+02  0.74151442124E+02  0.00000000000E+00 0.  1.
        -11    1    4    4    0    0  0.35713898933E+02 -0.26554403188E+01 -0.48671005945E+02  0.60426821528E+02  0.00000000000E+00 0.  1.
         11    1    4    4    0    0 -0.47316578634E+02 -0.25963981758E+02  0.25049060428E+02  0.59501616707E+02  0.00000000000E+00 0. -1.
         21    1    1    2  502  501 -0.18401251323E+02  0.11719709303E+02 -0.55572049252E+02  0.59701007482E+02  0.00000000000E+00 0.  1.
         21    1    1    2  503  502 -0.15342216586E+02 -0.16616269383E+02  0.63022472659E+01  0.23477698750E+02  0.00000000000E+00 0. -1.
<scales pt_clust_5="13000.00000" pt_clust_6="13000.00000" pt_clust_7="13000.00000" pt_clust_8="13000.00000" pt_clust_9="21.81645" pt_clust_10="22.82230"></scales>
<clustering>
<clus scale="   21.816">  2  9  1 -1</clus>
<clus scale="   22.822">  1 10  2 -1</clus>
<clus scale="   90.967">  5  6 -1 -1</clus>
<clus scale="  101.410">  2  5  1 -1</clus>
<clus scale="  113.451">  7  8 -1 -1</clus>
<clus scale="   22.822">  1  5  2 -1</clus>
</clustering>
</event>
<event>
10    2  0.1133532E-006  0.1137381E+03  0.7546771E-02  0.1253987E+00
         -2   -1    0    0    0  501 -0.00000000000E+00  0.00000000000E+00  0.36711027015E+03  0.36711027015E+03  0.00000000000E+00 0.  1.
          2   -1    0    0  503    0  0.00000000000E+00 -0.00000000000E+00 -0.15357674107E+03  0.15357674107E+03  0.00000000000E+00 0. -1.
         23    2    1    2    0    0  0.42756529868E+02  0.48235093167E+02  0.12288324826E+03  0.16579726911E+03  0.90739719433E+02 0.  0.
         23    2    1    2    0    0 -0.61454240923E+02  0.24252864755E+01  0.76731568536E+00  0.11005679873E+03  0.91265570902E+02 0.  0.
        -11    1    3    3    0    0  0.10298545723E+02  0.59363785893E+02  0.11612560564E+03  0.13082536224E+03  0.00000000000E+00 0.  1.
         11    1    3    3    0    0  0.32457984146E+02 -0.11128692726E+02  0.67576426202E+01  0.34971906874E+02  0.00000000000E+00 0. -1.
        -11    1    4    4    0    0 -0.25958545984E+02 -0.39730278196E+02  0.20258996646E+02  0.51602016048E+02  0.00000000000E+00 0. -1.
         11    1    4    4    0    0 -0.35495694939E+02  0.42155564672E+02 -0.19491680961E+02  0.58454782684E+02  0.00000000000E+00 0.  1.
         21    1    1    2  502  501  0.17040291045E+02  0.26041646739E+02  0.14631849613E+03  0.14959158129E+03  0.00000000000E+00 0.  1.
         21    1    1    2  503  502  0.16574200093E+01 -0.76702026382E+02 -0.56435530991E+02  0.95241362078E+02  0.00000000000E+00 0. -1.
<scales pt_clust_5="13000.00000" pt_clust_6="13000.00000" pt_clust_7="13000.00000" pt_clust_8="13000.00000" pt_clust_9="31.12136" pt_clust_10="74.46377"></scales>
<clustering>
<clus scale="   31.121">  1  9  2 -1</clus>
<clus scale="   74.464">  2 10  1 -1</clus>
<clus scale="   90.740">  5  6 -1 -1</clus>
<clus scale="   91.266">  7  8 -1 -1</clus>
<clus scale="  113.317">  1  5  2 -1</clus>
<clus scale="   74.464">  2  5  1 -1</clus>
</clustering>
</event>
<event>
10    2  0.1133532E-006  0.1057736E+03  0.7546771E-02  0.1272348E+00
         -1   -1    0    0    0  501 -0.00000000000E+00  0.00000000000E+00  0.54754212108E+03  0.54754212108E+03  0.00000000000E+00 0.  1.
          1   -1    0    0  503    0  0.00000000000E+00 -0.00000000000E+00 -0.12419279003E+03  0.12419279003E+03  0.00000000000E+00 0. -1.
         23    2    1    2    0    0 -0.23007081815E+02  0.47266733808E+02  0.45072389679E+03  0.46118085665E+03  0.82293872598E+02 0.  0.
         23    2    1    2    0    0  0.19299575482E+02 -0.77975471226E+02 -0.56720225479E+02  0.13397678081E+03  0.90994209113E+02 0.  0.
        -13    1    3    3    0    0 -0.50959586118E+02  0.11687691101E+02  0.25309028673E+03  0.25843408208E+03  0.00000000000E+00 0.  1.
         13    1    3    3    0    0  0.27952504302E+02  0.35579042708E+02  0.19763361005E+03  0.20274677457E+03  0.00000000000E+00 0. -1.
        -13    1    4    4    0    0 -0.65712929878E+01 -0.76346244907E+02 -0.58117514467E+01  0.76848600884E+02  0.00000000000E+00 0.  1.
         13    1    4    4    0    0  0.25870868470E+02 -0.16292263194E+01 -0.50908474032E+02  0.57128179930E+02  0.00000000000E+00 0. -1.
         21    1    1    2  502  501  0.18951144178E+02  0.44348856702E+02  0.28678988407E+02  0.56111062479E+02  0.00000000000E+00 0. -1.
         21    1    1    2  503  502 -0.15243637845E+02 -0.13640119284E+02  0.66667132838E+00  0.20466211166E+02  0.00000000000E+00 0. -1.
<scales pt_clust_5="13000.00000" pt_clust_6="13000.00000" pt_clust_7="13000.00000" pt_clust_8="13000.00000" pt_clust_9="46.01593" pt_clust_10="20.45535"></scales>
<clustering>
<clus scale="   20.455">  2 10  1 -1</clus>
<clus scale="   46.016">  2  9  1 -1</clus>
<clus scale="   82.294">  5  6 -1 -1</clus>
<clus scale="   90.994">  7  8 -1 -1</clus>
<clus scale="   98.389">  1  5  2 -1</clus>
<clus scale="   20.455">  2  5  1 -1</clus>
</clustering>
</event>
<event>
10    2  0.1133532E-006  0.1210165E+03  0.7546771E-02  0.1242098E+00
          2   -1    0    0  503    0  0.00000000000E+00  0.00000000000E+00  0.14608564991E+03  0.14608564991E+03  0.00000000000E+00 0. -1.
         -2   -1    0    0    0  501 -0.00000000000E+00 -0.00000000000E+00 -0.26320245252E+03  0.26320245252E+03  0.00000000000E+00 0.  1.
         23    2    1    2    0    0 -0.58829307592E-01 -0.66922747334E+02 -0.43964699905E+02  0.12054417532E+03  0.90107412538E+02 0.  0.
         23    2    1    2    0    0  0.14038330993E+02  0.83982857373E+02  0.25825646213E+02  0.12817110282E+03  0.92253306319E+02 0.  0.
        -11    1    3    3    0    0 -0.32087461923E+02 -0.47710211198E+02 -0.57022768493E+02  0.80978179727E+02  0.00000000000E+00 0. -1.
         11    1    3    3    0    0  0.32028632616E+02 -0.19212536136E+02  0.13058068589E+02  0.39565995593E+02  0.00000000000E+00 0.  1.
        -11    1    4    4    0    0 -0.33597579194E+02  0.70361615527E+01  0.10500028051E+01  0.34342501408E+02  0.00000000000E+00 0. -1.
         11    1    4    4    0    0  0.47635910187E+02  0.76946695821E+02  0.24775643408E+02  0.93828601414E+02  0.00000000000E+00 0.  1.
         21    1    1    2  502  501  0.11283468606E+02 -0.21501399485E+02 -0.12303372549E+03  0.12540703510E+03  0.00000000000E+00 0. -1.
         21    1    1    2  503  502 -0.25262970291E+02  0.44412894459E+01  0.24055976583E+02  0.35165789188E+02  0.00000000000E+00 0. -1.
<scales pt_clust_5="13000.00000" pt_clust_6="13000.00000" pt_clust_7="13000.00000" pt_clust_8="13000.00000" pt_clust_9="24.28223" pt_clust_10="25.06920"></scales>
<clustering>
<clus scale="   24.282">  2  9  1 -1</clus>
<clus scale="   25.069">  1 10  2 -1</clus>
<clus scale="   90.107">  5  6 -1 -1</clus>
<clus scale="   92.253">  7  8 -1 -1</clus>
<clus scale="  119.389">  2  5  1 -1</clus>
<clus scale="   25.069">  1  5  2 -1</clus>
</clustering>
</event>
<event>
10    2  0.1133532E-006  0.9179411E+02  0.7546771E-02  0.1299778E+00
         -2   -1    0    0    0  501 -0.00000000000E+00  0.00000000000E+00  0.27927394687E+03  0.27927394687E+03  0.00000000000E+00 0.  1.
          2   -1    0    0  503    0  0.00000000000E+00 -0.00000000000E+00 -0.78669578176E+02  0.78669578176E+02  0.00000000000E+00 0. -1.
         23    2    1    2    0    0  0.10449055068E+02  0.30032898289E+02  0.15630526039E+03  0.18387121857E+03  0.91466566912E+02 0.  0.
         23    2    1    2    0    0  0.19988173147E+02 -0.59560651480E+01  0.10902491661E+02  0.92470815054E+02  0.89425866138E+02 0.  0.
        -11    1    3    3    0    0  0.46376213661E+02  0.33864330379E+02  0.11790409193E+03  0.13114465662E+03  0.00000000000E+00 0.  1.
         11    1    3    3    0    0 -0.35927158593E+02 -0.38314320896E+01  0.38401168451E+02  0.52726561948E+02  0.00000000000E+00 0. -1.
        -13    1    4    4    0    0  0.39162556336E+02 -0.30574451613E+02 -0.15018777911E+02  0.51904398659E+02  0.00000000000E+00 0. -1.
         13    1    4    4    0    0 -0.19174383189E+02  0.24618386465E+02  0.25921269572E+02  0.40566416394E+02  0.00000000000E+00 0.  1.
         21    1    1    2  502  501 -0.11902525077E+02 -0.36098465900E+02  0.43105311435E+02  0.57470315968E+02  0.00000000000E+00 0.  1.
         21    1    1    2  503  502 -0.18534703137E+02  0.12021632759E+02 -0.97086947843E+01  0.24131175458E+02  0.00000000000E+00 0. -1.
<scales pt_clust_5="13000.00000" pt_clust_6="13000.00000" pt_clust_7="13000.00000" pt_clust_8="13000.00000" pt_clust_9="37.43981" pt_clust_10="22.09196"></scales>
<clustering>
<clus scale="   22.092">  2 10  1 -1</clus>
<clus scale="   37.440">  1  9  2 -1</clus>
<clus scale="   89.426">  7  8 -1 -1</clus>
<clus scale="   89.761">  2  7  1 -1</clus>
<clus scale="   91.467">  5  6 -1 -1</clus>
<clus scale="   22.092">  2  5  1 -1</clus>
</clustering>
</event>
<event>
10    2  0.1133532E-006  0.9765325E+02  0.7546771E-02  0.1286480E+00
         -1   -1    0    0    0  501 -0.00000000000E+00  0.00000000000E+00  0.35680647365E+03  0.35680647365E+03  0.00000000000E+00 0.  1.
          1   -1    0    0  503    0  0.00000000000E+00 -0.00000000000E+00 -0.18790896509E+03  0.18790896509E+03  0.00000000000E+00 0. -1.
         23    2    1    2    0    0  0.84653480491E+02  0.49793170051E+02  0.11001865479E+03  0.17232473008E+03  0.89141105292E+02 0.  0.
         23    2    1    2    0    0  0.51013725781E+01  0.23658995440E+02 -0.10493694702E+03  0.14126345826E+03  0.91421166708E+02 0.  0.
        -11    1    3    3    0    0  0.46974285898E+02  0.54458496453E+02  0.20032008371E+02  0.74656498250E+02  0.00000000000E+00 0. -1.
         11    1    3    3    0    0  0.37679194593E+02 -0.46653264012E+01  0.89986646415E+02  0.97668231829E+02  0.00000000000E+00 0.  1.
        -13    1    4    4    0    0  0.44257234853E+02  0.31713893023E+02 -0.64386248539E+02  0.84321188609E+02  0.00000000000E+00 0.  1.
         13    1    4    4    0    0 -0.39155862275E+02 -0.80548975835E+01 -0.40550698478E+02  0.56942269648E+02  0.00000000000E+00 0. -1.
         21    1    1    2  502  501 -0.78120081351E+02 -0.17084854982E+02  0.15289575252E+03  0.17254492319E+03  0.00000000000E+00 0. -1.
         21    1    1    2  503  502 -0.11634771717E+02 -0.56367310510E+02  0.10920048275E+02  0.58582327210E+02  0.00000000000E+00 0. -1.
<scales pt_clust_5="13000.00000" pt_clust_6="13000.00000" pt_clust_7="13000.00000" pt_clust_8="13000.00000" pt_clust_9="81.42905" pt_clust_10="57.55555"></scales>
<clustering>
<clus scale="   57.556">  2 10  1 -1</clus>
<clus scale="   81.429">  1  9  2 -1</clus>
<clus scale="   89.141">  5  6 -1 -1</clus>
<clus scale="   91.421">  7  8 -1 -1</clus>
<clus scale="   95.522">  1  5  2 -1</clus>
<clus scale="   57.556">  2  5  1 -1</clus>
</clustering>
</event>
<event>
10    2  0.1133532E-006  0.2810704E+03  0.7546771E-02  0.1095138E+00
          1   -1    0    0  503    0  0.00000000000E+00  0.00000000000E+00  0.19041110856E+04  0.19041110856E+04  0.00000000000E+00 0. -1.
         -1   -1    0    0    0  501 -0.00000000000E+00 -0.00000000000E+00 -0.84547373921E+02  0.84547373921E+02  0.00000000000E+00 0.  1.
         23    2    1    2    0    0 -0.57278197852E+02 -0.19677352282E+03  0.40245471921E+03  0.46079799058E+03  0.91456961897E+02 0.  0.
         23    2    1    2    0    0 -0.17706748765E+01  0.32098052695E+03  0.12223892209E+04  0.12670819266E+04  0.90716963076E+02 0.  0.
        -11    1    3    3    0    0 -0.76998343737E+02 -0.16130071466E+03  0.36077156828E+03  0.40261990756E+03  0.00000000000E+00 0.  1.
         11    1    3    3    0    0  0.19720145885E+02 -0.35472808158E+02  0.41683150934E+02  0.58178083022E+02  0.00000000000E+00 0. -1.
        -11    1    4    4    0    0 -0.20581141129E+02  0.15322860584E+02  0.13381996596E+03  0.13625768498E+03  0.00000000000E+00 0.  1.
         11    1    4    4    0    0  0.18810466252E+02  0.30565766637E+03  0.10885692549E+04  0.11308242416E+04  0.00000000000E+00 0. -1.
         21    1    1    2  502  501  0.27812771167E+02 -0.10910556589E+03  0.72947356932E+02  0.13415994794E+03  0.00000000000E+00 0.  1.
         21    1    1    2  503  502  0.31236101561E+02 -0.15101438241E+02  0.12177241464E+03  0.12661859439E+03  0.00000000000E+00 0. -1.
<scales pt_clust_5="13000.00000" pt_clust_6="13000.00000" pt_clust_7="13000.00000" pt_clust_8="13000.00000" pt_clust_9="113.90546" pt_clust_10="34.69506"></scales>
<clustering>
<clus scale="   34.695">  1 10  2 -1</clus>
<clus scale="   90.717">  7  8 -1 -1</clus>
<clus scale="   91.457">  5  6 -1 -1</clus>
<clus scale="  113.905">  2  9  1 -1</clus>
<clus scale="  280.831">  1  7  2 -1</clus>
<clus scale="   34.695">  1  5  2 -1</clus>
</clustering>
</event>
<event>
10    2  0.1133532E-006  0.2427472E+03  0.7546771E-02  0.1118369E+00
         -1   -1    0    0    0  501 -0.00000000000E+00  0.00000000000E+00  0.14461405728E+03  0.14461405728E+03  0.00000000000E+00 0.  1.
          1   -1    0    0  503    0  0.00000000000E+00 -0.00000000000E+00 -0.83780884651E+03  0.83780884651E+03  0.00000000000E+00 0. -1.
         23    2    1    2    0    0 -0.87517336165E+02 -0.16356758485E+03 -0.19750851735E+03  0.28807045618E+03  0.97782075823E+02 0.  0.
         23    2    1    2    0    0  0.98130990665E+02  0.24619216670E+03 -0.49892096422E+03  0.57234131154E+03  0.91717904953E+02 0.  0.
        -11    1    3    3    0    0  0.21631744879E+02 -0.23748538615E+02 -0.25871664146E+02  0.41246435949E+02  0.00000000000E+00 0. -1.
         11    1    3    3    0    0 -0.10914908104E+03 -0.13981904624E+03 -0.17163685320E+03  0.24682402023E+03  0.00000000000E+00 0.  1.
        -13    1    4    4    0    0 -0.15415419291E+02  0.29272809392E+02 -0.87927828172E+02  0.93945917893E+02  0.00000000000E+00 0.  1.
         13    1    4    4    0    0  0.11354640996E+03  0.21691935731E+03 -0.41099313605E+03  0.47839539365E+03  0.00000000000E+00 0. -1.
         21    1    1    2  502  501  0.24989061670E+01 -0.47478726356E+02  0.45285480958E+02  0.65660100320E+02  0.00000000000E+00 0.  1.
         21    1    1    2  503  502 -0.13112560667E+02 -0.35145855493E+02 -0.42050788624E+02  0.56351035744E+02  0.00000000000E+00 0. -1.
<scales pt_clust_5="13000.00000" pt_clust_6="13000.00000" pt_clust_7="13000.00000" pt_clust_8="13000.00000" pt_clust_9="47.98932" pt_clust_10="37.51227"></scales>
<clustering>
<clus scale="   37.512">  2 10  1 -1</clus>
<clus scale="   47.989">  1  9  2 -1</clus>
<clus scale="   91.718">  7  8 -1 -1</clus>
<clus scale="   97.782">  5  6 -1 -1</clus>
<clus scale="  240.369">  2  7  1 -1</clus>
<clus scale="   37.512">  2  5  1 -1</clus>
</clustering>
</event>
<event>
10    2  0.1133532E-006  0.1368693E+03  0.7546771E-02  0.1217949E+00
         -2   -1    0    0    0  501 -0.00000000000E+00  0.00000000000E+00  0.63729156066E+03  0.63729156066E+03  0.00000000000E+00 0.  1.
          2   -1    0    0  503    0  0.00000000000E+00 -0.00000000000E+00 -0.14874303553E+03  0.14874303553E+03  0.00000000000E+00 0. -1.
         23    2    1    2    0    0 -0.24587670292E+02  0.13048744749E+03  0.28730577137E+03  0.32932617652E+03  0.90992289764E+02 0.  0.
         23    2    1    2    0    0  0.53710896950E+02 -0.51419184138E+02 -0.85481944686E+02  0.14623806372E+03  0.92464130686E+02 0.  0.
        -11    1    4    4    0    0  0.52616795936E+02  0.10217812470E+01 -0.88371311190E+01  0.53363528162E+02  0.00000000000E+00 0.  1.
         11    1    4    4    0    0  0.10941010137E+01 -0.52440965385E+02 -0.76644813567E+02  0.92874535554E+02  0.00000000000E+00 0. -1.
        -13    1    3    3    0    0 -0.32599836154E+02  0.63708083346E+02  0.63644788676E+02  0.95771229117E+02  0.00000000000E+00 0. -1.
         13    1    3    3    0    0  0.80121658626E+01  0.66779364142E+02  0.22366098269E+03  0.23355494740E+03  0.00000000000E+00 0.  1.
         21    1    1    2  502  501 -0.40858347888E+02 -0.50876934172E+02  0.26520142418E+03  0.27311108072E+03  0.00000000000E+00 0.  1.
         21    1    1    2  503  502  0.11735121229E+02 -0.28191329179E+02  0.21523274266E+02  0.37359275238E+02  0.00000000000E+00 0. -1.
<scales pt_clust_5="13000.00000" pt_clust_6="13000.00000" pt_clust_7="13000.00000" pt_clust_8="13000.00000" pt_clust_9="65.66758" pt_clust_10="30.53628"></scales>
<clustering>
<clus scale="   30.536">  2 10  1 -1</clus>
<clus scale="   65.668">  1  9  2 -1</clus>
<clus scale="   90.992">  7  8 -1 -1</clus>
<clus scale="   92.464">  5  6 -1 -1</clus>
<clus scale="  135.879">  1  7  2 -1</clus>
<clus scale="   30.536">  2  5  1 -1</clus>
</clustering>
</event>
<event>
10    2  0.2193141E-006  0.3056874E+03  0.7546771E-02  0.1082615E+00
         -2   -1    0    0    0  501 -0.00000000000E+00  0.00000000000E+00  0.10249975875E+03  0.10249975875E+03  0.00000000000E+00 0.  1.
          2   -1    0    0  503    0  0.00000000000E+00 -0.00000000000E+00 -0.19973878919E+04  0.19973878919E+04  0.00000000000E+00 0. -1.
         23    2    1    2    0    0 -0.25082460551E+03  0.15203287338E+03 -0.30912236023E+03  0.43581554215E+03  0.91386956771E+02 0.  0.
         23    2    1    2    0    0  0.25343755516E+03 -0.15926268891E+03 -0.15335605932E+04  0.15648764873E+04  0.86227193732E+02 0.  0.
        -13    1    4    4    0    0  0.20676849983E+02 -0.50506070058E+02 -0.26478189054E+03  0.27034763693E+03  0.00000000000E+00 0. -1.
         13    1    4    4    0    0  0.23276070518E+03 -0.10875661885E+03 -0.12687787027E+04  0.12945288504E+04  0.00000000000E+00 0.  1.
        -13    1    3    3    0    0 -0.23089165385E+02  0.27895088713E+02 -0.87349571853E+02  0.94557882989E+02  0.00000000000E+00 0.  1.
         13    1    3    3    0    0 -0.22773544013E+03  0.12413778467E+03 -0.22177278837E+03  0.34125765916E+03  0.00000000000E+00 0. -1.
         21    1    1    2  502  501  0.16490268530E+02  0.17126478272E+02  0.15348423485E+02  0.28298751168E+02  0.00000000000E+00 0. -1.
         21    1    1    2  503  502 -0.19103218182E+02 -0.98966627433E+01 -0.67553603169E+02  0.70896870026E+02  0.00000000000E+00 0. -1.
<scales pt_clust_5="13000.00000" pt_clust_6="13000.00000" pt_clust_7="13000.00000" pt_clust_8="13000.00000" pt_clust_9="23.70646" pt_clust_10="21.51457"></scales>
<clustering>
<clus scale="   21.515">  2 10  1 -1</clus>
<clus scale="   23.706">  1  9  2 -1</clus>
<clus scale="   86.227">  5  6 -1 -1</clus>
<clus scale="   91.387">  7  8 -1 -1</clus>
<clus scale="  304.185">  2  5  1 -1</clus>
<clus scale="   21.515">  2  5  1 -1</clus>
</clustering>
</event>
<event>
10    2  0.1133532E-006  0.9167161E+02  0.7546771E-02  0.1303250E+00
         -1   -1    0    0    0  501 -0.00000000000E+00  0.00000000000E+00  0.24437690988E+03  0.24437690988E+03  0.00000000000E+00 0.  1.
          1   -1    0    0  503    0  0.00000000000E+00 -0.00000000000E+00 -0.62980744075E+02  0.62980744075E+02  0.00000000000E+00 0. -1.
         23    2    1    2    0    0  0.21959533427E+02  0.22740379258E+02  0.11339240540E+03  0.14408694093E+03  0.83089487819E+02 0.  0.
         23    2    1    2    0    0  0.15658422476E+02 -0.18677210259E+02  0.25998159658E+02  0.97105564784E+02  0.90330294081E+02 0.  0.
        -11    1    3    3    0    0  0.34090442155E+02  0.48416371423E+02  0.64601096410E+02  0.87633355096E+02  0.00000000000E+00 0.  1.
         11    1    3    3    0    0 -0.12130908727E+02 -0.25675992165E+02  0.48791308988E+02  0.56453585829E+02  0.00000000000E+00 0. -1.
        -13    1    4    4    0    0 -0.15438229848E+02 -0.48240390080E+02  0.14488081930E+02  0.52681863045E+02  0.00000000000E+00 0. -1.
         13    1    4    4    0    0  0.31096652324E+02  0.29563179820E+02  0.11510077729E+02  0.44423701739E+02  0.00000000000E+00 0.  1.
         21    1    1    2  502  501 -0.21708785556E+02 -0.18923806153E+02  0.28661151424E+02  0.40630572364E+02  0.00000000000E+00 0.  1.
         21    1    1    2  503  502 -0.15909170347E+02  0.14860637154E+02  0.13344449324E+02  0.25534575883E+02  0.00000000000E+00 0.  1.
<scales pt_clust_5="13000.00000" pt_clust_6="13000.00000" pt_clust_7="13000.00000" pt_clust_8="13000.00000" pt_clust_9="29.12259" pt_clust_10="21.77017"></scales>
<clustering>
<clus scale="   21.770">  2 10  1 -1</clus>
<clus scale="   29.123">  1  9  2 -1</clus>
<clus scale="   83.089">  5  6 -1 -1</clus>
<clus scale="   84.546">  1  5  2 -1</clus>
<clus scale="   90.330">  7  8 -1 -1</clus>
<clus scale="   21.770">  2  5  1 -1</clus>
</clustering>
</event>
<event>
10    2  0.1133532E-006  0.1185077E+03  0.7546771E-02  0.1245828E+00
          1   -1    0    0  503    0  0.00000000000E+00  0.00000000000E+00  0.34969814333E+03  0.34969814333E+03  0.00000000000E+00 0. -1.
         -1   -1    0    0    0  501 -0.00000000000E+00 -0.00000000000E+00 -0.39882013782E+03  0.39882013782E+03  0.00000000000E+00 0.  1.
         23    2    1    2    0    0  0.29916106837E+02  0.32135139580E+02 -0.11900354970E+03  0.15657830249E+03  0.91800214183E+02 0.  0.
         23    2    1    2    0    0 -0.22856901870E+01 -0.28340417350E+02  0.12516428491E+03  0.15824577167E+03  0.92559291262E+02 0.  0.
        -11    1    4    4    0    0  0.10938097358E+02 -0.57040725759E+02  0.10713121706E+03  0.12186215178E+03  0.00000000000E+00 0.  1.
         11    1    4    4    0    0 -0.13223787545E+02  0.28700308409E+02  0.18033067850E+02  0.36383619884E+02  0.00000000000E+00 0. -1.
        -13    1    3    3    0    0  0.51063693115E+02  0.88031128377E+01 -0.11328542142E+03  0.12457360176E+03  0.00000000000E+00 0.  1.
         13    1    3    3    0    0 -0.21147586278E+02  0.23332026742E+02 -0.57181282805E+01  0.32004700722E+02  0.00000000000E+00 0. -1.
         21    1    1    2  502  501 -0.26214150404E+02  0.65851901563E+02 -0.23261321317E+03  0.24317187659E+03  0.00000000000E+00 0.  1.
         21    1    1    2  503  502 -0.14162662455E+01 -0.69646623793E+02  0.17733048347E+03  0.19052233041E+03  0.00000000000E+00 0. -1.
<scales pt_clust_5="13000.00000" pt_clust_6="13000.00000" pt_clust_7="13000.00000" pt_clust_8="13000.00000" pt_clust_9="68.83907" pt_clust_10="69.66102"></scales>
<clustering>
<clus scale="   69.661">  1 10  2 -1</clus>
<clus scale="   68.839">  2  9  1 -1</clus>
<clus scale="   91.800">  7  8 -1 -1</clus>
<clus scale="   92.559">  5  6 -1 -1</clus>
<clus scale="  117.916">  2  7  1 -1</clus>
<clus scale="   69.661">  1  5  2 -1</clus>
</clustering>
</event>
<event>
10    2  0.1133532E-006  0.1511384E+03  0.7546771E-02  0.1219268E+00
         -1   -1    0    0    0  501 -0.00000000000E+00  0.00000000000E+00  0.54712125416E+02  0.54712125416E+02  0.00000000000E+00 0.  1.
          1   -1    0    0  503    0  0.00000000000E+00 -0.00000000000E+00 -0.13910689935E+04  0.13910689935E+04  0.00000000000E+00 0. -1.
         23    2    1    2    0    0  0.28436890617E+02 -0.96624388985E+01 -0.13716632036E+03  0.16470744804E+03  0.86092534663E+02 0.  0.
         23    2    1    2    0    0 -0.78607794266E+02  0.10032927303E+03 -0.42764074093E+03  0.45535435248E+03  0.90696387324E+02 0.  0.
        -13    1    3    3    0    0 -0.24105714507E+02  0.22978013328E+01 -0.89652040720E+02  0.92864706795E+02  0.00000000000E+00 0.  1.
         13    1    3    3    0    0  0.52542605124E+02 -0.11960240231E+02 -0.47514279640E+02  0.71842741243E+02  0.00000000000E+00 0. -1.
        -13    1    4    4    0    0 -0.96854625320E+02  0.76950175758E+02 -0.30395394666E+03  0.32816177365E+03  0.00000000000E+00 0.  1.
         13    1    4    4    0    0  0.18246831053E+02  0.23379097271E+02 -0.12368679427E+03  0.12719257883E+03  0.00000000000E+00 0. -1.
         21    1    1    2  502  501  0.43896069859E+02  0.34016059811E+02 -0.13091784538E+02  0.57055692937E+02  0.00000000000E+00 0.  1.
         21    1    1    2  503  502  0.62748337909E+01 -0.12468289394E+03 -0.75845802229E+03  0.76866362550E+03  0.00000000000E+00 0. -1.
<scales pt_clust_5="13000.00000" pt_clust_6="13000.00000" pt_clust_7="13000.00000" pt_clust_8="13000.00000" pt_clust_9="55.53339" pt_clust_10="120.90073"></scales>
<clustering>
<clus scale="   55.533">  1  9  2 -1</clus>
<clus scale="   86.093">  5  6 -1 -1</clus>
<clus scale="   90.696">  7  8 -1 -1</clus>
<clus scale="   98.151">  1  5  2 -1</clus>
<clus scale="  120.901">  2 10  1 -1</clus>
<clus scale="  120.901">  2  5  1 -1</clus>
</clustering>
</event>
<event>
10    2  0.1133532E-006  0.1483961E+03  0.7546771E-02  0.1202735E+00
         -1   -1    0    0    0  501 -0.00000000000E+00  0.00000000000E+00  0.66557653521E+02  0.66557653521E+02  0.00000000000E+00 0.  1.
          1   -1    0    0  503    0  0.00000000000E+00 -0.00000000000E+00 -0.13417523645E+04  0.13417523645E+04  0.00000000000E+00 0. -1.
         23    2    1    2    0    0  0.44893801650E+02 -0.65468091305E+02 -0.27436729837E+03  0.30056690419E+03  0.93603018518E+02 0.  0.
         23    2    1    2    0    0 -0.12377377347E+03  0.85419826913E+02 -0.22693295502E+03  0.28742709325E+03  0.92191507372E+02 0.  0.
        -11    1    3    3    0    0  0.40669409146E+02  0.54302460313E+01 -0.16602402268E+03  0.17101890106E+03  0.00000000000E+00 0.  1.
         11    1    3    3    0    0  0.42243925040E+01 -0.70898337336E+02 -0.10834327569E+03  0.12954800314E+03  0.00000000000E+00 0. -1.
        -11    1    4    4    0    0 -0.35865341011E+02  0.77409166052E+02 -0.13713893864E+03  0.16151034074E+03  0.00000000000E+00 0. -1.
         11    1    4    4    0    0 -0.87908432461E+02  0.80106608616E+01 -0.89794016373E+02  0.12591675251E+03  0.00000000000E+00 0.  1.
         21    1    1    2  502  501 -0.50683225238E+01  0.34777120086E+02  0.45587942933E+01  0.35438941577E+02  0.00000000000E+00 0.  1.
         21    1    1    2  503  502  0.83948294346E+02 -0.54728855695E+02 -0.77845325185E+03  0.78487707896E+03  0.00000000000E+00 0. -1.
<scales pt_clust_5="13000.00000" pt_clust_6="13000.00000" pt_clust_7="13000.00000" pt_clust_8="13000.00000" pt_clust_9="35.14450" pt_clust_10="98.62623"></scales>
<clustering>
<clus scale="   35.145">  1  9  2 -1</clus>
<clus scale="   92.192">  7  8 -1 -1</clus>
<clus scale="   93.603">  5  6 -1 -1</clus>
<clus scale="   98.626">  2 10  1 -1</clus>
<clus scale="  147.510">  2  7  1 -1</clus>
<clus scale="   98.626">  2  5  1 -1</clus>
</clustering>
</event>
<event>
10    2  0.1133532E-006  0.1045765E+03  0.7546771E-02  0.1272635E+00
          3   -1    0    0  503    0  0.00000000000E+00  0.00000000000E+00  0.57668991887E+02  0.57668991887E+02  0.00000000000E+00 0. -1.
         -3   -1    0    0    0  501 -0.00000000000E+00 -0.00000000000E+00 -0.58240387481E+03  0.58240387481E+03  0.00000000000E+00 0.  1.
         23    2    1    2    0    0 -0.74938585036E+02  0.47196714778E+02 -0.14564923394E+03  0.19213883301E+03  0.88658391529E+02 0.  0.
         23    2    1    2    0    0  0.33974862457E+02  0.21817552564E+02 -0.69116338356E+02  0.12228316276E+03  0.92443532964E+02 0.  0.
        -13    1    3    3    0    0 -0.52865194019E+02  0.26135628222E+02 -0.15013481166E+03  0.16130177145E+03  0.00000000000E+00 0.  1.
         13    1    3    3    0    0 -0.22073391017E+02  0.21061086556E+02  0.44855777184E+01  0.30837061555E+02  0.00000000000E+00 0. -1.
        -13    1    4    4    0    0 -0.23876265552E+02 -0.17853484103E+02 -0.28405420154E+02  0.41178766925E+02  0.00000000000E+00 0.  1.
         13    1    4    4    0    0  0.57851128009E+02  0.39671036667E+02 -0.40710918201E+02  0.81104395830E+02  0.00000000000E+00 0. -1.
         21    1    1    2  502  501 -0.31435443414E+00 -0.30582017257E+02 -0.19727188028E+03  0.19962853841E+03  0.00000000000E+00 0.  1.
         21    1    1    2  503  502  0.41278077013E+02 -0.38432250086E+02 -0.11269743034E+03  0.12602233252E+03  0.00000000000E+00 0. -1.
<scales pt_clust_5="13000.00000" pt_clust_6="13000.00000" pt_clust_7="13000.00000" pt_clust_8="13000.00000" pt_clust_9="30.58363" pt_clust_10="63.19808"></scales>
<clustering>
<clus scale="   30.584">  2  9  1 -1</clus>
<clus scale="   63.198">  2 10  1 -1</clus>
<clus scale="   88.658">  5  6 -1 -1</clus>
<clus scale="   92.444">  7  8 -1 -1</clus>
<clus scale="  101.246">  2  5  1 -1</clus>
<clus scale="  104.576">  1  5  2 -1</clus>
</clustering>
</event>
<event>
10    2  0.1133532E-006  0.1032571E+03  0.7546771E-02  0.1274361E+00
         -1   -1    0    0    0  501 -0.00000000000E+00  0.00000000000E+00  0.80682808449E+02  0.80682808449E+02  0.00000000000E+00 0.  1.
          1   -1    0    0  503    0  0.00000000000E+00 -0.00000000000E+00 -0.32535384572E+03  0.32535384572E+03  0.00000000000E+00 0. -1.
         23    2    1    2    0    0 -0.13753411147E+02 -0.95819573940E+02 -0.72134227812E+02  0.14946657881E+03  0.88126978221E+02 0.  0.
         23    2    1    2    0    0 -0.10436808720E+02  0.19222515062E+02 -0.98107911698E+02  0.13483461515E+03  0.89870902097E+02 0.  0.
        -11    1    3    3    0    0 -0.32310286106E+02 -0.57094565090E+02 -0.98710029217E-01  0.65603000653E+02  0.00000000000E+00 0.  1.
         11    1    3    3    0    0  0.18556874959E+02 -0.38725008850E+02 -0.72035517783E+02  0.83863578155E+02  0.00000000000E+00 0. -1.
        -13    1    4    4    0    0  0.15850598301E+02  0.34474963621E+02 -0.97294670657E+02  0.10443187981E+03  0.00000000000E+00 0. -1.
         13    1    4    4    0    0 -0.26287407022E+02 -0.15252448559E+02 -0.81324104031E+00  0.30402735337E+02  0.00000000000E+00 0.  1.
         21    1    1    2  502  501 -0.60448953565E+01  0.55672839923E+02 -0.28298697119E+02  0.62744100310E+02  0.00000000000E+00 0. -1.
         21    1    1    2  503  502  0.30235115224E+02  0.20924218954E+02 -0.46130200639E+02  0.58991359896E+02  0.00000000000E+00 0.  1.
<scales pt_clust_5="13000.00000" pt_clust_6="13000.00000" pt_clust_7="13000.00000" pt_clust_8="13000.00000" pt_clust_9="59.17294" pt_clust_10="36.76935"></scales>
<clustering>
<clus scale="   36.769">  2 10  1 -1</clus>
<clus scale="   59.173">  1  9  2 -1</clus>
<clus scale="   88.127">  5  6 -1 -1</clus>
<clus scale="   89.871">  7  8 -1 -1</clus>
<clus scale="  101.743">  1  5  2 -1</clus>
<clus scale="   36.769">  2  5  1 -1</clus>
</clustering>
</event>
<event>
10    2  0.1133532E-006  0.1079799E+03  0.7546771E-02  0.1264548E+00
         -2   -1    0    0    0  501 -0.00000000000E+00  0.00000000000E+00  0.62312559260E+03  0.62312559260E+03  0.00000000000E+00 0.  1.
          2   -1    0    0  503    0  0.00000000000E+00 -0.00000000000E+00 -0.38258592673E+02  0.38258592673E+02  0.00000000000E+00 0. -1.
         23    2    1    2    0    0 -0.47494195926E+02 -0.18949933056E+02  0.30709350785E+03  0.32398258307E+03  0.89685522568E+02 0.  0.
         23    2    1    2    0    0  0.76866362397E+02 -0.17222435818E+01  0.22824588639E+03  0.25717202809E+03  0.90165756176E+02 0.  0.
        -11    1    4    4    0    0  0.44754486280E+02  0.43747728258E+02  0.11251535215E+03  0.12874988248E+03  0.00000000000E+00 0. -1.
         11    1    4    4    0    0  0.32111876117E+02 -0.45469971839E+02  0.11573053425E+03  0.12842214561E+03  0.00000000000E+00 0.  1.
        -13    1    3    3    0    0 -0.43742921255E+02 -0.42478707726E+02  0.28513344918E+03  0.29158012211E+03  0.00000000000E+00 0.  1.
         13    1    3    3    0    0 -0.37512746715E+01  0.23528774670E+02  0.21960058668E+02  0.32402460954E+02  0.00000000000E+00 0. -1.
         21    1    1    2  502  501 -0.27803953791E+02 -0.34811328819E+00  0.52038764661E+02  0.59001814012E+02  0.00000000000E+00 0.  1.
         21    1    1    2  503  502 -0.15682126797E+01  0.21020289926E+02 -0.25111589748E+01  0.21227760103E+02  0.00000000000E+00 0. -1.
<scales pt_clust_5="13000.00000" pt_clust_6="13000.00000" pt_clust_7="13000.00000" pt_clust_8="13000.00000" pt_clust_9="28.11563" pt_clust_10="21.07871"></scales>
<clustering>
<clus scale="   21.079">  2 10  1 -1</clus>
<clus scale="   28.116">  2  9  1 -1</clus>
<clus scale="   89.686">  7  8 -1 -1</clus>
<clus scale="   90.166">  5  6 -1 -1</clus>
<clus scale="  107.579">  1  7  2 -1</clus>
<clus scale="   21.079">  2  5  1 -1</clus>
</clustering>
</event>
<event>
10    2  0.1133532E-006  0.1734108E+03  0.7546771E-02  0.1195250E+00
          1   -1    0    0  503    0  0.00000000000E+00  0.00000000000E+00  0.22394927554E+03  0.22394927554E+03  0.00000000000E+00 0. -1.
         -1   -1    0    0    0  501 -0.00000000000E+00 -0.00000000000E+00 -0.48401710539E+03  0.48401710539E+03  0.00000000000E+00 0.  1.
         23    2    1    2    0    0 -0.50255195921E+02  0.42691352285E+02 -0.12284240446E+03  0.16408889447E+03  0.86526138698E+02 0.  0.
         23    2    1    2    0    0 -0.10768831717E+03 -0.97692189083E+02  0.13590479148E+03  0.21947964448E+03  0.92523859257E+02 0.  0.
        -11    1    4    4    0    0 -0.10388496144E+03 -0.67633845862E+02  0.14208346985E+03  0.18855804073E+03  0.00000000000E+00 0. -1.
         11    1    4    4    0    0 -0.38033557264E+01 -0.30058343221E+02 -0.61786783712E+01  0.30921603749E+02  0.00000000000E+00 0.  1.
        -11    1    3    3    0    0  0.38704870500E+01  0.37871899802E+02 -0.10811076698E+02  0.39574497394E+02  0.00000000000E+00 0.  1.
         11    1    3    3    0    0 -0.54125682971E+02  0.48194524827E+01 -0.11203132776E+03  0.12451439707E+03  0.00000000000E+00 0. -1.
         21    1    1    2  502  501  0.79161366742E+02  0.54669536493E+02 -0.15352097912E+03  0.18117387018E+03  0.00000000000E+00 0.  1.
         21    1    1    2  503  502  0.78782146347E+02  0.33130030575E+00 -0.11960923775E+03  0.14322397180E+03  0.00000000000E+00 0.  1.
<scales pt_clust_5="13000.00000" pt_clust_6="13000.00000" pt_clust_7="13000.00000" pt_clust_8="13000.00000" pt_clust_9="155.47742" pt_clust_10="46.69510"></scales>
<clustering>
<clus scale="   46.695">  9 10 -1 -1</clus>
<clus scale="   86.526">  7  8 -1 -1</clus>
<clus scale="   92.524">  5  6 -1 -1</clus>
<clus scale="  108.788">  2  7  1 -1</clus>
<clus scale="  155.477">  2  9  1 -1</clus>
<clus scale="  173.411">  1  5  2 -1</clus>
</clustering>
</event>
<event>
10    2  0.1133532E-006  0.4048280E+03  0.7546771E-02  0.1042131E+00
          2   -1    0    0  503    0  0.00000000000E+00  0.00000000000E+00  0.45713380342E+03  0.45713380342E+03  0.00000000000E+00 0. -1.
         -2   -1    0    0    0  501 -0.00000000000E+00 -0.00000000000E+00 -0.15489827348E+04  0.15489827348E+04  0.00000000000E+00 0.  1.
         23    2    1    2    0    0 -0.36679160015E+03  0.31895344154E+03 -0.55667149588E+03  0.74461066056E+03  0.91074176870E+02 0.  0.
         23    2    1    2    0    0  0.24406320650E+03 -0.29509840221E+03  0.18514389921E+03  0.43511352692E+03  0.91627518451E+02 0.  0.
        -11    1    3    3    0    0 -0.29767953159E+03  0.26799473185E+03 -0.50437274429E+03  0.64406998456E+03  0.00000000000E+00 0.  1.
         11    1    3    3    0    0 -0.69112068557E+02  0.50958709691E+02 -0.52298751584E+02  0.10054067600E+03  0.00000000000E+00 0. -1.
        -11    1    4    4    0    0  0.56894650288E+02 -0.42787830047E+02  0.14654586822E+01  0.71203561713E+02  0.00000000000E+00 0.  1.
         11    1    4    4    0    0  0.18716855621E+03 -0.25231057216E+03  0.18367844053E+03  0.36390996520E+03  0.00000000000E+00 0. -1.
         21    1    1    2  502  501  0.11222648060E+03 -0.42849305899E+02 -0.76624165239E+03  0.77560113191E+03  0.00000000000E+00 0. -1.
         21    1    1    2  503  502  0.10501913047E+02  0.18994266565E+02  0.45920317649E+02  0.50791218857E+02  0.00000000000E+00 0.  1.
<scales pt_clust_5="13000.00000" pt_clust_6="13000.00000" pt_clust_7="13000.00000" pt_clust_8="13000.00000" pt_clust_9="120.16346" pt_clust_10="21.70420"></scales>
<clustering>
<clus scale="   21.704">  1 10  2 -1</clus>
<clus scale="   91.074">  5  6 -1 -1</clus>
<clus scale="   91.628">  7  8 -1 -1</clus>
<clus scale="  120.163">  2  9  1 -1</clus>
<clus scale="  404.703">  2  5  1 -1</clus>
<clus scale="   21.704">  1  5  2 -1</clus>
</clustering>
</event>
<event>
10    2  0.1133532E-006  0.1471006E+03  0.7546771E-02  0.1204090E+00
         -3   -1    0    0    0  501 -0.00000000000E+00  0.00000000000E+00  0.95575126706E+02  0.95575126706E+02  0.00000000000E+00 0.  1.
          3   -1    0    0  503    0  0.00000000000E+00 -0.00000000000E+00 -0.55359446424E+03  0.55359446424E+03  0.00000000000E+00 0. -1.
         23    2    1    2    0    0  0.87841386080E+02  0.59695819434E+02 -0.53777439138E+02  0.15024790538E+03  0.91666352308E+02 0.  0.
         23    2    1    2    0    0 -0.13268409493E+03 -0.18395753466E+02 -0.13391639868E+03  0.21040893350E+03  0.91623384941E+02 0.  0.
        -11    1    4    4    0    0 -0.10794260992E+02  0.29099339481E+02 -0.31991163720E+02  0.44572661854E+02  0.00000000000E+00 0.  1.
         11    1    4    4    0    0 -0.12188983394E+03 -0.47495092947E+02 -0.10192523496E+03  0.16583627164E+03  0.00000000000E+00 0. -1.
        -13    1    3    3    0    0  0.56704444533E+02  0.83559623171E+02 -0.41007842637E+02  0.10899196214E+03  0.00000000000E+00 0.  1.
         13    1    3    3    0    0  0.31136941547E+02 -0.23863803737E+02 -0.12769596501E+02  0.41255943239E+02  0.00000000000E+00 0. -1.
         21    1    1    2  502  501  0.14676517600E+02 -0.26024771770E+02 -0.20092434201E+02  0.36005483286E+02  0.00000000000E+00 0.  1.
         21    1    1    2  503  502  0.30166191252E+02 -0.15275294198E+02 -0.25023306552E+03  0.25250726878E+03  0.00000000000E+00 0. -1.
<scales pt_clust_5="13000.00000" pt_clust_6="13000.00000" pt_clust_7="13000.00000" pt_clust_8="13000.00000" pt_clust_9="29.87790" pt_clust_10="34.13640"></scales>
<clustering>
<clus scale="   29.878">  1  9  2 -1</clus>
<clus scale="   34.136">  2 10  1 -1</clus>
<clus scale="   91.623">  5  6 -1 -1</clus>
<clus scale="   91.666">  7  8 -1 -1</clus>
<clus scale="  147.074">  2  5  1 -1</clus>
<clus scale="   34.136">  2  5  1 -1</clus>
</clustering>
</event>
<event>
10    2  0.1133532E-006  0.1207559E+03  0.7546771E-02  0.1249999E+00
          1   -1    0    0  503    0  0.00000000000E+00  0.00000000000E+00  0.36235904117E+03  0.36235904117E+03  0.00000000000E+00 0. -1.
         -1   -1    0    0    0  501 -0.00000000000E+00 -0.00000000000E+00 -0.73314454175E+02  0.73314454175E+02  0.00000000000E+00 0.  1.
         23    2    1    2    0    0 -0.94743682377E+01 -0.18516744812E+02  0.63309711880E+02  0.13093525423E+03  0.11270886252E+03 0.  0.
         23    2    1    2    0    0  0.30202604573E+01  0.86290557748E+02  0.15149311645E+03  0.19757335870E+03  0.92897176525E+02 0.  0.
        -11    1    4    4    0    0  0.42760274040E+02  0.63663601078E+02  0.68564457585E+02  0.10287166754E+03  0.00000000000E+00 0. -1.
         11    1    4    4    0    0 -0.39740013582E+02  0.22626956670E+02  0.82928658865E+02  0.94701691161E+02  0.00000000000E+00 0.  1.
        -13    1    3    3    0    0 -0.33159486454E+02  0.17111336272E+00  0.86658199705E+02  0.92785906245E+02  0.00000000000E+00 0. -1.
         13    1    3    3    0    0  0.23685118216E+02 -0.18687858174E+02 -0.23348487825E+02  0.38149347986E+02  0.00000000000E+00 0.  1.
         21    1    1    2  502  501  0.21400925326E+02 -0.34052986343E+02  0.35094409337E+02  0.53378113965E+02  0.00000000000E+00 0. -1.
         21    1    1    2  503  502 -0.14946817546E+02 -0.33720826593E+02  0.39147349327E+02  0.53786768449E+02  0.00000000000E+00 0. -1.
<scales pt_clust_5="13000.00000" pt_clust_6="13000.00000" pt_clust_7="13000.00000" pt_clust_8="13000.00000" pt_clust_9="77.28178" pt_clust_10="35.02338"></scales>
<clustering>
<clus scale="   35.023">  9 10 -1 -1</clus>
<clus scale="   77.282">  1  9  2 -1</clus>
<clus scale="   92.897">  5  6 -1 -1</clus>
<clus scale="  102.511">  1  5  2 -1</clus>
<clus scale="  112.709">  7  8 -1 -1</clus>
<clus scale="   77.282">  1  5  2 -1</clus>
</clustering>
</event>
<event>
10    2  0.1133532E-006  0.1074107E+03  0.7546771E-02  0.1265650E+00
          2   -1    0    0  503    0  0.00000000000E+00  0.00000000000E+00  0.71800338667E+03  0.71800338667E+03  0.00000000000E+00 0. -1.
         -2   -1    0    0    0  501 -0.00000000000E+00 -0.00000000000E+00 -0.32710255851E+02  0.32710255851E+02  0.00000000000E+00 0.  1.
         23    2    1    2    0    0 -0.40083407276E+02 -0.61710474746E+02  0.29451070607E+03  0.31701448931E+03  0.91360649126E+02 0.  0.
         23    2    1    2    0    0  0.17619382552E+02  0.36539334338E+02  0.27959348960E+03  0.29676855095E+03  0.90848708350E+02 0.  0.
        -13    1    3    3    0    0  0.25563481777E+02 -0.34163586126E+02  0.14950976817E+03  0.15547930085E+03  0.00000000000E+00 0. -1.
         13    1    3    3    0    0 -0.65646889053E+02 -0.27546888619E+02  0.14500093791E+03  0.16153518846E+03  0.00000000000E+00 0.  1.
        -13    1    4    4    0    0 -0.61746477940E+01 -0.29007001573E+02  0.89804570793E+02  0.94574802939E+02  0.00000000000E+00 0.  1.
         13    1    4    4    0    0  0.23794030346E+02  0.65546335911E+02  0.18978891881E+03  0.20219374801E+03  0.00000000000E+00 0. -1.
         21    1    1    2  502  501 -0.96361704542E+01  0.19932981805E+02  0.11326999355E+01  0.22168954730E+02  0.00000000000E+00 0.  1.
         21    1    1    2  503  502  0.32100195178E+02  0.52381586025E+01  0.11005623521E+03  0.11476164753E+03  0.00000000000E+00 0. -1.
<scales pt_clust_5="13000.00000" pt_clust_6="13000.00000" pt_clust_7="13000.00000" pt_clust_8="13000.00000" pt_clust_9="22.14000" pt_clust_10="31.93623"></scales>
<clustering>
<clus scale="   22.140">  2  9  1 -1</clus>
<clus scale="   31.936">  1 10  2 -1</clus>
<clus scale="   90.849">  7  8 -1 -1</clus>
<clus scale="   91.361">  5  6 -1 -1</clus>
<clus scale="  106.976">  1  7  2 -1</clus>
<clus scale="   31.936">  1  5  2 -1</clus>
</clustering>
</event>
<event>
10    2  0.1133532E-006  0.1236494E+03  0.7546771E-02  0.1237820E+00
          1   -1    0    0  503    0  0.00000000000E+00  0.00000000000E+00  0.39370993563E+03  0.39370993563E+03  0.00000000000E+00 0. -1.
         -1   -1    0    0    0  501 -0.00000000000E+00 -0.00000000000E+00 -0.17389007448E+03  0.17389007448E+03  0.00000000000E+00 0.  1.
         23    2    1    2    0    0  0.81660064353E+02  0.62127719006E+02 -0.10365232877E+03  0.17119140488E+03  0.89635217772E+02 0.  0.
         23    2    1    2    0    0 -0.65835422403E+02 -0.24686751342E+01  0.14217871020E+03  0.18158789215E+03  0.91754998456E+02 0.  0.
        -13    1    4    4    0    0 -0.50593761255E+02 -0.43414359332E+02  0.10417871595E+03  0.12368403346E+03  0.00000000000E+00 0.  1.
         13    1    4    4    0    0 -0.15241661148E+02  0.40945684198E+02  0.37999994245E+02  0.57903858693E+02  0.00000000000E+00 0. -1.
        -13    1    3    3    0    0  0.39610246000E+02  0.35815050186E+02 -0.10892215934E+03  0.12130839296E+03  0.00000000000E+00 0.  1.
         13    1    3    3    0    0  0.42049818353E+02  0.26312668820E+02  0.52698305623E+01  0.49883011919E+02  0.00000000000E+00 0. -1.
         21    1    1    2  502  501 -0.79917260534E+01 -0.18987488065E+02 -0.72057338518E+01  0.21824641776E+02  0.00000000000E+00 0. -1.
         21    1    1    2  503  502 -0.78329158965E+01 -0.40671555807E+02  0.18849921358E+03  0.19299607131E+03  0.00000000000E+00 0. -1.
<scales pt_clust_5="13000.00000" pt_clust_6="13000.00000" pt_clust_7="13000.00000" pt_clust_8="13000.00000" pt_clust_9="20.60079" pt_clust_10="41.70336"></scales>
<clustering>
<clus scale="   20.601">  2  9  1 -1</clus>
<clus scale="   41.703">  1 10  2 -1</clus>
<clus scale="   89.635">  7  8 -1 -1</clus>
<clus scale="   91.755">  5  6 -1 -1</clus>
<clus scale="  122.085">  2  7  1 -1</clus>
<clus scale="   41.703">  1  5  2 -1</clus>
</clustering>
</event>
<event>
10    2  0.1133532E-006  0.9585008E+02  0.7546771E-02  0.1290154E+00
          1   -1    0    0  503    0  0.00000000000E+00  0.00000000000E+00  0.43352172074E+03  0.43352172074E+03  0.00000000000E+00 0. -1.
         -1   -1    0    0    0  501 -0.00000000000E+00 -0.00000000000E+00 -0.58634445492E+02  0.58634445492E+02  0.00000000000E+00 0.  1.
         23    2    1    2    0    0 -0.14886689615E+02  0.35799124084E+01  0.37856475700E+02  0.10007564840E+03  0.91365164858E+02 0.  0.
         23    2    1    2    0    0  0.26907362495E+02  0.44022654599E+02  0.98107807406E+02  0.14260515770E+03  0.89716714459E+02 0.  0.
        -13    1    3    3    0    0  0.21630056366E+02  0.25408615173E+02  0.45931022658E+02  0.56772492510E+02  0.00000000000E+00 0. -1.
         13    1    3    3    0    0 -0.36516745981E+02 -0.21828702765E+02 -0.80745469579E+01  0.43303155889E+02  0.00000000000E+00 0.  1.
        -13    1    4    4    0    0 -0.31388038869E+02  0.17953033690E+02  0.54020833800E+02  0.65005929631E+02  0.00000000000E+00 0.  1.
         13    1    4    4    0    0  0.58295401365E+02  0.26069620909E+02  0.44086973605E+02  0.77599228065E+02  0.00000000000E+00 0. -1.
         21    1    1    2  502  501 -0.14491213401E+02 -0.13997704171E+02  0.21531238903E+02  0.29487713316E+02  0.00000000000E+00 0. -1.
         21    1    1    2  503  502  0.24705405208E+01 -0.33604862836E+02  0.21739175324E+03  0.21998764682E+03  0.00000000000E+00 0.  1.
<scales pt_clust_5="13000.00000" pt_clust_6="13000.00000" pt_clust_7="13000.00000" pt_clust_8="13000.00000" pt_clust_9="20.14773" pt_clust_10="34.00383"></scales>
<clustering>
<clus scale="   20.148">  2  9  1 -1</clus>
<clus scale="   34.004">  1 10  2 -1</clus>
<clus scale="   89.717">  7  8 -1 -1</clus>
<clus scale="   91.365">  5  6 -1 -1</clus>
<clus scale="   94.280">  1  7  2 -1</clus>
<clus scale="   34.004">  1  5  2 -1</clus>
</clustering>
</event>
<event>
10    2  0.1133532E-006  0.1564985E+03  0.7546771E-02  0.1205198E+00
          3   -1    0    0  503    0  0.00000000000E+00  0.00000000000E+00  0.25640047006E+03  0.25640047006E+03  0.00000000000E+00 0. -1.
         -3   -1    0    0    0  501 -0.00000000000E+00 -0.00000000000E+00 -0.42432754821E+03  0.42432754821E+03  0.00000000000E+00 0.  1.
         23    2    1    2    0    0  0.32822218386E+02 -0.80078857737E+02 -0.18551977869E+03  0.22437036158E+03  0.91839802896E+02 0.  0.
         23    2    1    2    0    0 -0.12244338539E+03  0.40607326988E+01 -0.12558716871E+03  0.19782761621E+03  0.91404357746E+02 0.  0.
        -11    1    3    3    0    0 -0.31253669462E+02 -0.30545502525E+02 -0.82160206052E+02  0.93059760573E+02  0.00000000000E+00 0.  1.
         11    1    3    3    0    0  0.64075887848E+02 -0.49533355212E+02 -0.10335957264E+03  0.13131060101E+03  0.00000000000E+00 0. -1.
        -11    1    4    4    0    0 -0.10582898042E+03 -0.19717734952E+02 -0.53683806322E+02  0.12029344633E+03  0.00000000000E+00 0.  1.
         11    1    4    4    0    0 -0.16614404970E+02  0.23778467651E+02 -0.71903362391E+02  0.77534169883E+02  0.00000000000E+00 0. -1.
         21    1    1    2  502  501 -0.23662431236E+02  0.12820480500E+02 -0.31193271963E+02  0.41198247390E+02  0.00000000000E+00 0.  1.
         21    1    1    2  503  502  0.11328359824E+03  0.63197644537E+02  0.17437314122E+03  0.21733179308E+03  0.00000000000E+00 0. -1.
<scales pt_clust_5="13000.00000" pt_clust_6="13000.00000" pt_clust_7="13000.00000" pt_clust_8="13000.00000" pt_clust_9="26.91236" pt_clust_10="127.03153"></scales>
<clustering>
<clus scale="   26.912">  2  9  1 -1</clus>
<clus scale="   91.404">  7  8 -1 -1</clus>
<clus scale="   91.840">  5  6 -1 -1</clus>
<clus scale="  119.256">  2  5  1 -1</clus>
<clus scale="  127.032">  1 10  2 -1</clus>
<clus scale="  127.032">  1  5  2 -1</clus>
</clustering>
</event>
<event>
10    2  0.1133532E-006  0.1544246E+03  0.7546771E-02  0.1219129E+00
          1   -1    0    0  503    0  0.00000000000E+00  0.00000000000E+00  0.25975666883E+03  0.25975666883E+03  0.00000000000E+00 0. -1.
         -1   -1    0    0    0  501 -0.00000000000E+00 -0.00000000000E+00 -0.65368600032E+03  0.65368600032E+03  0.00000000000E+00 0.  1.
         23    2    1    2    0    0 -0.22303157735E+02  0.24984445163E+02 -0.24685253694E+03  0.26509426364E+03  0.90648443305E+02 0.  0.
         23    2    1    2    0    0 -0.11916883756E+03  0.65263574834E+02  0.15596674713E+03  0.22740546261E+03  0.94483184592E+02 0.  0.
        -11    1    4    4    0    0 -0.95670379089E+02 -0.34343676567E+00  0.94714253053E+02  0.13462440015E+03  0.00000000000E+00 0.  1.
         11    1    4    4    0    0 -0.23498458471E+02  0.65607011600E+02  0.61252494072E+02  0.92781062462E+02  0.00000000000E+00 0. -1.
        -13    1    3    3    0    0  0.32523222698E+02 -0.41697163854E+01 -0.62731939072E+02  0.70784480849E+02  0.00000000000E+00 0.  1.
         13    1    3    3    0    0 -0.54826380433E+02  0.29154161549E+02 -0.18412059787E+03  0.19430978279E+03  0.00000000000E+00 0. -1.
         21    1    1    2  502  501  0.46153918366E+02 -0.49265907092E+02 -0.30970244046E+03  0.31697462897E+03  0.00000000000E+00 0.  1.
         21    1    1    2  503  502  0.95318076930E+02 -0.40982112906E+02  0.66588987852E+01  0.10396831393E+03  0.00000000000E+00 0.  1.
<scales pt_clust_5="13000.00000" pt_clust_6="13000.00000" pt_clust_7="13000.00000" pt_clust_8="13000.00000" pt_clust_9="67.50788" pt_clust_10="122.14703"></scales>
<clustering>
<clus scale="   67.508">  2  9  1 -1</clus>
<clus scale="   90.648">  7  8 -1 -1</clus>
<clus scale="   92.286">  2  7  1 -1</clus>
<clus scale="   94.483">  5  6 -1 -1</clus>
<clus scale="  122.147">  2 10  1 -1</clus>
<clus scale="  154.425">  1  5  2 -1</clus>
</clustering>
</event>
<event>
10    2  0.1133532E-006  0.9243223E+02  0.7546771E-02  0.1303185E+00
         -2   -1    0    0    0  501 -0.00000000000E+00  0.00000000000E+00  0.19862137753E+03  0.19862137753E+03  0.00000000000E+00 0.  1.
          2   -1    0    0  503    0  0.00000000000E+00 -0.00000000000E+00 -0.45074950216E+03  0.45074950216E+03  0.00000000000E+00 0. -1.
         23    2    1    2    0    0  0.44367023894E+02  0.16351789073E+02  0.64367257794E+02  0.12079859031E+03  0.90627488825E+02 0.  0.
         23    2    1    2    0    0  0.55718308386E+02 -0.20012832934E+02  0.20502330689E+02  0.10204675033E+03  0.80549055356E+02 0.  0.
        -11    1    4    4    0    0  0.36763712067E+02  0.28048177033E+01  0.48724661120E+02  0.61102619654E+02  0.00000000000E+00 0. -1.
         11    1    4    4    0    0  0.18954596319E+02 -0.22817650637E+02 -0.28222330431E+02  0.40944130680E+02  0.00000000000E+00 0.  1.
        -13    1    3    3    0    0 -0.16608558819E+02  0.33017567329E+02  0.12453405418E+02  0.39001170302E+02  0.00000000000E+00 0. -1.
         13    1    3    3    0    0  0.60975582713E+02 -0.16665778256E+02  0.51913852377E+02  0.81797420012E+02  0.00000000000E+00 0.  1.
         21    1    1    2  502  501 -0.48969084603E+02  0.62510622683E+02  0.12448389360E+01  0.79417245099E+02  0.00000000000E+00 0.  1.
         21    1    1    2  503  502 -0.51116247676E+02 -0.58849578823E+02 -0.33824255205E+03  0.34710829394E+03  0.00000000000E+00 0. -1.
<scales pt_clust_5="13000.00000" pt_clust_6="13000.00000" pt_clust_7="13000.00000" pt_clust_8="13000.00000" pt_clust_9="79.05668" pt_clust_10="77.94962"></scales>
<clustering>
<clus scale="   77.950">  2 10  1 -1</clus>
<clus scale="   79.057">  2  9  1 -1</clus>
<clus scale="   80.549">  5  6 -1 -1</clus>
<clus scale="   82.574">  2  5  1 -1</clus>
<clus scale="   90.627">  7  8 -1 -1</clus>
<clus scale="   77.950">  2  5  1 -1</clus>
</clustering>
</event>
<event>
10    2  0.1133532E-006  0.1369674E+03  0.7546771E-02  0.1217542E+00
          2   -1    0    0  503    0  0.00000000000E+00  0.00000000000E+00  0.60416438964E+03  0.60416438964E+03  0.00000000000E+00 0. -1.
         -2   -1    0    0    0  501 -0.00000000000E+00 -0.00000000000E+00 -0.10526840826E+03  0.10526840826E+03  0.00000000000E+00 0.  1.
         23    2    1    2    0    0 -0.71042232117E+02  0.84919185253E+01  0.19635735950E+02  0.11793664030E+03  0.91675392420E+02 0.  0.
         23    2    1    2    0    0  0.10413059057E+03 -0.28671828965E+02  0.49423927716E+03  0.51408570866E+03  0.91358628984E+02 0.  0.
        -11    1    3    3    0    0 -0.16330260387E+02 -0.24451915325E+02  0.41123423352E+02  0.50554025711E+02  0.00000000000E+00 0. -1.
         11    1    3    3    0    0 -0.54711971730E+02  0.32943833851E+02 -0.21487687403E+02  0.67382614592E+02  0.00000000000E+00 0.  1.
        -11    1    4    4    0    0  0.90565535361E+02  0.63155936628E+01  0.43177852597E+03  0.44121955805E+03  0.00000000000E+00 0.  1.
         11    1    4    4    0    0  0.13565055210E+02 -0.34987422627E+02  0.62460751190E+02  0.72866150606E+02  0.00000000000E+00 0. -1.
         21    1    1    2  502  501 -0.40685352615E+01  0.23295250821E+02 -0.34839794705E+02  0.42107398223E+02  0.00000000000E+00 0.  1.
         21    1    1    2  503  502 -0.29019823193E+02 -0.31153403819E+01  0.19860762980E+02  0.35303050718E+02  0.00000000000E+00 0. -1.
<scales pt_clust_5="13000.00000" pt_clust_6="13000.00000" pt_clust_7="13000.00000" pt_clust_8="13000.00000" pt_clust_9="23.64787" pt_clust_10="29.49315"></scales>
<clustering>
<clus scale="   23.648">  2  9  1 -1</clus>
<clus scale="   29.493">  2 10  1 -1</clus>
<clus scale="   91.359">  7  8 -1 -1</clus>
<clus scale="   91.675">  5  6 -1 -1</clus>
<clus scale="  136.756">  1  7  2 -1</clus>
<clus scale="  136.756">  1  5  2 -1</clus>
</clustering>
</event>
<event>
10    2  0.1133532E-006  0.3277658E+03  0.7546771E-02  0.1072131E+00
          1   -1    0    0  503    0  0.00000000000E+00  0.00000000000E+00  0.42164570101E+03  0.42164570101E+03  0.00000000000E+00 0. -1.
         -1   -1    0    0    0  501 -0.00000000000E+00 -0.00000000000E+00 -0.50650047319E+03  0.50650047319E+03  0.00000000000E+00 0.  1.
         23    2    1    2    0    0  0.28032608283E+03 -0.15916254967E+03 -0.72839021610E+02  0.34295748577E+03  0.91645425666E+02 0.  0.
         23    2    1    2    0    0 -0.24646490641E+03  0.19506999679E+03  0.32399168454E+02  0.32899937289E+03  0.91616742495E+02 0.  0.
        -13    1    4    4    0    0 -0.15886563307E+03  0.13177189754E+03 -0.22773941632E+02  0.20765542316E+03  0.00000000000E+00 0. -1.
         13    1    4    4    0    0 -0.87599273345E+02  0.63298099252E+02  0.55173110085E+02  0.12134394973E+03  0.00000000000E+00 0.  1.
        -13    1    3    3    0    0  0.54276387095E+02 -0.74092888214E+02 -0.45344708108E+01  0.91957836564E+02  0.00000000000E+00 0. -1.
         13    1    3    3    0    0  0.22604969574E+03 -0.85069661453E+02 -0.68304550799E+02  0.25099964921E+03  0.00000000000E+00 0.  1.
         21    1    1    2  502  501 -0.25598260547E+02 -0.32565261183E+01 -0.14646718250E+03  0.14872293520E+03  0.00000000000E+00 0. -1.
         21    1    1    2  503  502 -0.82629158736E+01 -0.32650921007E+02  0.10205226347E+03  0.10746638033E+03  0.00000000000E+00 0. -1.
<scales pt_clust_5="13000.00000" pt_clust_6="13000.00000" pt_clust_7="13000.00000" pt_clust_8="13000.00000" pt_clust_9="25.80457" pt_clust_10="33.75190"></scales>
<clustering>
<clus scale="   25.805">  2  9  1 -1</clus>
<clus scale="   33.752">  1 10  2 -1</clus>
<clus scale="   91.617">  5  6 -1 -1</clus>
<clus scale="   91.645">  7  8 -1 -1</clus>
<clus scale="  327.758">  1  5  2 -1</clus>
<clus scale="   33.752">  1  5  2 -1</clus>
</clustering>
</event>
<event>
10    2  0.1133532E-006  0.1426696E+03  0.7546771E-02  0.1210256E+00
         -1   -1    0    0    0  501 -0.00000000000E+00  0.00000000000E+00  0.52159454371E+03  0.52159454371E+03  0.00000000000E+00 0.  1.
          1   -1    0    0  503    0  0.00000000000E+00 -0.00000000000E+00 -0.42885096237E+03  0.42885096237E+03  0.00000000000E+00 0. -1.
         23    2    1    2    0    0  0.64582906354E+02  0.75852703718E+02  0.19458951452E+03  0.23694616606E+03  0.91399245037E+02 0.  0.
         23    2    1    2    0    0 -0.94952220302E+02 -0.75528480915E+02  0.25698761263E+03  0.29783989938E+03  0.89137517638E+02 0.  0.
        -11    1    4    4    0    0 -0.23239555158E+02 -0.19661482952E+02  0.61744355070E+01  0.31060819204E+02  0.00000000000E+00 0. -1.
         11    1    4    4    0    0 -0.71712665144E+02 -0.55866997963E+02  0.25081317712E+03  0.26677908018E+03  0.00000000000E+00 0.  1.
        -13    1    3    3    0    0  0.48729830870E+02  0.95757959137E+02  0.13796971611E+03  0.17487088299E+03  0.00000000000E+00 0.  1.
         13    1    3    3    0    0  0.15853075484E+02 -0.19905255419E+02  0.56619798416E+02  0.62075283070E+02  0.00000000000E+00 0. -1.
         21    1    1    2  502  501 -0.27947859028E+02 -0.84332340562E+01  0.17972309470E+02  0.34281280148E+02  0.00000000000E+00 0. -1.
         21    1    1    2  503  502  0.58317172976E+02  0.81090112531E+01 -0.37680585528E+03  0.38137816050E+03  0.00000000000E+00 0. -1.
<scales pt_clust_5="13000.00000" pt_clust_6="13000.00000" pt_clust_7="13000.00000" pt_clust_8="13000.00000" pt_clust_9="29.19250" pt_clust_10="58.74517"></scales>
<clustering>
<clus scale="   29.193">  1  9  2 -1</clus>
<clus scale="   58.745">  2 10  1 -1</clus>
<clus scale="   89.138">  5  6 -1 -1</clus>
<clus scale="   91.399">  7  8 -1 -1</clus>
<clus scale="  141.231">  2  5  1 -1</clus>
<clus scale="   58.745">  2  5  1 -1</clus>
</clustering>
</event>
<event>
10    2  0.1133532E-006  0.9407066E+02  0.7546771E-02  0.1293675E+00
         -2   -1    0    0    0  501 -0.00000000000E+00  0.00000000000E+00  0.58822716742E+02  0.58822716742E+02  0.00000000000E+00 0.  1.
          2   -1    0    0  503    0  0.00000000000E+00 -0.00000000000E+00 -0.68506214713E+03  0.68506214713E+03  0.00000000000E+00 0. -1.
         23    2    1    2    0    0 -0.24316595034E+02 -0.57772801864E+01 -0.20370608814E+03  0.22467477163E+03  0.91421599757E+02 0.  0.
         23    2    1    2    0    0 -0.19758630117E+02 -0.50767940967E+02 -0.30726256006E+03  0.32497337567E+03  0.90717290460E+02 0.  0.
        -11    1    4    4    0    0  0.26697987962E+02 -0.46900054398E+02 -0.11342626960E+03  0.12561017593E+03  0.00000000000E+00 0.  1.
         11    1    4    4    0    0 -0.46456618079E+02 -0.38678865695E+01 -0.19383629046E+03  0.19936319974E+03  0.00000000000E+00 0. -1.
        -13    1    3    3    0    0  0.21293826650E+02  0.29615655236E+02 -0.67175636560E+02  0.76440043405E+02  0.00000000000E+00 0.  1.
         13    1    3    3    0    0 -0.45610421684E+02 -0.35392935422E+02 -0.13653045158E+03  0.14823472822E+03  0.00000000000E+00 0. -1.
         21    1    1    2  502  501  0.37635844399E+02  0.31700361957E+02  0.22491534389E+02  0.54103963358E+02  0.00000000000E+00 0.  1.
         21    1    1    2  503  502  0.64393807515E+01  0.24844859196E+02 -0.13776231658E+03  0.14013275321E+03  0.00000000000E+00 0. -1.
<scales pt_clust_5="13000.00000" pt_clust_6="13000.00000" pt_clust_7="13000.00000" pt_clust_8="13000.00000" pt_clust_9="49.81507" pt_clust_10="25.66579"></scales>
<clustering>
<clus scale="   25.666">  2 10  1 -1</clus>
<clus scale="   49.815">  1  9  2 -1</clus>
<clus scale="   90.717">  5  6 -1 -1</clus>
<clus scale="   91.422">  7  8 -1 -1</clus>
<clus scale="   93.386">  2  5  1 -1</clus>
<clus scale="   25.666">  2  5  1 -1</clus>
</clustering>
</event>
<event>
10    2  0.1133532E-006  0.1385934E+03  0.7546771E-02  0.1232855E+00
          1   -1    0    0  502    0  0.00000000000E+00  0.00000000000E+00  0.59762665473E+03  0.59762665473E+03  0.00000000000E+00 0. -1.
         -1   -1    0    0    0  501 -0.00000000000E+00 -0.00000000000E+00 -0.65678462531E+02  0.65678462531E+02  0.00000000000E+00 0.  1.
         23    2    1    2    0    0 -0.81264292989E+01 -0.30103761428E+02  0.10761636045E+03  0.14621657417E+03  0.93945357635E+02 0.  0.
         23    2    1    2    0    0  0.10198757826E+03 -0.22783620820E+02  0.15232235485E+03  0.20755076672E+03  0.94629073117E+02 0.  0.
        -13    1    4    4    0    0  0.92427057846E+02 -0.53302054145E+02  0.10002149179E+03  0.14624694464E+03  0.00000000000E+00 0.  1.
         13    1    4    4    0    0  0.95605204164E+01  0.30518433326E+02  0.52300863067E+02  0.61303822073E+02  0.00000000000E+00 0. -1.
        -13    1    3    3    0    0  0.22169003848E+02  0.26587134121E+02  0.40668527766E+02  0.53406643622E+02  0.00000000000E+00 0. -1.
         13    1    3    3    0    0 -0.30295433147E+02 -0.56690895549E+02  0.66947832685E+02  0.92809930551E+02  0.00000000000E+00 0.  1.
         21    1    1    2  502  503  0.57583408842E+01  0.47216687461E+02  0.77630292940E+02  0.91044145592E+02  0.00000000000E+00 0.  1.
         21    1    1    2  503  501 -0.99619489847E+02  0.56706947871E+01  0.19437918395E+03  0.21849363078E+03  0.00000000000E+00 0. -1.
<scales pt_clust_5="13000.00000" pt_clust_6="13000.00000" pt_clust_7="13000.00000" pt_clust_8="13000.00000" pt_clust_9="47.56652" pt_clust_10="101.25945"></scales>
<clustering>
<clus scale="   47.567">  1  9  2 -1</clus>
<clus scale="   93.945">  7  8 -1 -1</clus>
<clus scale="   94.629">  5  6 -1 -1</clus>
<clus scale="   95.970">  2  7  1 -1</clus>
<clus scale="  101.259">  1 10  2 -1</clus>
<clus scale="   47.567">  1  5  2 -1</clus>
</clustering>
</event>
<event>
10    2  0.1133532E-006  0.9540293E+02  0.7546771E-02  0.1291440E+00
         -2   -1    0    0    0  501 -0.00000000000E+00  0.00000000000E+00  0.26603050452E+03  0.26603050452E+03  0.00000000000E+00 0.  1.
          2   -1    0    0  503    0  0.00000000000E+00 -0.00000000000E+00 -0.10680498996E+03  0.10680498996E+03  0.00000000000E+00 0. -1.
         23    2    1    2    0    0 -0.34303058170E+01 -0.23213348420E+01  0.13686604019E+02  0.92780669029E+02  0.91672099476E+02 0.  0.
         23    2    1    2    0    0  0.17756973878E+02  0.46661873628E+02  0.25928364220E+01  0.10253708888E+03  0.89523690849E+02 0.  0.
        -11    1    3    3    0    0  0.40483909056E+02  0.84025355449E+01 -0.88293348079E+01  0.42278914948E+02  0.00000000000E+00 0. -1.
         11    1    3    3    0    0 -0.43914214873E+02 -0.10723870387E+02  0.22515938827E+02  0.50501754081E+02  0.00000000000E+00 0.  1.
        -13    1    4    4    0    0 -0.17765520148E+02  0.24617089677E+02  0.37376576511E+02  0.48152084918E+02  0.00000000000E+00 0.  1.
         13    1    4    4    0    0  0.35522494026E+02  0.22044783952E+02 -0.34783740089E+02  0.54385003961E+02  0.00000000000E+00 0. -1.
         21    1    1    2  502  501 -0.17315625285E+02 -0.24227960926E+02  0.15226553260E+03  0.15515030579E+03  0.00000000000E+00 0.  1.
         21    1    1    2  503  502  0.29889572242E+01 -0.20112577860E+02 -0.93194584796E+01  0.22367430783E+02  0.00000000000E+00 0. -1.
<scales pt_clust_5="13000.00000" pt_clust_6="13000.00000" pt_clust_7="13000.00000" pt_clust_8="13000.00000" pt_clust_9="30.01236" pt_clust_10="20.33346"></scales>
<clustering>
<clus scale="   20.333">  2 10  1 -1</clus>
<clus scale="   30.012">  1  9  2 -1</clus>
<clus scale="   89.524">  7  8 -1 -1</clus>
<clus scale="   91.672">  5  6 -1 -1</clus>
<clus scale="   93.340">  2  7  1 -1</clus>
<clus scale="   20.333">  2  5  1 -1</clus>
</clustering>
</event>
<event>
10    2  0.1133532E-006  0.9509116E+02  0.7546771E-02  0.1293041E+00
          2   -1    0    0  503    0  0.00000000000E+00  0.00000000000E+00  0.17673602955E+03  0.17673602955E+03  0.00000000000E+00 0. -1.
         -2   -1    0    0    0  501 -0.00000000000E+00 -0.00000000000E+00 -0.39727295135E+03  0.39727295135E+03  0.00000000000E+00 0.  1.
         23    2    1    2    0    0  0.16124932002E+02  0.14486745242E+02 -0.27009436913E+03  0.28539936643E+03  0.89621152086E+02 0.  0.
         23    2    1    2    0    0  0.36742957158E+02  0.31983230909E+01  0.10682889486E+03  0.14655117230E+03  0.93298226957E+02 0.  0.
        -11    1    3    3    0    0 -0.29157497024E+02 -0.17615369548E+02 -0.71611773574E+02  0.79301368156E+02  0.00000000000E+00 0. -1.
         11    1    3    3    0    0  0.45282429025E+02  0.32102114790E+02 -0.19848259556E+03  0.20609799828E+03  0.00000000000E+00 0.  1.
        -13    1    4    4    0    0 -0.22416658600E+02  0.10748655810E+02  0.76813079605E+00  0.24872277930E+02  0.00000000000E+00 0.  1.
         13    1    4    4    0    0  0.59159615758E+02 -0.75503327191E+01  0.10606076406E+03  0.12167889437E+03  0.00000000000E+00 0. -1.
         21    1    1    2  502  501 -0.30411395638E+02 -0.85922693272E+00 -0.92295126137E+02  0.97180150053E+02  0.00000000000E+00 0.  1.
         21    1    1    2  503  502 -0.22456493522E+02 -0.16825841400E+02  0.35023678612E+02  0.44878292120E+02  0.00000000000E+00 0.  1.
<scales pt_clust_5="13000.00000" pt_clust_6="13000.00000" pt_clust_7="13000.00000" pt_clust_8="13000.00000" pt_clust_9="30.83421" pt_clust_10="28.06070"></scales>
<clustering>
<clus scale="   28.061">  1 10  2 -1</clus>
<clus scale="   30.834">  2  9  1 -1</clus>
<clus scale="   89.621">  5  6 -1 -1</clus>
<clus scale="   91.486">  2  5  1 -1</clus>
<clus scale="   93.298">  7  8 -1 -1</clus>
<clus scale="   28.061">  1  5  2 -1</clus>
</clustering>
</event>
<event>
10    2  0.1133532E-006  0.1511041E+03  0.7546771E-02  0.1199442E+00
         -3   -1    0    0    0  501 -0.00000000000E+00  0.00000000000E+00  0.70943825927E+03  0.70943825927E+03  0.00000000000E+00 0.  1.
          3   -1    0    0  503    0  0.00000000000E+00 -0.00000000000E+00 -0.10904312818E+03  0.10904312818E+03  0.00000000000E+00 0. -1.
         23    2    1    2    0    0  0.11436089417E+03 -0.90221377482E+02  0.22309396259E+03  0.28141398661E+03  0.90579272708E+02 0.  0.
         23    2    1    2    0    0 -0.11081558698E+03 -0.11630583826E+02  0.43473498688E+02  0.14898028612E+03  0.88824634914E+02 0.  0.
        -11    1    4    4    0    0 -0.61225099341E+02 -0.31773649538E+02 -0.14061662556E+02  0.70397499587E+02  0.00000000000E+00 0.  1.
         11    1    4    4    0    0 -0.49590487639E+02  0.20143065712E+02  0.57535161244E+02  0.78582786537E+02  0.00000000000E+00 0. -1.
        -11    1    3    3    0    0  0.38558215996E+02 -0.40222015650E+02  0.16366246752E+03  0.17288710142E+03  0.00000000000E+00 0.  1.
         11    1    3    3    0    0  0.75802678172E+02 -0.49999361831E+02  0.59431495073E+02  0.10852688519E+03  0.00000000000E+00 0. -1.
         21    1    1    2  502  501  0.15373134421E+02  0.80741674976E+02  0.34716306002E+03  0.35676006165E+03  0.00000000000E+00 0.  1.
         21    1    1    2  503  502 -0.18918441610E+02  0.21110286332E+02 -0.13335390209E+02  0.31327053070E+02  0.00000000000E+00 0.  1.
<scales pt_clust_5="13000.00000" pt_clust_6="13000.00000" pt_clust_7="13000.00000" pt_clust_8="13000.00000" pt_clust_9="83.15329" pt_clust_10="28.34699"></scales>
<clustering>
<clus scale="   28.347">  2 10  1 -1</clus>
<clus scale="   83.153">  1  9  2 -1</clus>
<clus scale="   88.825">  5  6 -1 -1</clus>
<clus scale="   90.579">  7  8 -1 -1</clus>
<clus scale="  150.059">  2  5  1 -1</clus>
<clus scale="   28.347">  2  5  1 -1</clus>
</clustering>
</event>
<event>
10    2  0.1133532E-006  0.1113015E+03  0.7546771E-02  0.1265397E+00
          2   -1    0    0  503    0  0.00000000000E+00  0.00000000000E+00  0.13268949401E+03  0.13268949401E+03  0.00000000000E+00 0. -1.
         -2   -1    0    0    0  501 -0.00000000000E+00 -0.00000000000E+00 -0.19126200080E+03  0.19126200080E+03  0.00000000000E+00 0.  1.
         23    2    1    2    0    0  0.80848403692E+00 -0.11192983332E+01 -0.51524045945E+02  0.12106393254E+03  0.10954379022E+03 0.  0.
         23    2    1    2    0    0  0.31332051868E+02 -0.26955883945E+02 -0.12497587161E+01  0.10323261599E+03  0.94589079468E+02 0.  0.
        -11    1    3    3    0    0  0.16746283721E+01  0.49793640416E+02 -0.49306694679E+02  0.70095371789E+02  0.00000000000E+00 0.  1.
         11    1    3    3    0    0 -0.86614433515E+00 -0.50912938749E+02 -0.22173512654E+01  0.50968560748E+02  0.00000000000E+00 0. -1.
        -13    1    4    4    0    0  0.86991510802E+01 -0.50507742589E+02  0.28851181645E+02  0.58814096722E+02  0.00000000000E+00 0. -1.
         13    1    4    4    0    0  0.22632900787E+02  0.23551858645E+02 -0.30100940361E+02  0.44418519272E+02  0.00000000000E+00 0.  1.
         21    1    1    2  502  501 -0.23378544051E+02 -0.73139309362E+01 -0.41780107484E+02  0.48431676505E+02  0.00000000000E+00 0.  1.
         21    1    1    2  503  502 -0.87619918538E+01  0.35389113214E+02  0.35981405349E+02  0.51223269773E+02  0.00000000000E+00 0.  1.
<scales pt_clust_5="13000.00000" pt_clust_6="13000.00000" pt_clust_7="13000.00000" pt_clust_8="13000.00000" pt_clust_9="24.49592" pt_clust_10="36.40279"></scales>
<clustering>
<clus scale="   24.496">  2  9  1 -1</clus>
<clus scale="   36.403">  1 10  2 -1</clus>
<clus scale="   94.589">  7  8 -1 -1</clus>
<clus scale="   96.619">  1  7  2 -1</clus>
<clus scale="  109.544">  5  6 -1 -1</clus>
<clus scale="   36.403">  1  5  2 -1</clus>
</clustering>
</event>
<event>
10    2  0.1133532E-006  0.1105757E+03  0.7546771E-02  0.1262767E+00
          1   -1    0    0  503    0  0.00000000000E+00  0.00000000000E+00  0.49969420919E+03  0.49969420919E+03  0.00000000000E+00 0. -1.
         -1   -1    0    0    0  501 -0.00000000000E+00 -0.00000000000E+00 -0.39117391047E+02  0.39117391047E+02  0.00000000000E+00 0.  1.
         23    2    1    2    0    0 -0.16858660134E+01  0.60576743951E+02  0.13512213606E+03  0.17382936485E+03  0.91028964516E+02 0.  0.
         23    2    1    2    0    0 -0.16466512583E+02 -0.32517204578E+02  0.24377493768E+03  0.26553471126E+03  0.98762077803E+02 0.  0.
        -11    1    3    3    0    0  0.22486867134E+02 -0.84040731687E+01  0.76358700634E+02  0.80043355763E+02  0.00000000000E+00 0.  1.
         11    1    3    3    0    0 -0.24172733148E+02  0.68980817120E+02  0.58763435423E+02  0.93786009091E+02  0.00000000000E+00 0. -1.
        -11    1    4    4    0    0 -0.51960833891E+02  0.82608730716E+00  0.16433180906E+03  0.17235299286E+03  0.00000000000E+00 0. -1.
         11    1    4    4    0    0  0.35494321307E+02 -0.33343291885E+02  0.79443128624E+02  0.93181718402E+02  0.00000000000E+00 0.  1.
         21    1    1    2  502  501  0.29715165819E+02 -0.52711464179E+01  0.34863701927E+02  0.46111319394E+02  0.00000000000E+00 0. -1.
         21    1    1    2  503  502 -0.11562787222E+02 -0.22788392955E+02  0.46816042474E+02  0.53336204727E+02  0.00000000000E+00 0.  1.
<scales pt_clust_5="13000.00000" pt_clust_6="13000.00000" pt_clust_7="13000.00000" pt_clust_8="13000.00000" pt_clust_9="29.59434" pt_clust_10="25.55404"></scales>
<clustering>
<clus scale="   25.554">  1 10  2 -1</clus>
<clus scale="   29.594">  2  9  1 -1</clus>
<clus scale="   91.029">  5  6 -1 -1</clus>
<clus scale="   98.762">  7  8 -1 -1</clus>
<clus scale="  103.727">  2  5  1 -1</clus>
<clus scale="   25.554">  1  5  2 -1</clus>
</clustering>
</event>
<event>
10    2  0.1133532E-006  0.1667043E+03  0.7546771E-02  0.1181591E+00
          1   -1    0    0  503    0  0.00000000000E+00  0.00000000000E+00  0.78394597094E+03  0.78394597094E+03  0.00000000000E+00 0. -1.
         -1   -1    0    0    0  501 -0.00000000000E+00 -0.00000000000E+00 -0.13654372312E+03  0.13654372312E+03  0.00000000000E+00 0.  1.
         23    2    1    2    0    0 -0.14639325826E+03  0.74912968238E+02  0.11738646929E+02  0.18879231545E+03  0.91988062643E+02 0.  0.
         23    2    1    2    0    0  0.74417919147E+02 -0.11511739321E+03  0.48384680450E+03  0.51091556578E+03  0.90205012166E+02 0.  0.
        -11    1    3    3    0    0 -0.10366631921E+03  0.88572369148E+02 -0.14011374051E+02  0.13706964988E+03  0.00000000000E+00 0.  1.
         11    1    3    3    0    0 -0.42726939050E+02 -0.13659400911E+02  0.25750020979E+02  0.51722665575E+02  0.00000000000E+00 0. -1.
        -11    1    4    4    0    0 -0.82633611496E+01 -0.25734704696E+02  0.27322083593E+02  0.38432465639E+02  0.00000000000E+00 0.  1.
         11    1    4    4    0    0  0.82681280296E+02 -0.89382688516E+02  0.45652472091E+03  0.47248310014E+03  0.00000000000E+00 0. -1.
         21    1    1    2  502  501  0.50228503916E+02  0.22218362940E+02 -0.10595509479E+02  0.55935883640E+02  0.00000000000E+00 0.  1.
         21    1    1    2  503  502  0.21746835197E+02  0.17986062034E+02  0.16241230587E+03  0.16484592918E+03  0.00000000000E+00 0. -1.
<scales pt_clust_5="13000.00000" pt_clust_6="13000.00000" pt_clust_7="13000.00000" pt_clust_8="13000.00000" pt_clust_9="55.91664" pt_clust_10="28.22097"></scales>
<clustering>
<clus scale="   28.221">  1 10  2 -1</clus>
<clus scale="   55.917">  2  9  1 -1</clus>
<clus scale="   90.205">  7  8 -1 -1</clus>
<clus scale="   91.988">  5  6 -1 -1</clus>
<clus scale="  165.727">  1  7  2 -1</clus>
<clus scale="   28.221">  1  5  2 -1</clus>
</clustering>
</event>
<event>
10    2  0.1133532E-006  0.2630238E+03  0.7546771E-02  0.1105794E+00
         -1   -1    0    0    0  501 -0.00000000000E+00  0.00000000000E+00  0.19058968368E+04  0.19058968368E+04  0.00000000000E+00 0.  1.
          1   -1    0    0  503    0  0.00000000000E+00 -0.00000000000E+00 -0.30142293971E+03  0.30142293971E+03  0.00000000000E+00 0. -1.
         23    2    1    2    0    0 -0.20150947687E+02  0.25122175712E+03  0.15807347074E+04  0.16034902517E+04  0.94553371833E+02 0.  0.
         23    2    1    2    0    0  0.51929204213E+02 -0.25997127661E+03 -0.10478115623E+03  0.29767064618E+03  0.85714736090E+02 0.  0.
        -11    1    3    3    0    0  0.20471839796E+02  0.21101571042E+03  0.12370381526E+04  0.12550737497E+04  0.00000000000E+00 0.  1.
         11    1    3    3    0    0 -0.40622787483E+02  0.40206046703E+02  0.34369655485E+03  0.34841650201E+03  0.00000000000E+00 0. -1.
        -13    1    4    4    0    0  0.72318001019E+02 -0.17770409883E+03 -0.55920064764E+02  0.19983916947E+03  0.00000000000E+00 0.  1.
         13    1    4    4    0    0 -0.20388796806E+02 -0.82267177787E+02 -0.48861091470E+02  0.97831476714E+02  0.00000000000E+00 0. -1.
         21    1    1    2  502  501 -0.34231402351E+02 -0.13480211819E+02  0.21433923293E+03  0.21747370368E+03  0.00000000000E+00 0.  1.
         21    1    1    2  503  502  0.24531458258E+01  0.22229731312E+02 -0.85818887043E+02  0.88685174928E+02  0.00000000000E+00 0. -1.
<scales pt_clust_5="13000.00000" pt_clust_6="13000.00000" pt_clust_7="13000.00000" pt_clust_8="13000.00000" pt_clust_9="36.71399" pt_clust_10="22.36468"></scales>
<clustering>
<clus scale="   22.365">  2 10  1 -1</clus>
<clus scale="   36.714">  1  9  2 -1</clus>
<clus scale="   85.715">  7  8 -1 -1</clus>
<clus scale="   94.553">  5  6 -1 -1</clus>
<clus scale="  259.977">  2  7  1 -1</clus>
<clus scale="   22.365">  2  5  1 -1</clus>
</clustering>
</event>
<event>
10    2  0.1133532E-006  0.1570165E+03  0.7546771E-02  0.1213943E+00
          1   -1    0    0  503    0  0.00000000000E+00  0.00000000000E+00  0.14781477046E+03  0.14781477046E+03  0.00000000000E+00 0. -1.
         -1   -1    0    0    0  501 -0.00000000000E+00 -0.00000000000E+00 -0.82821395707E+03  0.82821395707E+03  0.00000000000E+00 0.  1.
         23    2    1    2    0    0 -0.15641868023E+03  0.95714912822E+00 -0.36512674498E+03  0.40748582237E+03  0.90881438558E+02 0.  0.
         23    2    1    2    0    0 -0.14362281262E+01 -0.31248228143E+02  0.27068070263E+02  0.10067337624E+03  0.91781990300E+02 0.  0.
        -11    1    4    4    0    0  0.26430072899E+02  0.18421004381E+02 -0.87636227643E+01  0.33386872267E+02  0.00000000000E+00 0. -1.
         11    1    4    4    0    0 -0.27866301025E+02 -0.49669232524E+02  0.35831693027E+02  0.67286503978E+02  0.00000000000E+00 0.  1.
        -13    1    3    3    0    0 -0.15660498351E+03 -0.21409051610E+02 -0.32892682826E+03  0.36493331815E+03  0.00000000000E+00 0. -1.
         13    1    3    3    0    0  0.18630328375E+00  0.22366200738E+02 -0.36199916727E+02  0.42552504220E+02  0.00000000000E+00 0.  1.
         21    1    1    2  502  501  0.43345199307E+02 -0.39560858589E+02 -0.32773010093E+03  0.33294276819E+03  0.00000000000E+00 0.  1.
         21    1    1    2  503  502  0.11450970904E+03  0.69851937604E+02 -0.14610410961E+02  0.13492676073E+03  0.00000000000E+00 0.  1.
<scales pt_clust_5="13000.00000" pt_clust_6="13000.00000" pt_clust_7="13000.00000" pt_clust_8="13000.00000" pt_clust_9="58.68448" pt_clust_10="128.04202"></scales>
<clustering>
<clus scale="   58.684">  2  9  1 -1</clus>
<clus scale="   90.881">  7  8 -1 -1</clus>
<clus scale="   91.782">  5  6 -1 -1</clus>
<clus scale="   97.953">  1  5  2 -1</clus>
<clus scale="  128.042">  1 10  2 -1</clus>
<clus scale="   97.953">  1  5  2 -1</clus>
</clustering>
</event>
<event>
10    2  0.1133532E-006  0.1373395E+03  0.7546771E-02  0.1217059E+00
         -2   -1    0    0    0  501 -0.00000000000E+00  0.00000000000E+00  0.22271960547E+03  0.22271960547E+03  0.00000000000E+00 0.  1.
          2   -1    0    0  503    0  0.00000000000E+00 -0.00000000000E+00 -0.27536592586E+03  0.27536592586E+03  0.00000000000E+00 0. -1.
         23    2    1    2    0    0  0.75196237450E+02  0.28369660876E+02  0.13618665305E+03  0.18178724124E+03  0.89668750544E+02 0.  0.
         23    2    1    2    0    0 -0.13662916242E+03  0.48227295096E+01 -0.11890532814E+03  0.20195723846E+03  0.89204609543E+02 0.  0.
        -11    1    4    4    0    0 -0.36846744700E+02  0.33634709449E+02 -0.89132245439E+01  0.50679599905E+02  0.00000000000E+00 0.  1.
         11    1    4    4    0    0 -0.99782417722E+02 -0.28811979940E+02 -0.10999210360E+03  0.15127763856E+03  0.00000000000E+00 0. -1.
        -13    1    3    3    0    0  0.82921041602E+02 -0.47512182297E+01  0.11449725770E+03  0.14144997432E+03  0.00000000000E+00 0.  1.
         13    1    3    3    0    0 -0.77248041518E+01  0.33120879105E+02  0.21689395355E+02  0.40337266922E+02  0.00000000000E+00 0. -1.
         21    1    1    2  502  501  0.26848625576E+02 -0.24028914671E+02 -0.26952642482E+00  0.36032070161E+02  0.00000000000E+00 0.  1.
         21    1    1    2  503  502  0.34584299396E+02 -0.91634757143E+01 -0.69658118881E+02  0.78308981464E+02  0.00000000000E+00 0.  1.
<scales pt_clust_5="13000.00000" pt_clust_6="13000.00000" pt_clust_7="13000.00000" pt_clust_8="13000.00000" pt_clust_9="38.93210" pt_clust_10="35.77769"></scales>
<clustering>
<clus scale="   35.778">  2 10  1 -1</clus>
<clus scale="   38.932">  1  9  2 -1</clus>
<clus scale="   89.205">  5  6 -1 -1</clus>
<clus scale="   89.669">  7  8 -1 -1</clus>
<clus scale="  137.037">  2  5  1 -1</clus>
<clus scale="   35.778">  2  5  1 -1</clus>
</clustering>
</event>
<event>
10    2  0.1133532E-006  0.2407320E+03  0.7546771E-02  0.1120405E+00
         -1   -1    0    0    0  501 -0.00000000000E+00  0.00000000000E+00  0.13538604864E+03  0.13538604864E+03  0.00000000000E+00 0.  1.
          1   -1    0    0  502    0  0.00000000000E+00 -0.00000000000E+00 -0.92454108503E+03  0.92454108503E+03  0.00000000000E+00 0. -1.
         23    2    1    2    0    0  0.18328381151E+03 -0.15125736024E+03 -0.34559146039E+03  0.42578729869E+03  0.73414042549E+02 0.  0.
         23    2    1    2    0    0 -0.16211928367E+03  0.13724545751E+03 -0.48335106576E+03  0.53594565952E+03  0.92144014721E+02 0.  0.
        -11    1    4    4    0    0 -0.12042942924E+03  0.90691043981E+02 -0.23003470210E+03  0.27503468337E+03  0.00000000000E+00 0.  1.
         11    1    4    4    0    0 -0.41689854427E+02  0.46554413525E+02 -0.25331636365E+03  0.26091097615E+03  0.00000000000E+00 0. -1.
        -13    1    3    3    0    0  0.30615535263E+02 -0.68458915880E+02 -0.10820976061E+03  0.13165593968E+03  0.00000000000E+00 0.  1.
         13    1    3    3    0    0  0.15266827625E+03 -0.82798444364E+02 -0.23738169978E+03  0.29413135901E+03  0.00000000000E+00 0. -1.
         21    1    1    2  502  503 -0.23396277068E+02 -0.99541647154E+01  0.61015309090E+02  0.66100976688E+02  0.00000000000E+00 0.  1.
         21    1    1    2  503  501  0.22317492270E+01  0.23966067454E+02 -0.21227819337E+02  0.32093198775E+02  0.00000000000E+00 0. -1.
<scales pt_clust_5="13000.00000" pt_clust_6="13000.00000" pt_clust_7="13000.00000" pt_clust_8="13000.00000" pt_clust_9="22.37467" pt_clust_10="24.06975"></scales>
<clustering>
<clus scale="   24.070">  1 10  2 -1</clus>
<clus scale="   22.375">  1  9  2 -1</clus>
<clus scale="   73.414">  7  8 -1 -1</clus>
<clus scale="   92.144">  5  6 -1 -1</clus>
<clus scale="  234.203">  1  7  2 -1</clus>
<clus scale="  240.732">  2  5  1 -1</clus>
</clustering>
</event>
<event>
10    2  0.1133532E-006  0.9555221E+02  0.7546771E-02  0.1290393E+00
          1   -1    0    0  503    0  0.00000000000E+00  0.00000000000E+00  0.56773007429E+03  0.56773007429E+03  0.00000000000E+00 0. -1.
         -1   -1    0    0    0  501 -0.00000000000E+00 -0.00000000000E+00 -0.75077929887E+02  0.75077929887E+02  0.00000000000E+00 0.  1.
         23    2    1    2    0    0  0.36927431865E+02 -0.17621824324E+02  0.55655614994E+02  0.11384504938E+03  0.90493004549E+02 0.  0.
         23    2    1    2    0    0 -0.34067770601E+02  0.66593663222E+01  0.19691619183E+03  0.21982839405E+03  0.91343177479E+02 0.  0.
        -11    1    3    3    0    0  0.63525084395E+02 -0.28306495153E+02  0.31444171139E+02  0.76324504020E+02  0.00000000000E+00 0.  1.
         11    1    3    3    0    0 -0.26597652531E+02  0.10684670829E+02  0.24211443855E+02  0.37520545364E+02  0.00000000000E+00 0. -1.
        -11    1    4    4    0    0  0.52515638152E+01 -0.32480482926E+02  0.32268429651E+02  0.46084837482E+02  0.00000000000E+00 0.  1.
         11    1    4    4    0    0 -0.39319334417E+02  0.39139849248E+02  0.16464776218E+03  0.17374355657E+03  0.00000000000E+00 0. -1.
         21    1    1    2  502  501 -0.19458075617E+02  0.38801462605E+02 -0.19466209114E+02  0.47572087449E+02  0.00000000000E+00 0.  1.
         21    1    1    2  503  502  0.16598414354E+02 -0.27839004603E+02  0.25954654669E+03  0.26156247330E+03  0.00000000000E+00 0.  1.
<scales pt_clust_5="13000.00000" pt_clust_6="13000.00000" pt_clust_7="13000.00000" pt_clust_8="13000.00000" pt_clust_9="41.92830" pt_clust_10="32.41169"></scales>
<clustering>
<clus scale="   32.412">  1 10  2 -1</clus>
<clus scale="   41.928">  2  9  1 -1</clus>
<clus scale="   90.493">  5  6 -1 -1</clus>
<clus scale="   91.343">  7  8 -1 -1</clus>
<clus scale="   94.740">  2  5  1 -1</clus>
<clus scale="   32.412">  1  5  2 -1</clus>
</clustering>
</event>
<event>
10    2  0.1133532E-006  0.1328388E+03  0.7546771E-02  0.1224354E+00
          1   -1    0    0  503    0  0.00000000000E+00  0.00000000000E+00  0.10641409007E+04  0.10641409007E+04  0.00000000000E+00 0. -1.
         -1   -1    0    0    0  501 -0.00000000000E+00 -0.00000000000E+00 -0.70332515452E+02  0.70332515452E+02  0.00000000000E+00 0.  1.
         23    2    1    2    0    0 -0.80599497501E+02  0.19689720971E+02  0.37705902684E+03  0.39696611433E+03  0.92328880052E+02 0.  0.
         23    2    1    2    0    0  0.92985076121E+02 -0.36036374507E+02  0.50497628842E+03  0.52366725296E+03  0.96340517349E+02 0.  0.
        -13    1    3    3    0    0 -0.45512587852E+02 -0.19652989927E+02  0.72189694335E+02  0.87572756233E+02  0.00000000000E+00 0. -1.
         13    1    3    3    0    0 -0.35086909649E+02  0.39342710897E+02  0.30486933251E+03  0.30939335810E+03  0.00000000000E+00 0.  1.
        -13    1    4    4    0    0  0.10914802068E+03 -0.12610236509E+02  0.41487177488E+03  0.42917467082E+03  0.00000000000E+00 0. -1.
         13    1    4    4    0    0 -0.16162944555E+02 -0.23426137998E+02  0.90104513546E+02  0.94492582140E+02  0.00000000000E+00 0.  1.
         21    1    1    2  502  501 -0.25155742582E+02 -0.15244878000E+02 -0.44804723833E+02  0.53597397025E+02  0.00000000000E+00 0.  1.
         21    1    1    2  503  502  0.12770163962E+02  0.31591531536E+02  0.15657779377E+03  0.16024265180E+03  0.00000000000E+00 0.  1.
<scales pt_clust_5="13000.00000" pt_clust_6="13000.00000" pt_clust_7="13000.00000" pt_clust_8="13000.00000" pt_clust_9="29.41458" pt_clust_10="32.06818"></scales>
<clustering>
<clus scale="   29.415">  2  9  1 -1</clus>
<clus scale="   32.068">  1 10  2 -1</clus>
<clus scale="   92.329">  5  6 -1 -1</clus>
<clus scale="   96.341">  7  8 -1 -1</clus>
<clus scale="  129.959">  2  5  1 -1</clus>
<clus scale="   32.068">  1  5  2 -1</clus>
</clustering>
</event>
<event>
10    2  0.1133532E-006  0.1098121E+03  0.7546771E-02  0.1260990E+00
         -2   -1    0    0    0  501 -0.00000000000E+00  0.00000000000E+00  0.10339123623E+03  0.10339123623E+03  0.00000000000E+00 0.  1.
          2   -1    0    0  503    0  0.00000000000E+00 -0.00000000000E+00 -0.33016236635E+03  0.33016236635E+03  0.00000000000E+00 0. -1.
         23    2    1    2    0    0 -0.14199544031E+02 -0.34462667751E+02  0.31090391873E+02  0.10400447376E+03  0.91983778870E+02 0.  0.
         23    2    1    2    0    0  0.76951817219E+02  0.48414812968E+02 -0.16488238410E+03  0.20963516222E+03  0.92168998931E+02 0.  0.
        -11    1    3    3    0    0  0.27460055157E+02 -0.36678484680E+02  0.40596833577E+02  0.61216572626E+02  0.00000000000E+00 0. -1.
         11    1    3    3    0    0 -0.41659599188E+02  0.22158169290E+01 -0.95064417037E+01  0.42787901129E+02  0.00000000000E+00 0.  1.
        -13    1    4    4    0    0  0.54173918502E+02 -0.17973011660E+02 -0.93372742718E+02  0.10943633618E+03  0.00000000000E+00 0. -1.
         13    1    4    4    0    0  0.22777898717E+02  0.66387824628E+02 -0.71509641378E+02  0.10019882603E+03  0.00000000000E+00 0.  1.
         21    1    1    2  502  501 -0.30194650737E+02 -0.36061652149E+01 -0.13242783331E+02  0.33167644942E+02  0.00000000000E+00 0.  1.
         21    1    1    2  503  502 -0.32557622452E+02 -0.10345980002E+02 -0.79736354574E+02  0.86746321666E+02  0.00000000000E+00 0.  1.
<scales pt_clust_5="13000.00000" pt_clust_6="13000.00000" pt_clust_7="13000.00000" pt_clust_8="13000.00000" pt_clust_9="30.40923" pt_clust_10="35.28312"></scales>
<clustering>
<clus scale="   30.409">  1  9  2 -1</clus>
<clus scale="   35.283">  2 10  1 -1</clus>
<clus scale="   91.984">  5  6 -1 -1</clus>
<clus scale="   92.169">  7  8 -1 -1</clus>
<clus scale="  109.657">  1  5  2 -1</clus>
<clus scale="   35.283">  2  5  1 -1</clus>
</clustering>
</event>
<event>
10    2  0.1133532E-006  0.2681620E+03  0.7546771E-02  0.1102620E+00
          2   -1    0    0  502    0  0.00000000000E+00  0.00000000000E+00  0.66155342929E+03  0.66155342929E+03  0.00000000000E+00 0. -1.
         -2   -1    0    0    0  501 -0.00000000000E+00 -0.00000000000E+00 -0.26345469396E+03  0.26345469396E+03  0.00000000000E+00 0.  1.
         23    2    1    2    0    0 -0.14013436312E+03  0.11571123916E+03 -0.59923625925E+02  0.21377913637E+03  0.95309745602E+02 0.  0.
         23    2    1    2    0    0  0.28899597401E+03  0.56602821413E+01  0.40894904516E+03  0.50875212694E+03  0.89658760552E+02 0.  0.
        -11    1    4    4    0    0  0.12139742826E+03 -0.39462125265E+02  0.14926321498E+03  0.19640290798E+03  0.00000000000E+00 0.  1.
         11    1    4    4    0    0  0.16759854575E+03  0.45122407406E+02  0.25968583018E+03  0.31234921896E+03  0.00000000000E+00 0. -1.
        -13    1    3    3    0    0 -0.39065974053E+02 -0.11737616470E+02 -0.10866504572E+01  0.40805670909E+02  0.00000000000E+00 0.  1.
         13    1    3    3    0    0 -0.10106838907E+03  0.12744885563E+03 -0.58836975467E+02  0.17297346546E+03  0.00000000000E+00 0. -1.
         21    1    1    2  502  503 -0.66406258837E+02 -0.29273548389E+02  0.13221240381E+02  0.73766747558E+02  0.00000000000E+00 0.  1.
         21    1    1    2  503  501 -0.82455352051E+02 -0.92097972913E+02  0.35852075723E+02  0.12871011239E+03  0.00000000000E+00 0.  1.
<scales pt_clust_5="13000.00000" pt_clust_6="13000.00000" pt_clust_7="13000.00000" pt_clust_8="13000.00000" pt_clust_9="31.57179" pt_clust_10="196.44004"></scales>
<clustering>
<clus scale="   31.572">  9 10 -1 -1</clus>
<clus scale="   89.659">  5  6 -1 -1</clus>
<clus scale="   95.310">  7  8 -1 -1</clus>
<clus scale="  196.440">  2  9  1 -1</clus>
<clus scale="  266.206">  1  5  2 -1</clus>
<clus scale="  266.206">  1  5  2 -1</clus>
</clustering>
</event>
<event>
10    2  0.1335004E-006  0.2809482E+03  0.7546771E-02  0.1095251E+00
         -2   -1    0    0    0  501 -0.00000000000E+00  0.00000000000E+00  0.75300357722E+03  0.75300357722E+03  0.00000000000E+00 0.  1.
          2   -1    0    0  503    0  0.00000000000E+00 -0.00000000000E+00 -0.40858464864E+03  0.40858464864E+03  0.00000000000E+00 0. -1.
         23    2    1    2    0    0 -0.21431785122E+03 -0.50262509812E+02  0.61544726442E+03  0.66006450817E+03  0.91931270049E+02 0.  0.
         23    2    1    2    0    0  0.24253124094E+03  0.89373686725E+02 -0.24951830765E+03  0.37039779815E+03  0.90144796360E+02 0.  0.
        -13    1    4    4    0    0  0.99325093573E+02 -0.78100421771E+01 -0.10697507335E+03  0.14618528411E+03  0.00000000000E+00 0.  1.
         13    1    4    4    0    0  0.14320614737E+03  0.97183728902E+02 -0.14254323429E+03  0.22421251404E+03  0.00000000000E+00 0. -1.
        -13    1    3    3    0    0 -0.49797577342E+02 -0.48160847708E+02  0.12722997012E+03  0.14486797872E+03  0.00000000000E+00 0. -1.
         13    1    3    3    0    0 -0.16452027388E+03 -0.21016621035E+01  0.48821729430E+03  0.51519652945E+03  0.00000000000E+00 0.  1.
         21    1    1    2  502  501 -0.47166570922E+02 -0.24399035881E+02  0.39096181518E+02  0.65943231448E+02  0.00000000000E+00 0.  1.
         21    1    1    2  503  502  0.18953181196E+02 -0.14712141032E+02 -0.60606209717E+02  0.65182688097E+02  0.00000000000E+00 0.  1.
<scales pt_clust_5="13000.00000" pt_clust_6="13000.00000" pt_clust_7="13000.00000" pt_clust_8="13000.00000" pt_clust_9="52.71923" pt_clust_10="23.99313"></scales>
<clustering>
<clus scale="   23.993">  2 10  1 -1</clus>
<clus scale="   52.719">  1  9  2 -1</clus>
<clus scale="   90.145">  5  6 -1 -1</clus>
<clus scale="   91.931">  7  8 -1 -1</clus>
<clus scale="  280.369">  2  5  1 -1</clus>
<clus scale="   23.993">  2  5  1 -1</clus>
</clustering>
</event>
<event>
10    2  0.1133532E-006  0.1004224E+03  0.7546771E-02  0.1279738E+00
          1   -1    0    0  503    0  0.00000000000E+00  0.00000000000E+00  0.43618438782E+03  0.43618438782E+03  0.00000000000E+00 0. -1.
         -1   -1    0    0    0  501 -0.00000000000E+00 -0.00000000000E+00 -0.80455245523E+02  0.80455245523E+02  0.00000000000E+00 0.  1.
         23    2    1    2    0    0 -0.48321765645E+02 -0.30093527648E+02  0.11744193331E+03  0.15948191539E+03  0.91658388584E+02 0.  0.
         23    2    1    2    0    0  0.17492498100E+02  0.26517681745E+02  0.20593182265E+03  0.22791143648E+03  0.92339224389E+02 0.  0.
        -13    1    3    3    0    0 -0.79163634005E+01 -0.22663518503E+02 -0.96813760932E+01  0.25884994175E+02  0.00000000000E+00 0.  1.
         13    1    3    3    0    0 -0.40405402244E+02 -0.74300091456E+01  0.12712330940E+03  0.13359692122E+03  0.00000000000E+00 0. -1.
        -13    1    4    4    0    0  0.14563687548E+02 -0.34038113532E+02  0.77469394287E+02  0.85861523507E+02  0.00000000000E+00 0.  1.
         13    1    4    4    0    0  0.29288105515E+01  0.60555795277E+02  0.12846242837E+03  0.14204991297E+03  0.00000000000E+00 0. -1.
         21    1    1    2  502  501  0.15421504123E+02 -0.47220231903E+02 -0.21047898144E+02  0.53949857337E+02  0.00000000000E+00 0.  1.
         21    1    1    2  503  502  0.15407763422E+02  0.50796077806E+02  0.53403284481E+02  0.75296424135E+02  0.00000000000E+00 0. -1.
<scales pt_clust_5="13000.00000" pt_clust_6="13000.00000" pt_clust_7="13000.00000" pt_clust_8="13000.00000" pt_clust_9="49.67467" pt_clust_10="43.31870"></scales>
<clustering>
<clus scale="   49.675">  2  9  1 -1</clus>
<clus scale="   43.319">  2 10  1 -1</clus>
<clus scale="   91.658">  5  6 -1 -1</clus>
<clus scale="   92.339">  7  8 -1 -1</clus>
<clus scale="   99.797">  2  5  1 -1</clus>
<clus scale="  100.422">  1  5  2 -1</clus>
</clustering>
</event>
<event>
10    2  0.1133532E-006  0.2982771E+03  0.7546771E-02  0.1086163E+00
         -1   -1    0    0    0  501 -0.00000000000E+00  0.00000000000E+00  0.28688308762E+03  0.28688308762E+03  0.00000000000E+00 0.  1.
          1   -1    0    0  503    0  0.00000000000E+00 -0.00000000000E+00 -0.50547820239E+03  0.50547820239E+03  0.00000000000E+00 0. -1.
         23    2    1    2    0    0  0.53179258848E+02  0.30355268558E+03  0.20094699927E+02  0.32154462280E+03  0.89525867729E+02 0.  0.
         23    2    1    2    0    0 -0.82225655307E+02 -0.24865701184E+03 -0.13692849125E+03  0.30924251191E+03  0.91050269271E+02 0.  0.
        -11    1    4    4    0    0 -0.58952181225E+01 -0.27450478925E+02 -0.54206000000E+02  0.61045661811E+02  0.00000000000E+00 0.  1.
         11    1    4    4    0    0 -0.76330437185E+02 -0.22120653291E+03 -0.82722491246E+02  0.24819685010E+03  0.00000000000E+00 0. -1.
        -13    1    3    3    0    0  0.35276376344E+02  0.43688817015E+02 -0.16452377395E+02  0.58513384640E+02  0.00000000000E+00 0. -1.
         13    1    3    3    0    0  0.17902882504E+02  0.25986386857E+03  0.36547077322E+02  0.26303123816E+03  0.00000000000E+00 0.  1.
         21    1    1    2  502  501  0.30736922190E+02 -0.28463833667E+02  0.12947491825E+02  0.43847300456E+02  0.00000000000E+00 0. -1.
         21    1    1    2  503  502 -0.16905257308E+01 -0.26431840080E+02 -0.11470881527E+03  0.11772685483E+03  0.00000000000E+00 0. -1.
<scales pt_clust_5="13000.00000" pt_clust_6="13000.00000" pt_clust_7="13000.00000" pt_clust_8="13000.00000" pt_clust_9="42.56349" pt_clust_10="26.48585"></scales>
<clustering>
<clus scale="   26.486">  2 10  1 -1</clus>
<clus scale="   42.563">  1  9  2 -1</clus>
<clus scale="   89.526">  7  8 -1 -1</clus>
<clus scale="   91.050">  5  6 -1 -1</clus>
<clus scale="  297.815">  1  7  2 -1</clus>
<clus scale="   26.486">  2  5  1 -1</clus>
</clustering>
</event>
<event>
10    2  0.1133532E-006  0.1548134E+03  0.7546771E-02  0.1195197E+00
          4   -1    0    0  503    0  0.00000000000E+00  0.00000000000E+00  0.41186388684E+03  0.41186388684E+03  0.00000000000E+00 0. -1.
         -4   -1    0    0    0  501 -0.00000000000E+00 -0.00000000000E+00 -0.22052014033E+03  0.22052014033E+03  0.00000000000E+00 0.  1.
         23    2    1    2    0    0 -0.10779204049E+03 -0.29424963091E+02 -0.12797257827E+03  0.19487327741E+03  0.95465496459E+02 0.  0.
         23    2    1    2    0    0  0.11104377359E+03  0.18246363217E+02  0.12917250636E+03  0.19474573895E+03  0.92610566442E+02 0.  0.
        -11    1    3    3    0    0 -0.34322395304E+02  0.14990765918E+02 -0.96365683693E+02  0.10338807898E+03  0.00000000000E+00 0. -1.
         11    1    3    3    0    0 -0.73469645182E+02 -0.44415729009E+02 -0.31606894582E+02  0.91485198430E+02  0.00000000000E+00 0.  1.
        -13    1    4    4    0    0  0.83924216678E+02  0.57678859100E+01  0.13971572679E+03  0.16308594963E+03  0.00000000000E+00 0. -1.
         13    1    4    4    0    0  0.27119556916E+02  0.12478477307E+02 -0.10543220430E+02  0.31659789328E+02  0.00000000000E+00 0.  1.
         21    1    1    2  502  501 -0.12144940802E+02 -0.16844754718E+02 -0.21029545652E+02  0.29554815833E+02  0.00000000000E+00 0. -1.
         21    1    1    2  503  502  0.88932076931E+01  0.28023354592E+02  0.21117336407E+03  0.21321019497E+03  0.00000000000E+00 0. -1.
<scales pt_clust_5="13000.00000" pt_clust_6="13000.00000" pt_clust_7="13000.00000" pt_clust_8="13000.00000" pt_clust_9="20.76645" pt_clust_10="29.29774"></scales>
<clustering>
<clus scale="   20.766">  2  9  1 -1</clus>
<clus scale="   29.298">  1 10  2 -1</clus>
<clus scale="   92.611">  7  8 -1 -1</clus>
<clus scale="   95.465">  5  6 -1 -1</clus>
<clus scale="  153.069">  1  7  2 -1</clus>
<clus scale="   29.298">  1  5  2 -1</clus>
</clustering>
</event>
<event>
10    2  0.1133532E-006  0.9637007E+02  0.7546771E-02  0.1288852E+00
          2   -1    0    0  503    0  0.00000000000E+00  0.00000000000E+00  0.96366704445E+02  0.96366704445E+02  0.00000000000E+00 0. -1.
         -2   -1    0    0    0  501 -0.00000000000E+00 -0.00000000000E+00 -0.10425965290E+04  0.10425965290E+04  0.00000000000E+00 0.  1.
         23    2    1    2    0    0  0.23649509713E+02 -0.26466927409E+02 -0.43349045157E+03  0.44512658635E+03  0.94677920943E+02 0.  0.
         23    2    1    2    0    0  0.14615517351E+02 -0.42969687101E+02 -0.31415780339E+03  0.33161869300E+03  0.95999087305E+02 0.  0.
        -11    1    4    4    0    0  0.51323080170E+02 -0.40819440481E+02 -0.24068258802E+03  0.24945619547E+03  0.00000000000E+00 0. -1.
         11    1    4    4    0    0 -0.36707562820E+02 -0.21502466202E+01 -0.73475215367E+02  0.82162497539E+02  0.00000000000E+00 0.  1.
        -11    1    3    3    0    0  0.28808221196E+02 -0.58273445991E+02 -0.34211844528E+03  0.34823948472E+03  0.00000000000E+00 0. -1.
         11    1    3    3    0    0 -0.51587114825E+01  0.31806518582E+02 -0.91372006290E+02  0.96887101628E+02  0.00000000000E+00 0.  1.
         21    1    1    2  502  501 -0.73755816802E+02  0.75437044190E+02 -0.26579797447E+03  0.28597068273E+03  0.00000000000E+00 0. -1.
         21    1    1    2  503  502  0.35490789739E+02 -0.60004296799E+01  0.67216404852E+02  0.76247271386E+02  0.00000000000E+00 0. -1.
<scales pt_clust_5="13000.00000" pt_clust_6="13000.00000" pt_clust_7="13000.00000" pt_clust_8="13000.00000" pt_clust_9="93.98767" pt_clust_10="35.99446"></scales>
<clustering>
<clus scale="   35.994">  1 10  2 -1</clus>
<clus scale="   93.988">  1  9  2 -1</clus>
<clus scale="   94.678">  7  8 -1 -1</clus>
<clus scale="   95.054">  2  7  1 -1</clus>
<clus scale="   95.999">  5  6 -1 -1</clus>
<clus scale="   35.994">  1  5  2 -1</clus>
</clustering>
</event>
<event>
10    2  0.1133532E-006  0.1124058E+03  0.7546771E-02  0.1258664E+00
          2   -1    0    0  503    0  0.00000000000E+00  0.00000000000E+00  0.14535382590E+03  0.14535382590E+03  0.00000000000E+00 0. -1.
         -2   -1    0    0    0  501 -0.00000000000E+00 -0.00000000000E+00 -0.72494202018E+03  0.72494202018E+03  0.00000000000E+00 0.  1.
         23    2    1    2    0    0 -0.92443921716E+02  0.84974080031E+02 -0.53051499139E+03  0.55340768685E+03  0.95118025786E+02 0.  0.
         23    2    1    2    0    0 -0.49664005870E+01  0.45275413425E+01  0.52918194842E+02  0.10349917003E+03  0.88693737578E+02 0.  0.
        -13    1    3    3    0    0 -0.84233496869E+02  0.15863739613E+02 -0.33800042926E+03  0.34869934099E+03  0.00000000000E+00 0.  1.
         13    1    3    3    0    0 -0.82104248467E+01  0.69110340418E+02 -0.19251456213E+03  0.20470834585E+03  0.00000000000E+00 0. -1.
        -13    1    4    4    0    0 -0.43492006698E+02  0.10594468791E+02  0.45445323644E+02  0.63789300488E+02  0.00000000000E+00 0.  1.
         13    1    4    4    0    0  0.38525606111E+02 -0.60669274489E+01  0.74728711970E+01  0.39709869539E+02  0.00000000000E+00 0. -1.
         21    1    1    2  502  501  0.33404036616E+02 -0.53517719473E+02 -0.12194584168E+03  0.13729808543E+03  0.00000000000E+00 0. -1.
         21    1    1    2  503  502  0.64006285687E+02 -0.35983901901E+02  0.19954443959E+02  0.76090903774E+02  0.00000000000E+00 0. -1.
<scales pt_clust_5="13000.00000" pt_clust_6="13000.00000" pt_clust_7="13000.00000" pt_clust_8="13000.00000" pt_clust_9="63.08705" pt_clust_10="76.05063"></scales>
<clustering>
<clus scale="   63.087">  2  9  1 -1</clus>
<clus scale="   76.051">  1 10  2 -1</clus>
<clus scale="   88.694">  7  8 -1 -1</clus>
<clus scale="   95.118">  5  6 -1 -1</clus>
<clus scale="  107.024">  1  7  2 -1</clus>
<clus scale="   76.051">  1  5  2 -1</clus>
</clustering>
</event>
<event>
10    2  0.1133532E-006  0.1271067E+03  0.7546771E-02  0.1232085E+00
         -2   -1    0    0    0  501 -0.00000000000E+00  0.00000000000E+00  0.61714636300E+02  0.61714636300E+02  0.00000000000E+00 0.  1.
          2   -1    0    0  503    0  0.00000000000E+00 -0.00000000000E+00 -0.87224743914E+03  0.87224743914E+03  0.00000000000E+00 0. -1.
         23    2    1    2    0    0  0.61939608535E+02 -0.22844482340E+02 -0.24089814711E+03  0.26648418768E+03  0.92862907155E+02 0.  0.
         23    2    1    2    0    0 -0.71050799917E+02  0.78986717230E+02 -0.50658427321E+03  0.52569788349E+03  0.91888634616E+02 0.  0.
        -11    1    4    4    0    0 -0.61631955393E+02  0.18593550681E+02 -0.37656351699E+03  0.38202657025E+03  0.00000000000E+00 0. -1.
         11    1    4    4    0    0 -0.94188445238E+01  0.60393166550E+02 -0.13002075622E+03  0.14367131323E+03  0.00000000000E+00 0.  1.
        -11    1    3    3    0    0  0.99608584774E+01 -0.47715585472E+02 -0.64071382616E+02  0.80505514524E+02  0.00000000000E+00 0.  1.
         11    1    3    3    0    0  0.51978750057E+02  0.24871103131E+02 -0.17682676449E+03  0.18597867316E+03  0.00000000000E+00 0. -1.
         21    1    1    2  502  501 -0.18722841935E+02  0.15221956326E+02  0.18117488463E+02  0.30174428788E+02  0.00000000000E+00 0.  1.
         21    1    1    2  503  502  0.27834033317E+02 -0.71364191216E+02 -0.81167870983E+02  0.11160557548E+03  0.00000000000E+00 0.  1.
<scales pt_clust_5="13000.00000" pt_clust_6="13000.00000" pt_clust_7="13000.00000" pt_clust_8="13000.00000" pt_clust_9="24.12991" pt_clust_10="68.27009"></scales>
<clustering>
<clus scale="   24.130">  1  9  2 -1</clus>
<clus scale="   68.270">  1 10  2 -1</clus>
<clus scale="   91.889">  5  6 -1 -1</clus>
<clus scale="   92.863">  7  8 -1 -1</clus>
<clus scale="  126.397">  2  5  1 -1</clus>
<clus scale="  126.397">  2  5  1 -1</clus>
</clustering>
</event>
<event>
10    2  0.1133532E-006  0.9253941E+02  0.7546771E-02  0.1297116E+00
          3   -1    0    0  503    0  0.00000000000E+00  0.00000000000E+00  0.14684751867E+03  0.14684751867E+03  0.00000000000E+00 0. -1.
         -3   -1    0    0    0  501 -0.00000000000E+00 -0.00000000000E+00 -0.21259877481E+03  0.21259877481E+03  0.00000000000E+00 0.  1.
         23    2    1    2    0    0  0.71131234351E+01  0.35882893921E+02 -0.30710916195E+02  0.10149814438E+03  0.89557435975E+02 0.  0.
         23    2    1    2    0    0 -0.16905473189E+01 -0.55377146390E+01 -0.76826225609E+01  0.89546172466E+02  0.89027917421E+02 0.  0.
        -11    1    4    4    0    0  0.36041924776E+02  0.26485446239E+01 -0.28184613545E+02  0.45830203697E+02  0.00000000000E+00 0.  1.
         11    1    4    4    0    0 -0.37732472095E+02 -0.81862592629E+01  0.20501990984E+02  0.43715968769E+02  0.00000000000E+00 0. -1.
        -13    1    3    3    0    0  0.40588715359E+02  0.42993203875E+02 -0.32041961526E+02  0.67249882471E+02  0.00000000000E+00 0.  1.
         13    1    3    3    0    0 -0.33475591924E+02 -0.71103099543E+01  0.13310453304E+01  0.34248261911E+02  0.00000000000E+00 0. -1.
         21    1    1    2  502  501  0.12801474468E+02  0.26554117990E+02 -0.82184689908E+02  0.87311638320E+02  0.00000000000E+00 0.  1.
         21    1    1    2  503  502 -0.18224050584E+02 -0.56899297272E+02  0.54826972525E+02  0.81090338303E+02  0.00000000000E+00 0. -1.
<scales pt_clust_5="13000.00000" pt_clust_6="13000.00000" pt_clust_7="13000.00000" pt_clust_8="13000.00000" pt_clust_9="29.47879" pt_clust_10="56.74958"></scales>
<clustering>
<clus scale="   29.479">  2  9  1 -1</clus>
<clus scale="   56.750">  1 10  2 -1</clus>
<clus scale="   89.028">  5  6 -1 -1</clus>
<clus scale="   89.557">  7  8 -1 -1</clus>
<clus scale="   92.027">  1  5  2 -1</clus>
<clus scale="   56.750">  1  5  2 -1</clus>
</clustering>
</event>
<event>
10    2  0.1133532E-006  0.1367461E+03  0.7546771E-02  0.1217943E+00
         -1   -1    0    0    0  501 -0.00000000000E+00  0.00000000000E+00  0.82158669664E+02  0.82158669664E+02  0.00000000000E+00 0.  1.
          1   -1    0    0  503    0  0.00000000000E+00 -0.00000000000E+00 -0.76399510853E+03  0.76399510853E+03  0.00000000000E+00 0. -1.
         23    2    1    2    0    0 -0.73080988690E+02 -0.75340448334E+02 -0.66484510581E+02  0.15493612509E+03  0.92563484411E+02 0.  0.
         23    2    1    2    0    0  0.88855776225E+02  0.72379344408E+02 -0.47243518310E+03  0.49500362054E+03  0.93270915370E+02 0.  0.
        -13    1    3    3    0    0 -0.88795143896E+02 -0.54505927325E+02 -0.27041354131E+02  0.10764157434E+03  0.00000000000E+00 0.  1.
         13    1    3    3    0    0  0.15714155206E+02 -0.20834521010E+02 -0.39443156450E+02  0.47294550746E+02  0.00000000000E+00 0. -1.
        -13    1    4    4    0    0  0.68272612119E+02 -0.42291567097E+01 -0.21354714922E+03  0.22423518964E+03  0.00000000000E+00 0. -1.
         13    1    4    4    0    0  0.20583164106E+02  0.76608501118E+02 -0.25888803387E+03  0.27076843090E+03  0.00000000000E+00 0.  1.
         21    1    1    2  502  501 -0.64124134824E+01  0.23899367195E+02  0.19922158249E+02  0.31767769647E+02  0.00000000000E+00 0.  1.
         21    1    1    2  503  502 -0.93623740530E+01 -0.20938263270E+02 -0.16283890344E+03  0.16444626293E+03  0.00000000000E+00 0.  1.
<scales pt_clust_5="13000.00000" pt_clust_6="13000.00000" pt_clust_7="13000.00000" pt_clust_8="13000.00000" pt_clust_9="24.56951" pt_clust_10="22.93611"></scales>
<clustering>
<clus scale="   22.936">  2 10  1 -1</clus>
<clus scale="   24.570">  1  9  2 -1</clus>
<clus scale="   92.563">  5  6 -1 -1</clus>
<clus scale="   93.271">  7  8 -1 -1</clus>
<clus scale="  136.265">  1  5  2 -1</clus>
<clus scale="   22.936">  2  5  1 -1</clus>
</clustering>
</event>
<event>
10    2  0.1133532E-006  0.1371400E+03  0.7546771E-02  0.1217558E+00
         -2   -1    0    0    0  501 -0.00000000000E+00  0.00000000000E+00  0.11792229527E+03  0.11792229527E+03  0.00000000000E+00 0.  1.
          2   -1    0    0  503    0  0.00000000000E+00 -0.00000000000E+00 -0.26534338085E+03  0.26534338085E+03  0.00000000000E+00 0. -1.
         23    2    1    2    0    0  0.50689138895E+02  0.96674336011E+02 -0.50545672854E+01  0.14233628690E+03  0.91207202960E+02 0.  0.
         23    2    1    2    0    0 -0.51609806547E+02 -0.75285354470E+02 -0.92151493898E+02  0.15774520725E+03  0.89778593517E+02 0.  0.
        -11    1    3    3    0    0 -0.19805464982E+02  0.11362229193E+02  0.18261618050E+02  0.29237704924E+02  0.00000000000E+00 0.  1.
         11    1    3    3    0    0  0.70494603878E+02  0.85312106817E+02 -0.23316185335E+02  0.11309858197E+03  0.00000000000E+00 0. -1.
        -13    1    4    4    0    0 -0.37729261216E+02 -0.36090057549E+02  0.46237078267E+01  0.52415342028E+02  0.00000000000E+00 0. -1.
         13    1    4    4    0    0 -0.13880545331E+02 -0.39195296922E+02 -0.96775201725E+02  0.10532986522E+03  0.00000000000E+00 0.  1.
         21    1    1    2  502  501 -0.17112126757E+02  0.10581936894E+02  0.10339719977E+01  0.20146249494E+02  0.00000000000E+00 0.  1.
         21    1    1    2  503  502  0.18032794409E+02 -0.31970918434E+02 -0.51248996394E+02  0.63037932478E+02  0.00000000000E+00 0. -1.
<scales pt_clust_5="13000.00000" pt_clust_6="13000.00000" pt_clust_7="13000.00000" pt_clust_8="13000.00000" pt_clust_9="20.11970" pt_clust_10="35.74199"></scales>
<clustering>
<clus scale="   20.120">  1  9  2 -1</clus>
<clus scale="   35.742">  2 10  1 -1</clus>
<clus scale="   89.779">  7  8 -1 -1</clus>
<clus scale="   91.207">  5  6 -1 -1</clus>
<clus scale="  136.194">  2  7  1 -1</clus>
<clus scale="   35.742">  2  5  1 -1</clus>
</clustering>
</event>
<event>
10    2  0.1133532E-006  0.1522931E+03  0.7546771E-02  0.1199620E+00
         -1   -1    0    0    0  501 -0.00000000000E+00  0.00000000000E+00  0.41731625183E+03  0.41731625183E+03  0.00000000000E+00 0.  1.
          1   -1    0    0  503    0  0.00000000000E+00 -0.00000000000E+00 -0.43144836853E+03  0.43144836853E+03  0.00000000000E+00 0. -1.
         23    2    1    2    0    0  0.84154970945E+02 -0.43440592909E-01  0.17680803453E+03  0.22051886922E+03  0.10141710696E+03 0.  0.
         23    2    1    2    0    0 -0.54027928925E+02  0.58855520552E+02 -0.30350858442E+03  0.32697107609E+03  0.91704058696E+02 0.  0.
        -13    1    3    3    0    0  0.80300008478E+02 -0.27554945759E+02  0.17269705677E+03  0.19243606682E+03  0.00000000000E+00 0.  1.
         13    1    3    3    0    0  0.38549624676E+01  0.27511505166E+02  0.41109777593E+01  0.28082802393E+02  0.00000000000E+00 0. -1.
        -13    1    4    4    0    0 -0.16326245663E+02 -0.24654280244E+02 -0.86399581996E+02  0.91319590455E+02  0.00000000000E+00 0.  1.
         13    1    4    4    0    0 -0.37701683262E+02  0.83509800796E+02 -0.21710900242E+03  0.23565148564E+03  0.00000000000E+00 0. -1.
         21    1    1    2  502  501  0.17570668425E+02 -0.70028510404E+02  0.19357543638E+03  0.20660147683E+03  0.00000000000E+00 0.  1.
         21    1    1    2  503  502 -0.47697710445E+02  0.11216430446E+02 -0.81007003196E+02  0.94673198216E+02  0.00000000000E+00 0. -1.
<scales pt_clust_5="13000.00000" pt_clust_6="13000.00000" pt_clust_7="13000.00000" pt_clust_8="13000.00000" pt_clust_9="71.77768" pt_clust_10="48.99877"></scales>
<clustering>
<clus scale="   48.999">  2 10  1 -1</clus>
<clus scale="   71.778">  1  9  2 -1</clus>
<clus scale="   91.704">  7  8 -1 -1</clus>
<clus scale="  101.417">  5  6 -1 -1</clus>
<clus scale="  146.005">  2  7  1 -1</clus>
<clus scale="   48.999">  2  5  1 -1</clus>
</clustering>
</event>
<event>
10    2  0.1133532E-006  0.1190569E+03  0.7546771E-02  0.1244979E+00
          1   -1    0    0  503    0  0.00000000000E+00  0.00000000000E+00  0.20010646878E+03  0.20010646878E+03  0.00000000000E+00 0. -1.
         -1   -1    0    0    0  501 -0.00000000000E+00 -0.00000000000E+00 -0.11892158479E+03  0.11892158479E+03  0.00000000000E+00 0.  1.
         23    2    1    2    0    0  0.53593027722E+02 -0.34333054098E+02 -0.63365303329E+01  0.11069573625E+03  0.90346129873E+02 0.  0.
         23    2    1    2    0    0 -0.49435850783E+02  0.83185765114E+02  0.65089321861E+02  0.14813264181E+03  0.91339393959E+02 0.  0.
        -11    1    3    3    0    0  0.12862204266E+02 -0.56712028072E+02  0.14240000098E+02  0.59870427002E+02  0.00000000000E+00 0. -1.
         11    1    3    3    0    0  0.40730823456E+02  0.22378973974E+02 -0.20576530431E+02  0.50825309248E+02  0.00000000000E+00 0.  1.
        -13    1    4    4    0    0 -0.27448266826E+02  0.10077190971E+03  0.46053239479E+02  0.11414589789E+03  0.00000000000E+00 0.  1.
         13    1    4    4    0    0 -0.21987583957E+02 -0.17586144594E+02  0.19036082382E+02  0.33986743922E+02  0.00000000000E+00 0. -1.
         21    1    1    2  502  501 -0.48016694948E+01 -0.21223537261E+02 -0.38075604361E+01  0.22090542779E+02  0.00000000000E+00 0. -1.
         21    1    1    2  503  502  0.64449255617E+00 -0.27629173755E+02  0.26239652906E+02  0.38109132733E+02  0.00000000000E+00 0. -1.
<scales pt_clust_5="13000.00000" pt_clust_6="13000.00000" pt_clust_7="13000.00000" pt_clust_8="13000.00000" pt_clust_9="21.75993" pt_clust_10="28.82019"></scales>
<clustering>
<clus scale="   21.760">  2  9  1 -1</clus>
<clus scale="   28.820">  1 10  2 -1</clus>
<clus scale="   90.346">  5  6 -1 -1</clus>
<clus scale="   91.339">  7  8 -1 -1</clus>
<clus scale="  118.297">  2  5  1 -1</clus>
<clus scale="   28.820">  1  5  2 -1</clus>
</clustering>
</event>
<event>
10    2  0.1133532E-006  0.1747125E+03  0.7546771E-02  0.1173084E+00
          2   -1    0    0  503    0  0.00000000000E+00  0.00000000000E+00  0.13753526796E+04  0.13753526796E+04  0.00000000000E+00 0.  1.
         -2   -1    0    0    0  501 -0.00000000000E+00 -0.00000000000E+00 -0.61365190847E+02  0.61365190847E+02  0.00000000000E+00 0. -1.
         23    2    1    2    0    0 -0.96681480317E+02  0.69880364035E+02  0.26022810464E+03  0.30066719461E+03  0.91932157351E+02 0.  0.
         23    2    1    2    0    0  0.18028470912E+03 -0.68343971226E+02  0.67911736356E+03  0.71185528491E+03  0.91455335611E+02 0.  0.
        -11    1    4    4    0    0  0.62613498424E+02  0.10725723217E+02  0.12941117240E+03  0.14416221026E+03  0.00000000000E+00 0. -1.
         11    1    4    4    0    0  0.11767121070E+03 -0.79069694443E+02  0.54970619116E+03  0.56769307465E+03  0.00000000000E+00 0.  1.
        -11    1    3    3    0    0 -0.35291320090E+02  0.79939025206E+02  0.16888995797E+03  0.19015662736E+03  0.00000000000E+00 0. -1.
         11    1    3    3    0    0 -0.61390160226E+02 -0.10058661172E+02  0.91338146675E+02  0.11051056726E+03  0.00000000000E+00 0.  1.
         21    1    1    2  502  501 -0.19911474905E+02  0.20272904715E+02 -0.12643767207E+02  0.31101806180E+02  0.00000000000E+00 0. -1.
         21    1    1    2  503  502 -0.63691753903E+02 -0.21809297524E+02  0.38728578780E+03  0.39309358479E+03  0.00000000000E+00 0.  1.
<scales pt_clust_5="13000.00000" pt_clust_6="13000.00000" pt_clust_7="13000.00000" pt_clust_8="13000.00000" pt_clust_9="28.41580" pt_clust_10="68.25051"></scales>
<clustering>
<clus scale="   28.416">  2  9  1 -1</clus>
<clus scale="   68.251">  1 10  2 -1</clus>
<clus scale="   91.455">  5  6 -1 -1</clus>
<clus scale="   91.932">  7  8 -1 -1</clus>
<clus scale="  174.462">  1  5  2 -1</clus>
<clus scale="   68.251">  1  5  2 -1</clus>
</clustering>
</event>
<event>
10    2  0.1133532E-006  0.1046238E+03  0.7546771E-02  0.1271293E+00
         -1   -1    0    0    0  501 -0.00000000000E+00  0.00000000000E+00  0.10946235884E+04  0.10946235884E+04  0.00000000000E+00 0.  1.
          1   -1    0    0  503    0  0.00000000000E+00 -0.00000000000E+00 -0.40941964606E+02  0.40941964606E+02  0.00000000000E+00 0. -1.
         23    2    1    2    0    0  0.46495685947E+02  0.68255390089E+02  0.37373426708E+03  0.39353540497E+03  0.91499538211E+02 0.  0.
         23    2    1    2    0    0  0.27064483205E+02  0.68420939106E+01  0.11786837214E+03  0.15740013957E+03  0.10051144356E+03 0.  0.
        -13    1    4    4    0    0  0.60062524428E+02 -0.18341013624E+02  0.70143731460E+02  0.94149045054E+02  0.00000000000E+00 0.  1.
         13    1    4    4    0    0 -0.32998041223E+02  0.25183107535E+02  0.47724640677E+02  0.63251094516E+02  0.00000000000E+00 0. -1.
        -13    1    3    3    0    0  0.60277116892E+02  0.76030284524E+01  0.19854015181E+03  0.20762786119E+03  0.00000000000E+00 0.  1.
         13    1    3    3    0    0 -0.13781430945E+02  0.60652361637E+02  0.17519411527E+03  0.18590754378E+03  0.00000000000E+00 0. -1.
         21    1    1    2  502  501 -0.95260851082E+02 -0.46473424705E+02  0.51285628531E+03  0.52369454679E+03  0.00000000000E+00 0.  1.
         21    1    1    2  503  502  0.21700681929E+02 -0.28624059295E+02  0.49222699290E+02  0.60935461696E+02  0.00000000000E+00 0. -1.
<scales pt_clust_5="13000.00000" pt_clust_6="13000.00000" pt_clust_7="13000.00000" pt_clust_8="13000.00000" pt_clust_9="105.05967" pt_clust_10="35.92014"></scales>
<clustering>
<clus scale="   35.920">  2 10  1 -1</clus>
<clus scale="   91.500">  7  8 -1 -1</clus>
<clus scale="  100.511">  5  6 -1 -1</clus>
<clus scale="  105.060">  1  9  2 -1</clus>
<clus scale="  105.060">  1  7  2 -1</clus>
<clus scale="   35.920">  2  5  1 -1</clus>
</clustering>
</event>
<event>
10    2  0.1133532E-006  0.2383475E+03  0.7546771E-02  0.1123428E+00
         -3   -1    0    0    0  501 -0.00000000000E+00  0.00000000000E+00  0.57173282702E+03  0.57173282702E+03  0.00000000000E+00 0.  1.
          3   -1    0    0  503    0  0.00000000000E+00 -0.00000000000E+00 -0.17509356673E+03  0.17509356673E+03  0.00000000000E+00 0. -1.
         23    2    1    2    0    0 -0.10648035643E+03  0.17334209076E+03  0.40420765239E+03  0.46892122362E+03  0.12295422311E+03 0.  0.
         23    2    1    2    0    0  0.65613933573E+02 -0.18336277445E+03 -0.15817508972E+01  0.21522556227E+03  0.91610290825E+02 0.  0.
        -11    1    4    4    0    0  0.51204659314E+02 -0.29552376614E+02  0.11353787490E+02  0.60201068008E+02  0.00000000000E+00 0.  1.
         11    1    4    4    0    0  0.14409274259E+02 -0.15381039784E+03 -0.12935538387E+02  0.15502449426E+03  0.00000000000E+00 0. -1.
        -13    1    3    3    0    0 -0.77837283609E+02  0.41991207012E+02  0.24540014634E+03  0.26085079262E+03  0.00000000000E+00 0. -1.
         13    1    3    3    0    0 -0.28643072822E+02  0.13135088374E+03  0.15880750605E+03  0.20807043101E+03  0.00000000000E+00 0.  1.
         21    1    1    2  502  501  0.16495755576E+02  0.16394872423E+02  0.16817239110E+02  0.28700545728E+02  0.00000000000E+00 0. -1.
         21    1    1    2  503  502  0.24370667282E+02 -0.63741887276E+01 -0.22803880319E+02  0.33979062131E+02  0.00000000000E+00 0. -1.
<scales pt_clust_5="13000.00000" pt_clust_6="13000.00000" pt_clust_7="13000.00000" pt_clust_8="13000.00000" pt_clust_9="23.25730" pt_clust_10="25.31150"></scales>
<clustering>
<clus scale="   23.257">  1  9  2 -1</clus>
<clus scale="   25.311">  2 10  1 -1</clus>
<clus scale="   91.610">  5  6 -1 -1</clus>
<clus scale="  122.954">  7  8 -1 -1</clus>
<clus scale="  223.795">  2  5  1 -1</clus>
<clus scale="   25.311">  2  5  1 -1</clus>
</clustering>
</event>
<event>
10    2  0.1133532E-006  0.1304215E+03  0.7546771E-02  0.1227262E+00
          2   -1    0    0  502    0  0.00000000000E+00  0.00000000000E+00  0.12122269704E+04  0.12122269704E+04  0.00000000000E+00 0. -1.
         -2   -1    0    0    0  501 -0.00000000000E+00 -0.00000000000E+00 -0.25732803516E+02  0.25732803516E+02  0.00000000000E+00 0.  1.
         23    2    1    2    0    0 -0.76669462316E+02  0.53708630317E+02  0.27875055879E+03  0.30744107124E+03  0.89751405774E+02 0.  0.
         23    2    1    2    0    0  0.48672448629E+02 -0.84870353490E+02  0.49100846161E+03  0.50893818364E+03  0.91415432150E+02 0.  0.
        -13    1    3    3    0    0 -0.47186980126E+02  0.44447702737E+02  0.26638012381E+03  0.27415429913E+03  0.00000000000E+00 0. -1.
         13    1    3    3    0    0 -0.29482482190E+02  0.92609275805E+01  0.12370434977E+02  0.33286772106E+02  0.00000000000E+00 0.  1.
        -13    1    4    4    0    0  0.18985905393E+02 -0.84660223865E+02  0.45013863806E+03  0.45842405214E+03  0.00000000000E+00 0. -1.
         13    1    4    4    0    0  0.29686543236E+02 -0.21012962572E+00  0.40869823553E+02  0.50514131498E+02  0.00000000000E+00 0.  1.
         21    1    1    2  502  503  0.17387476170E+02 -0.10693606593E+02  0.12097986601E+03  0.12268987541E+03  0.00000000000E+00 0.  1.
         21    1    1    2  503  501  0.10609537517E+02  0.41855329766E+02  0.29575528050E+03  0.29889064364E+03  0.00000000000E+00 0.  1.
<scales pt_clust_5="13000.00000" pt_clust_6="13000.00000" pt_clust_7="13000.00000" pt_clust_8="13000.00000" pt_clust_9="20.41268" pt_clust_10="41.85599"></scales>
<clustering>
<clus scale="   20.413">  1  9  2 -1</clus>
<clus scale="   41.856">  1 10  2 -1</clus>
<clus scale="   89.751">  5  6 -1 -1</clus>
<clus scale="   91.415">  7  8 -1 -1</clus>
<clus scale="  129.261">  2  5  1 -1</clus>
<clus scale="   20.413">  1  5  2 -1</clus>
</clustering>
</event>
<event>
10    2  0.1172405E-006  0.2385370E+03  0.7546771E-02  0.1120931E+00
         -2   -1    0    0    0  501 -0.00000000000E+00  0.00000000000E+00  0.82513532745E+02  0.82513532745E+02  0.00000000000E+00 0.  1.
          2   -1    0    0  503    0  0.00000000000E+00 -0.00000000000E+00 -0.12400148536E+04  0.12400148536E+04  0.00000000000E+00 0. -1.
         23    2    1    2    0    0 -0.18206963028E+03  0.11303099084E+03 -0.18288677117E+03  0.29601896050E+03  0.90853171365E+02 0.  0.
         23    2    1    2    0    0  0.19085512072E+03 -0.11136375379E+03 -0.91823691163E+03  0.94904878637E+03  0.93311361995E+02 0.  0.
        -11    1    3    3    0    0 -0.69217870764E+02  0.30138640610E+02 -0.12169108665E+03  0.14320674517E+03  0.00000000000E+00 0. -1.
         11    1    3    3    0    0 -0.11285175952E+03  0.82892350228E+02 -0.61195684525E+02  0.15281221534E+03  0.00000000000E+00 0.  1.
        -11    1    4    4    0    0  0.83971632037E+02 -0.62083344425E+01 -0.23719383242E+03  0.25169563473E+03  0.00000000000E+00 0.  1.
         11    1    4    4    0    0  0.10688348868E+03 -0.10515541935E+03 -0.68104307921E+03  0.69735315164E+03  0.00000000000E+00 0. -1.
         21    1    1    2  502  501  0.22982398175E+01  0.22787961983E+02 -0.12696272445E+02  0.26187181054E+02  0.00000000000E+00 0.  1.
         21    1    1    2  503  502 -0.11083730254E+02 -0.24455199029E+02 -0.43681365591E+02  0.51273458395E+02  0.00000000000E+00 0. -1.
<scales pt_clust_5="13000.00000" pt_clust_6="13000.00000" pt_clust_7="13000.00000" pt_clust_8="13000.00000" pt_clust_9="22.90356" pt_clust_10="25.76488"></scales>
<clustering>
<clus scale="   22.904">  1  9  2 -1</clus>
<clus scale="   25.765">  1 10  2 -1</clus>
<clus scale="   90.853">  5  6 -1 -1</clus>
<clus scale="   93.311">  7  8 -1 -1</clus>
<clus scale="  237.586">  1  5  2 -1</clus>
<clus scale="  238.537">  2  5  1 -1</clus>
</clustering>
</event>
<event>
10    2  0.1133532E-006  0.1056455E+03  0.7546771E-02  0.1269375E+00
         -4   -1    0    0    0  501 -0.00000000000E+00  0.00000000000E+00  0.33030157141E+03  0.33030157141E+03  0.00000000000E+00 0.  1.
          4   -1    0    0  503    0  0.00000000000E+00 -0.00000000000E+00 -0.70193142831E+02  0.70193142831E+02  0.00000000000E+00 0. -1.
         23    2    1    2    0    0  0.11685364184E+01  0.53168707984E+02  0.17469956220E+03  0.20393956903E+03  0.90791705553E+02 0.  0.
         23    2    1    2    0    0 -0.47980536323E+02 -0.36034972817E+02  0.48764455810E+02  0.12018791905E+03  0.92013654441E+02 0.  0.
        -11    1    4    4    0    0 -0.75397889669E+02 -0.29985560128E+02  0.30455930378E+02  0.86669136825E+02  0.00000000000E+00 0.  1.
         11    1    4    4    0    0  0.27417353347E+02 -0.60494126890E+01  0.18308525431E+02  0.33518782226E+02  0.00000000000E+00 0. -1.
        -13    1    3    3    0    0 -0.40610905057E+02  0.41962464020E+01  0.65816687318E+02  0.77451213179E+02  0.00000000000E+00 0.  1.
         13    1    3    3    0    0  0.41779441475E+02  0.48972461582E+02  0.10888287488E+03  0.12648835585E+03  0.00000000000E+00 0. -1.
         21    1    1    2  502  501  0.26745708426E+02 -0.73946829035E+01  0.44733213311E+02  0.52640997593E+02  0.00000000000E+00 0. -1.
         21    1    1    2  503  502  0.20066291479E+02 -0.97390522630E+01 -0.80888027341E+01  0.23726228574E+02  0.00000000000E+00 0. -1.
<scales pt_clust_5="13000.00000" pt_clust_6="13000.00000" pt_clust_7="13000.00000" pt_clust_8="13000.00000" pt_clust_9="29.34831" pt_clust_10="22.30482"></scales>
<clustering>
<clus scale="   22.305">  2 10  1 -1</clus>
<clus scale="   29.348">  1  9  2 -1</clus>
<clus scale="   90.792">  7  8 -1 -1</clus>
<clus scale="   92.014">  5  6 -1 -1</clus>
<clus scale="  104.583">  1  7  2 -1</clus>
<clus scale="   22.305">  2  5  1 -1</clus>
</clustering>
</event>
<event>
10    2  0.1133532E-006  0.1496211E+03  0.7546771E-02  0.1201185E+00
         -3   -1    0    0    0  501 -0.00000000000E+00  0.00000000000E+00  0.10710738563E+03  0.10710738563E+03  0.00000000000E+00 0.  1.
          3   -1    0    0  503    0  0.00000000000E+00 -0.00000000000E+00 -0.66407306660E+03  0.66407306660E+03  0.00000000000E+00 0. -1.
         23    2    1    2    0    0 -0.15874714143E+03 -0.73706257372E+02 -0.61196444909E+02  0.20723925363E+03  0.92573409176E+02 0.  0.
         23    2    1    2    0    0  0.67746777884E+02  0.29664285187E+02 -0.16456022734E+03  0.20219274121E+03  0.91281106749E+02 0.  0.
        -13    1    4    4    0    0  0.29072569082E+02 -0.32500562445E+02 -0.51290783416E+02  0.67321952554E+02  0.00000000000E+00 0.  1.
         13    1    4    4    0    0  0.38674208801E+02  0.62164847632E+02 -0.11326944392E+03  0.13487078866E+03  0.00000000000E+00 0. -1.
        -13    1    3    3    0    0  0.27998982769E+01 -0.30007438274E+02 -0.41053716137E+01  0.30416111819E+02  0.00000000000E+00 0.  1.
         13    1    3    3    0    0 -0.16154703971E+03 -0.43698819098E+02 -0.57091073296E+02  0.17682314181E+03  0.00000000000E+00 0. -1.
         21    1    1    2  502  501  0.34580030176E+02  0.39163901680E+02 -0.41963829402E+02  0.67011586012E+02  0.00000000000E+00 0. -1.
         21    1    1    2  503  502  0.56420333371E+02  0.48780705055E+01 -0.28924517932E+03  0.29473687138E+03  0.00000000000E+00 0. -1.
<scales pt_clust_5="13000.00000" pt_clust_6="13000.00000" pt_clust_7="13000.00000" pt_clust_8="13000.00000" pt_clust_9="52.24548" pt_clust_10="57.73839"></scales>
<clustering>
<clus scale="   52.245">  1  9  2 -1</clus>
<clus scale="   57.738">  2 10  1 -1</clus>
<clus scale="   91.281">  5  6 -1 -1</clus>
<clus scale="   92.573">  7  8 -1 -1</clus>
<clus scale="  148.825">  2  5  1 -1</clus>
<clus scale="   57.738">  2  5  1 -1</clus>
</clustering>
</event>
<event>
10    2  0.1133532E-006  0.3220961E+03  0.7546771E-02  0.1074702E+00
          1   -1    0    0  503    0  0.00000000000E+00  0.00000000000E+00  0.91944155041E+03  0.91944155041E+03  0.00000000000E+00 0. -1.
         -1   -1    0    0    0  501 -0.00000000000E+00 -0.00000000000E+00 -0.16345654380E+03  0.16345654380E+03  0.00000000000E+00 0.  1.
         23    2    1    2    0    0  0.44911280555E+02  0.28754008187E+03  0.17087765965E+03  0.35076544098E+03  0.95608044733E+02 0.  0.
         23    2    1    2    0    0 -0.10192043360E+03 -0.30670039875E+03  0.55710536234E+03  0.65117858349E+03  0.95990903029E+02 0.  0.
        -11    1    3    3    0    0  0.38294193720E+02  0.34722831303E+02  0.15592210483E+02  0.53992937632E+02  0.00000000000E+00 0. -1.
         11    1    3    3    0    0  0.66170868351E+01  0.25281725057E+03  0.15528544916E+03  0.29677250335E+03  0.00000000000E+00 0.  1.
        -13    1    4    4    0    0  0.10429472647E+02 -0.80618285639E+02  0.98840627362E+02  0.12797480805E+03  0.00000000000E+00 0.  1.
         13    1    4    4    0    0 -0.11234990625E+03 -0.22608211311E+03  0.45826473498E+03  0.52320377543E+03  0.00000000000E+00 0. -1.
         21    1    1    2  502  501  0.32474531113E+02  0.14169708297E+02 -0.87392589864E+01  0.36493156233E+02  0.00000000000E+00 0.  1.
         21    1    1    2  503  502  0.24534621933E+02  0.49906085864E+01  0.36741243610E+02  0.44460913503E+02  0.00000000000E+00 0. -1.
<scales pt_clust_5="13000.00000" pt_clust_6="13000.00000" pt_clust_7="13000.00000" pt_clust_8="13000.00000" pt_clust_9="35.81797" pt_clust_10="25.03705"></scales>
<clustering>
<clus scale="   25.037">  1 10  2 -1</clus>
<clus scale="   35.818">  2  9  1 -1</clus>
<clus scale="   95.608">  5  6 -1 -1</clus>
<clus scale="   95.991">  7  8 -1 -1</clus>
<clus scale="  321.982">  2  5  1 -1</clus>
<clus scale="   25.037">  1  5  2 -1</clus>
</clustering>
</event>
<event>
10    2  0.1133532E-006  0.1385063E+03  0.7546771E-02  0.1216050E+00
         -1   -1    0    0    0  501 -0.00000000000E+00  0.00000000000E+00  0.78877414211E+02  0.78877414211E+02  0.00000000000E+00 0.  1.
          1   -1    0    0  503    0  0.00000000000E+00 -0.00000000000E+00 -0.43697314866E+03  0.43697314866E+03  0.00000000000E+00 0. -1.
         23    2    1    2    0    0  0.38553430319E+02 -0.89062347204E+02 -0.60698291359E+02  0.14702777901E+03  0.92273596160E+02 0.  0.
         23    2    1    2    0    0 -0.51426272581E+02  0.77430440795E+02 -0.21579280933E+03  0.25353141656E+03  0.95244464168E+02 0.  0.
        -13    1    4    4    0    0 -0.79132429642E+02  0.53614523208E+02 -0.14176702175E+03  0.17098054561E+03  0.00000000000E+00 0.  1.
         13    1    4    4    0    0  0.27706157061E+02  0.23815917588E+02 -0.74025787572E+02  0.82550870954E+02  0.00000000000E+00 0. -1.
        -13    1    3    3    0    0  0.25588632313E+01 -0.53400260495E+02  0.15371523641E+02  0.55627505256E+02  0.00000000000E+00 0.  1.
         13    1    3    3    0    0  0.35994567088E+02 -0.35662086708E+02 -0.76069815000E+02  0.91400273755E+02  0.00000000000E+00 0. -1.
         21    1    1    2  502  501  0.31526695749E+02 -0.85014034505E+00 -0.92910511270E+00  0.31551838611E+02  0.00000000000E+00 0. -1.
         21    1    1    2  503  502 -0.18653853487E+02  0.12482046753E+02 -0.80675528649E+02  0.83739528682E+02  0.00000000000E+00 0. -1.
<scales pt_clust_5="13000.00000" pt_clust_6="13000.00000" pt_clust_7="13000.00000" pt_clust_8="13000.00000" pt_clust_9="30.67403" pt_clust_10="22.44477"></scales>
<clustering>
<clus scale="   22.445">  2 10  1 -1</clus>
<clus scale="   30.674">  1  9  2 -1</clus>
<clus scale="   92.274">  7  8 -1 -1</clus>
<clus scale="   95.244">  5  6 -1 -1</clus>
<clus scale="  136.480">  1  7  2 -1</clus>
<clus scale="   22.445">  2  5  1 -1</clus>
</clustering>
</event>
<event>
10    2  0.1133532E-006  0.1531042E+03  0.7546771E-02  0.1205648E+00
          2   -1    0    0  503    0  0.00000000000E+00  0.00000000000E+00  0.59824978025E+03  0.59824978025E+03  0.00000000000E+00 0. -1.
         -2   -1    0    0    0  501 -0.00000000000E+00 -0.00000000000E+00 -0.17389222622E+03  0.17389222622E+03  0.00000000000E+00 0.  1.
         23    2    1    2    0    0  0.87826457677E+02 -0.29517182530E+02 -0.22196416847E+02  0.13369861645E+03  0.93797059587E+02 0.  0.
         23    2    1    2    0    0 -0.13797434045E+01 -0.12329640306E+03  0.33878925352E+03  0.37172362798E+03  0.90533919634E+02 0.  0.
        -11    1    3    3    0    0  0.99054493750E+02  0.85107972401E+00 -0.21225169665E+02  0.10130658861E+03  0.00000000000E+00 0.  1.
         11    1    3    3    0    0 -0.11228036073E+02 -0.30368262254E+02 -0.97124718139E+00  0.32392027838E+02  0.00000000000E+00 0. -1.
        -13    1    4    4    0    0  0.18003347681E+02 -0.52334494000E+02  0.53036849095E+02  0.76654596417E+02  0.00000000000E+00 0.  1.
         13    1    4    4    0    0 -0.19383091085E+02 -0.70961909057E+02  0.28575240442E+03  0.29506903157E+03  0.00000000000E+00 0. -1.
         21    1    1    2  502  501 -0.56508160659E+01  0.38618279332E+02 -0.45010346169E+02  0.59575452017E+02  0.00000000000E+00 0. -1.
         21    1    1    2  503  502 -0.80795898207E+02  0.11419530626E+03  0.15277506353E+03  0.20714431002E+03  0.00000000000E+00 0. -1.
<scales pt_clust_5="13000.00000" pt_clust_6="13000.00000" pt_clust_7="13000.00000" pt_clust_8="13000.00000" pt_clust_9="39.02952" pt_clust_10="123.46870"></scales>
<clustering>
<clus scale="   39.030">  2  9  1 -1</clus>
<clus scale="   90.534">  7  8 -1 -1</clus>
<clus scale="   93.797">  5  6 -1 -1</clus>
<clus scale="  126.138">  2  5  1 -1</clus>
<clus scale="  123.469">  2 10  1 -1</clus>
<clus scale="  153.104">  1  5  2 -1</clus>
</clustering>
</event>
<event>
10    2  0.2044813E-006  0.9425975E+02  0.7546771E-02  0.1293340E+00
          3   -1    0    0  503    0  0.00000000000E+00  0.00000000000E+00  0.17893517474E+03  0.17893517474E+03  0.00000000000E+00 0. -1.
         -3   -1    0    0    0  501 -0.00000000000E+00 -0.00000000000E+00 -0.31885998863E+03  0.31885998863E+03  0.00000000000E+00 0.  1.
         23    2    1    2    0    0  0.16069376724E+02 -0.13876037238E+02 -0.23211494246E+03  0.25050019221E+03  0.91772711107E+02 0.  0.
         23    2    1    2    0    0  0.59750078234E+01 -0.59614524748E+02  0.11644499044E+03  0.16041027008E+03  0.92641387460E+02 0.  0.
        -13    1    4    4    0    0  0.19584576622E+02  0.11903217774E+02  0.70957225474E+02  0.74566548007E+02  0.00000000000E+00 0. -1.
         13    1    4    4    0    0 -0.13609568798E+02 -0.71517742521E+02  0.45487764962E+02  0.85843722074E+02  0.00000000000E+00 0.  1.
        -13    1    3    3    0    0  0.28395910920E+02  0.31971681842E+02 -0.74605247587E+02  0.85991041186E+02  0.00000000000E+00 0. -1.
         13    1    3    3    0    0 -0.12326534196E+02 -0.45847719080E+02 -0.15750969487E+03  0.16450915102E+03  0.00000000000E+00 0.  1.
         21    1    1    2  502  501 -0.83954623423E+01  0.43385344607E+02 -0.29894675190E+02  0.53352258803E+02  0.00000000000E+00 0. -1.
         21    1    1    2  503  502 -0.13648922205E+02  0.30105217378E+02  0.56398133312E+01  0.33532442279E+02  0.00000000000E+00 0. -1.
<scales pt_clust_5="13000.00000" pt_clust_6="13000.00000" pt_clust_7="13000.00000" pt_clust_8="13000.00000" pt_clust_9="83.43053" pt_clust_10="28.34151"></scales>
<clustering>
<clus scale="   28.342">  9 10 -1 -1</clus>
<clus scale="   83.431">  1  9  2 -1</clus>
<clus scale="   91.773">  7  8 -1 -1</clus>
<clus scale="   92.641">  5  6 -1 -1</clus>
<clus scale="   93.406">  2  7  1 -1</clus>
<clus scale="   83.431">  1  5  2 -1</clus>
</clustering>
</event>
<event>
10    2  0.1133532E-006  0.9599382E+02  0.7546771E-02  0.1293011E+00
         -2   -1    0    0    0  501 -0.00000000000E+00  0.00000000000E+00  0.33502021214E+02  0.33502021214E+02  0.00000000000E+00 0.  1.
          2   -1    0    0  503    0  0.00000000000E+00 -0.00000000000E+00 -0.69349010127E+03  0.69349010127E+03  0.00000000000E+00 0. -1.
         23    2    1    2    0    0  0.26956338528E+02  0.33870907713E+01 -0.17029586702E+03  0.19718162055E+03  0.95612721884E+02 0.  0.
         23    2    1    2    0    0  0.38800430258E+02 -0.80145592967E+01 -0.17994601943E+03  0.20443687719E+03  0.88567264260E+02 0.  0.
        -11    1    4    4    0    0  0.92880461538E+01 -0.39433676146E+02 -0.36073610210E+02  0.54245626269E+02  0.00000000000E+00 0.  1.
         11    1    4    4    0    0  0.29512384104E+02  0.31419116849E+02 -0.14387240922E+03  0.15019125093E+03  0.00000000000E+00 0. -1.
        -13    1    3    3    0    0  0.31609964483E+02  0.46122556447E+02 -0.10590714221E+03  0.11976144137E+03  0.00000000000E+00 0. -1.
         13    1    3    3    0    0 -0.46536259546E+01 -0.42735465675E+02 -0.64388724811E+02  0.77420179177E+02  0.00000000000E+00 0.  1.
         21    1    1    2  502  501 -0.48931698089E+01  0.20957695924E+02 -0.21878807595E+02  0.30689580496E+02  0.00000000000E+00 0.  1.
         21    1    1    2  503  502 -0.60863598978E+02 -0.16330227399E+02 -0.28786738601E+03  0.29468404425E+03  0.00000000000E+00 0. -1.
<scales pt_clust_5="13000.00000" pt_clust_6="13000.00000" pt_clust_7="13000.00000" pt_clust_8="13000.00000" pt_clust_9="21.52134" pt_clust_10="62.98413"></scales>
<clustering>
<clus scale="   21.521">  1  9  2 -1</clus>
<clus scale="   62.984">  2 10  1 -1</clus>
<clus scale="   88.567">  5  6 -1 -1</clus>
<clus scale="   88.979">  2  5  1 -1</clus>
<clus scale="   95.613">  7  8 -1 -1</clus>
<clus scale="   62.984">  2  5  1 -1</clus>
</clustering>
</event>
<event>
10    2  0.1133532E-006  0.9382060E+02  0.7546771E-02  0.1295284E+00
          3   -1    0    0  503    0  0.00000000000E+00  0.00000000000E+00  0.25534981239E+03  0.25534981239E+03  0.00000000000E+00 0. -1.
         -3   -1    0    0    0  501 -0.00000000000E+00 -0.00000000000E+00 -0.90247817154E+02  0.90247817154E+02  0.00000000000E+00 0.  1.
         23    2    1    2    0    0  0.51941823207E+01 -0.17885852697E+02  0.26932086565E+02  0.97303726429E+02  0.91628568872E+02 0.  0.
         23    2    1    2    0    0  0.30549187858E+02 -0.47386082686E+02  0.98923970345E+02  0.14458510184E+03  0.89107833858E+02 0.  0.
        -11    1    4    4    0    0 -0.24262739593E+02 -0.42841317320E+02  0.57699167267E+02  0.75850200432E+02  0.00000000000E+00 0. -1.
         11    1    4    4    0    0  0.54811927451E+02 -0.45447653657E+01  0.41224803078E+02  0.68734901411E+02  0.00000000000E+00 0.  1.
        -13    1    3    3    0    0  0.36436811062E+02  0.19424392605E+02 -0.78837808425E+00  0.41298544387E+02  0.00000000000E+00 0.  1.
         13    1    3    3    0    0 -0.31242628741E+02 -0.37310245302E+02  0.27720464649E+02  0.56005182042E+02  0.00000000000E+00 0. -1.
         21    1    1    2  502  501 -0.58896285325E+01  0.48301041583E+02 -0.36090289806E+01  0.48792452618E+02  0.00000000000E+00 0.  1.
         21    1    1    2  503  502 -0.29853741646E+02  0.16970893800E+02  0.42854967304E+02  0.54916348652E+02  0.00000000000E+00 0. -1.
<scales pt_clust_5="13000.00000" pt_clust_6="13000.00000" pt_clust_7="13000.00000" pt_clust_8="13000.00000" pt_clust_9="50.98691" pt_clust_10="34.34031"></scales>
<clustering>
<clus scale="   34.340">  1 10  2 -1</clus>
<clus scale="   50.987">  2  9  1 -1</clus>
<clus scale="   89.108">  5  6 -1 -1</clus>
<clus scale="   91.360">  1  5  2 -1</clus>
<clus scale="   91.629">  7  8 -1 -1</clus>
<clus scale="   34.340">  1  5  2 -1</clus>
</clustering>
</event>
<event>
10    2  0.1133532E-006  0.1169443E+03  0.7546771E-02  0.1248418E+00
          2   -1    0    0  503    0  0.00000000000E+00  0.00000000000E+00  0.70595946538E+03  0.70595946538E+03  0.00000000000E+00 0. -1.
         -2   -1    0    0    0  501 -0.00000000000E+00 -0.00000000000E+00 -0.22445994853E+03  0.22445994853E+03  0.00000000000E+00 0.  1.
         23    2    1    2    0    0  0.11122889835E+01  0.90341252417E-01 -0.55652510662E+02  0.10630306878E+03  0.90564314936E+02 0.  0.
         23    2    1    2    0    0  0.11562686266E+03  0.17135530212E+02  0.49928493567E+03  0.52061964016E+03  0.89978691773E+02 0.  0.
        -11    1    4    4    0    0  0.44324839512E+02  0.39426514938E+02  0.33412073034E+03  0.33934614175E+03  0.00000000000E+00 0. -1.
         11    1    4    4    0    0  0.71302023145E+02 -0.22290984726E+02  0.16516420533E+03  0.18127349841E+03  0.00000000000E+00 0.  1.
        -13    1    3    3    0    0 -0.40034480456E+02 -0.19923902857E+02 -0.29964023520E+02  0.53829027819E+02  0.00000000000E+00 0. -1.
         13    1    3    3    0    0  0.41146769440E+02  0.20014244110E+02 -0.25688487142E+02  0.52474040956E+02  0.00000000000E+00 0.  1.
         21    1    1    2  502  501 -0.81618482055E+02  0.22567006448E+02 -0.11435045453E+03  0.14229150658E+03  0.00000000000E+00 0.  1.
         21    1    1    2  503  502 -0.35120669586E+02 -0.39792877912E+02  0.15221754638E+03  0.16120519840E+03  0.00000000000E+00 0.  1.
<scales pt_clust_5="13000.00000" pt_clust_6="13000.00000" pt_clust_7="13000.00000" pt_clust_8="13000.00000" pt_clust_9="85.28076" pt_clust_10="53.07480"></scales>
<clustering>
<clus scale="   53.075">  1 10  2 -1</clus>
<clus scale="   85.281">  2  9  1 -1</clus>
<clus scale="   89.979">  5  6 -1 -1</clus>
<clus scale="   90.564">  7  8 -1 -1</clus>
<clus scale="  116.491">  1  5  2 -1</clus>
<clus scale="   53.075">  1  5  2 -1</clus>
</clustering>
</event>
<event>
10    2  0.1133532E-006  0.1214539E+03  0.7546771E-02  0.1240793E+00
         -1   -1    0    0    0  501 -0.00000000000E+00  0.00000000000E+00  0.22640619263E+03  0.22640619263E+03  0.00000000000E+00 0.  1.
          1   -1    0    0  503    0  0.00000000000E+00 -0.00000000000E+00 -0.17845575970E+03  0.17845575970E+03  0.00000000000E+00 0. -1.
         23    2    1    2    0    0 -0.11993811291E+02 -0.71216177723E+02  0.11810971309E+03  0.16637062611E+03  0.92269634371E+02 0.  0.
         23    2    1    2    0    0  0.25218352661E+02  0.64862100218E+02  0.13839443074E+01  0.11538460608E+03  0.92025184938E+02 0.  0.
        -11    1    4    4    0    0  0.79379829125E+01 -0.22130618445E+02  0.11398562889E+02  0.26128587436E+02  0.00000000000E+00 0.  1.
         11    1    4    4    0    0  0.17280369748E+02  0.86992718663E+02 -0.10014618581E+02  0.89256018645E+02  0.00000000000E+00 0. -1.
        -11    1    3    3    0    0  0.16906557980E+02 -0.83217703600E+02  0.95313512099E+02  0.12765454745E+03  0.00000000000E+00 0.  1.
         11    1    3    3    0    0 -0.28900369271E+02  0.12001525877E+02  0.22796200990E+02  0.38716078662E+02  0.00000000000E+00 0. -1.
         21    1    1    2  502  501 -0.13596281509E+02 -0.22205515190E+02  0.16312199937E+02  0.30725097925E+02  0.00000000000E+00 0.  1.
         21    1    1    2  503  502  0.37174013889E+00  0.28559592695E+02 -0.87855424409E+02  0.92381622219E+02  0.00000000000E+00 0.  1.
<scales pt_clust_5="13000.00000" pt_clust_6="13000.00000" pt_clust_7="13000.00000" pt_clust_8="13000.00000" pt_clust_9="26.03735" pt_clust_10="28.31276"></scales>
<clustering>
<clus scale="   26.037">  1  9  2 -1</clus>
<clus scale="   28.313">  2 10  1 -1</clus>
<clus scale="   92.025">  5  6 -1 -1</clus>
<clus scale="   92.270">  7  8 -1 -1</clus>
<clus scale="  121.268">  2  5  1 -1</clus>
<clus scale="   28.313">  2  5  1 -1</clus>
</clustering>
</event>
<event>
10    2  0.1133532E-006  0.2800738E+03  0.7546771E-02  0.1095971E+00
         -1   -1    0    0    0  501 -0.00000000000E+00  0.00000000000E+00  0.22080106974E+03  0.22080106974E+03  0.00000000000E+00 0.  1.
          1   -1    0    0  503    0  0.00000000000E+00 -0.00000000000E+00 -0.87525378906E+03  0.87525378906E+03  0.00000000000E+00 0. -1.
         23    2    1    2    0    0 -0.13381434833E+03  0.22231184207E+03 -0.28447677233E+03  0.39422552915E+03  0.84604366896E+02 0.  0.
         23    2    1    2    0    0  0.10664129457E+03 -0.25378108559E+03 -0.46302255435E+03  0.54647616847E+03  0.92027777138E+02 0.  0.
        -11    1    4    4    0    0  0.21277241043E+02 -0.30248245195E+02 -0.13803683965E+03  0.14290502589E+03  0.00000000000E+00 0. -1.
         11    1    4    4    0    0  0.85364053527E+02 -0.22353284040E+03 -0.32498571469E+03  0.40357114258E+03  0.00000000000E+00 0.  1.
        -11    1    3    3    0    0 -0.72229241470E+02  0.18937153841E+03 -0.20201592419E+03  0.28616267491E+03  0.00000000000E+00 0.  1.
         11    1    3    3    0    0 -0.61585106860E+02  0.32940303660E+02 -0.82460848137E+02  0.10806285425E+03  0.00000000000E+00 0. -1.
         21    1    1    2  502  501  0.28637861641E+02  0.10764125917E+02  0.11857089126E+03  0.12245427629E+03  0.00000000000E+00 0. -1.
         21    1    1    2  503  502 -0.14648078804E+01  0.20705117600E+02 -0.25524283918E+02  0.32898884882E+02  0.00000000000E+00 0. -1.
<scales pt_clust_5="13000.00000" pt_clust_6="13000.00000" pt_clust_7="13000.00000" pt_clust_8="13000.00000" pt_clust_9="30.60762" pt_clust_10="20.75687"></scales>
<clustering>
<clus scale="   20.757">  2 10  1 -1</clus>
<clus scale="   30.608">  1  9  2 -1</clus>
<clus scale="   84.604">  7  8 -1 -1</clus>
<clus scale="   92.028">  5  6 -1 -1</clus>
<clus scale="  277.723">  1  7  2 -1</clus>
<clus scale="   20.757">  2  5  1 -1</clus>
</clustering>
</event>
<event>
10    2  0.1133532E-006  0.1105491E+03  0.7546771E-02  0.1261559E+00
          2   -1    0    0  503    0  0.00000000000E+00  0.00000000000E+00  0.64850329658E+03  0.64850329658E+03  0.00000000000E+00 0. -1.
         -2   -1    0    0    0  501 -0.00000000000E+00 -0.00000000000E+00 -0.72965308190E+02  0.72965308190E+02  0.00000000000E+00 0.  1.
         23    2    1    2    0    0 -0.74796915187E+02  0.12891579998E+02  0.96370236997E+02  0.15267205673E+03  0.90888739517E+02 0.  0.
         23    2    1    2    0    0  0.20309487205E+02  0.16065078336E+02  0.38988041005E+03  0.40232126311E+03  0.95838940896E+02 0.  0.
        -13    1    4    4    0    0  0.20628939221E+02 -0.38302295264E+02  0.14040975665E+03  0.14699496154E+03  0.00000000000E+00 0.  1.
         13    1    4    4    0    0 -0.31945201629E+00  0.54367373600E+02  0.24947065341E+03  0.25532630157E+03  0.00000000000E+00 0. -1.
        -13    1    3    3    0    0 -0.56043134814E+02 -0.78080066686E+01  0.46295395167E+01  0.56773502306E+02  0.00000000000E+00 0.  1.
         13    1    3    3    0    0 -0.18753780373E+02  0.20699586667E+02  0.91740697480E+02  0.95898554424E+02  0.00000000000E+00 0. -1.
         21    1    1    2  502  501  0.20192460747E+02 -0.55413594945E+02 -0.84404743753E+01  0.59578885383E+02  0.00000000000E+00 0.  1.
         21    1    1    2  503  502  0.34294967235E+02  0.26456936611E+02  0.97727815715E+02  0.10689639955E+03  0.00000000000E+00 0. -1.
<scales pt_clust_5="13000.00000" pt_clust_6="13000.00000" pt_clust_7="13000.00000" pt_clust_8="13000.00000" pt_clust_9="58.39594" pt_clust_10="43.31413"></scales>
<clustering>
<clus scale="   43.314">  1 10  2 -1</clus>
<clus scale="   58.396">  2  9  1 -1</clus>
<clus scale="   90.889">  7  8 -1 -1</clus>
<clus scale="   95.839">  5  6 -1 -1</clus>
<clus scale="  106.286">  2  7  1 -1</clus>
<clus scale="   43.314">  1  5  2 -1</clus>
</clustering>
</event>
<event>
10    2  0.1133532E-006  0.2903244E+03  0.7546771E-02  0.1090609E+00
         -2   -1    0    0    0  501 -0.00000000000E+00  0.00000000000E+00  0.82683399612E+02  0.82683399612E+02  0.00000000000E+00 0.  1.
          2   -1    0    0  503    0  0.00000000000E+00 -0.00000000000E+00 -0.15135554747E+04  0.15135554747E+04  0.00000000000E+00 0. -1.
         23    2    1    2    0    0  0.59794414554E+02 -0.25206366831E+03 -0.38880000253E+03  0.48183651786E+03  0.11785382084E+03 0.  0.
         23    2    1    2    0    0  0.10410232138E+02  0.26422157749E+03 -0.67050034590E+03  0.73162115248E+03  0.12560804895E+03 0.  0.
        -11    1    3    3    0    0  0.74184978728E+02 -0.17532730798E+03 -0.19322863878E+03  0.27125704200E+03  0.00000000000E+00 0.  1.
         11    1    3    3    0    0 -0.14390564175E+02 -0.76736360326E+02 -0.19557136375E+03  0.21057947586E+03  0.00000000000E+00 0. -1.
        -11    1    4    4    0    0 -0.41121965658E+02  0.51504215455E+02 -0.92575367770E+02  0.11363933732E+03  0.00000000000E+00 0.  1.
         11    1    4    4    0    0  0.51532197796E+02  0.21271736204E+03 -0.57792497813E+03  0.61798181516E+03  0.00000000000E+00 0. -1.
         21    1    1    2  502  501 -0.23689298575E+02 -0.17917264009E+02 -0.52790204869E+02  0.60572410772E+02  0.00000000000E+00 0. -1.
         21    1    1    2  503  502 -0.46515348117E+02  0.57593548231E+01 -0.31878152182E+03  0.32220879323E+03  0.00000000000E+00 0. -1.
<scales pt_clust_5="13000.00000" pt_clust_6="13000.00000" pt_clust_7="13000.00000" pt_clust_8="13000.00000" pt_clust_9="29.70204" pt_clust_10="47.33611"></scales>
<clustering>
<clus scale="   29.702">  1  9  2 -1</clus>
<clus scale="   47.336">  2 10  1 -1</clus>
<clus scale="  117.854">  5  6 -1 -1</clus>
<clus scale="  125.608">  7  8 -1 -1</clus>
<clus scale="  287.055">  1  5  2 -1</clus>
<clus scale="   47.336">  2  5  1 -1</clus>
</clustering>
</event>
<event>
10    2  0.1133532E-006  0.1015023E+03  0.7546771E-02  0.1278902E+00
          3   -1    0    0  503    0  0.00000000000E+00  0.00000000000E+00  0.43114504911E+03  0.43114504911E+03  0.00000000000E+00 0. -1.
         -3   -1    0    0    0  501 -0.00000000000E+00 -0.00000000000E+00 -0.32686484758E+03  0.32686484758E+03  0.00000000000E+00 0.  1.
         23    2    1    2    0    0 -0.43948645264E+01 -0.20145911474E+02 -0.18694154075E+03  0.20874044591E+03  0.90555295374E+02 0.  0.
         23    2    1    2    0    0 -0.31129578208E+02  0.85939994790E+02  0.18165079781E+03  0.22408012135E+03  0.94128396850E+02 0.  0.
        -11    1    4    4    0    0 -0.59317411925E+02  0.26914938187E+02  0.79438695287E+02  0.10273011031E+03  0.00000000000E+00 0.  1.
         11    1    4    4    0    0  0.28187833717E+02  0.59025056603E+02  0.10221210253E+03  0.12135001104E+03  0.00000000000E+00 0. -1.
        -13    1    3    3    0    0 -0.43176114679E+02  0.92945136666E+01 -0.86869073057E+02  0.97451530090E+02  0.00000000000E+00 0. -1.
         13    1    3    3    0    0  0.38781250152E+02 -0.29440425141E+02 -0.10007246769E+03  0.11128891583E+03  0.00000000000E+00 0.  1.
         21    1    1    2  502  501 -0.23517572326E+02 -0.88280861037E+01 -0.98434118729E+02  0.10158881357E+03  0.00000000000E+00 0. -1.
         21    1    1    2  503  502  0.59042015060E+02 -0.56965997212E+02  0.20800506319E+03  0.22360051586E+03  0.00000000000E+00 0. -1.
<scales pt_clust_5="13000.00000" pt_clust_6="13000.00000" pt_clust_7="13000.00000" pt_clust_8="13000.00000" pt_clust_9="25.11994" pt_clust_10="81.67586"></scales>
<clustering>
<clus scale="   25.120">  2  9  1 -1</clus>
<clus scale="   81.676">  1 10  2 -1</clus>
<clus scale="   90.555">  7  8 -1 -1</clus>
<clus scale="   94.128">  5  6 -1 -1</clus>
<clus scale="   98.198">  2  7  1 -1</clus>
<clus scale="   81.676">  1  5  2 -1</clus>
</clustering>
</event>
<event>
10    2  0.1133532E-006  0.1506899E+03  0.7546771E-02  0.1213572E+00
         -1   -1    0    0    0  501 -0.00000000000E+00  0.00000000000E+00  0.13772020482E+03  0.13772020482E+03  0.00000000000E+00 0.  1.
          1   -1    0    0  503    0  0.00000000000E+00 -0.00000000000E+00 -0.48171016051E+03  0.48171016051E+03  0.00000000000E+00 0. -1.
         23    2    1    2    0    0  0.30877110369E+02  0.58663618052E+02 -0.70835746679E+02  0.13218071692E+03  0.89773174677E+02 0.  0.
         23    2    1    2    0    0 -0.10700099870E+03  0.13967645974E+02  0.25871860691E+02  0.14280512489E+03  0.89886826959E+02 0.  0.
        -11    1    4    4    0    0 -0.73593856797E+02 -0.34117073621E+02  0.22391618090E+02  0.84151143969E+02  0.00000000000E+00 0.  1.
         11    1    4    4    0    0 -0.33407141905E+02  0.48084719594E+02  0.34802426008E+01  0.58653980916E+02  0.00000000000E+00 0. -1.
        -11    1    3    3    0    0 -0.18557944788E+02  0.59217007628E+02 -0.36602812784E+02  0.72047326189E+02  0.00000000000E+00 0.  1.
         11    1    3    3    0    0  0.49435055157E+02 -0.55338957680E+00 -0.34232933894E+02  0.60133390736E+02  0.00000000000E+00 0. -1.
         21    1    1    2  502  501 -0.18450915808E+02  0.95621672683E+01 -0.61061406208E+00  0.20790483077E+02  0.00000000000E+00 0.  1.
         21    1    1    2  503  502  0.94574804141E+02 -0.82193431293E+02 -0.29841545564E+03  0.32365404044E+03  0.00000000000E+00 0. -1.
<scales pt_clust_5="13000.00000" pt_clust_6="13000.00000" pt_clust_7="13000.00000" pt_clust_8="13000.00000" pt_clust_9="20.78151" pt_clust_10="120.94551"></scales>
<clustering>
<clus scale="   20.782">  1  9  2 -1</clus>
<clus scale="   89.773">  7  8 -1 -1</clus>
<clus scale="   89.887">  5  6 -1 -1</clus>
<clus scale="  111.691">  1  7  2 -1</clus>
<clus scale="  120.946">  2 10  1 -1</clus>
<clus scale="  120.946">  2  5  1 -1</clus>
</clustering>
</event>
<event>
10    2  0.1133532E-006  0.1264289E+03  0.7546771E-02  0.1232926E+00
          4   -1    0    0  503    0  0.00000000000E+00  0.00000000000E+00  0.42074874833E+03  0.42074874833E+03  0.00000000000E+00 0. -1.
         -4   -1    0    0    0  501 -0.00000000000E+00 -0.00000000000E+00 -0.12153442370E+03  0.12153442370E+03  0.00000000000E+00 0.  1.
         23    2    1    2    0    0  0.83125416842E+02 -0.20892589454E+02  0.92437564639E+02  0.15672167082E+03  0.93116290355E+02 0.  0.
         23    2    1    2    0    0 -0.79610409412E+02  0.20501057364E+02  0.13793782754E+03  0.18549227551E+03  0.92857037251E+02 0.  0.
        -11    1    4    4    0    0 -0.36271545783E+02  0.38583861324E+02  0.12653244461E+03  0.13716704753E+03  0.00000000000E+00 0.  1.
         11    1    4    4    0    0 -0.43338863630E+02 -0.18082803960E+02  0.11405382930E+02  0.48325227982E+02  0.00000000000E+00 0. -1.
        -13    1    3    3    0    0  0.74997329823E+02 -0.52636859881E+02  0.80120256554E+02  0.12171480604E+03  0.00000000000E+00 0. -1.
         13    1    3    3    0    0  0.81280870196E+01  0.31744270427E+02  0.12317308085E+02  0.35006864784E+02  0.00000000000E+00 0.  1.
         21    1    1    2  502  501  0.86031371129E+01 -0.27178454694E+02 -0.60707822295E+02  0.67068040493E+02  0.00000000000E+00 0.  1.
         21    1    1    2  503  502 -0.12118144543E+02  0.27569986784E+02  0.12954675475E+03  0.13300118520E+03  0.00000000000E+00 0.  1.
<scales pt_clust_5="13000.00000" pt_clust_6="13000.00000" pt_clust_7="13000.00000" pt_clust_8="13000.00000" pt_clust_9="28.50758" pt_clust_10="29.26660"></scales>
<clustering>
<clus scale="   28.508">  2  9  1 -1</clus>
<clus scale="   29.267">  1 10  2 -1</clus>
<clus scale="   92.857">  5  6 -1 -1</clus>
<clus scale="   93.116">  7  8 -1 -1</clus>
<clus scale="  126.238">  1  5  2 -1</clus>
<clus scale="   29.267">  1  5  2 -1</clus>
</clustering>
</event>
<event>
10    2  0.1133532E-006  0.1155175E+03  0.7546771E-02  0.1251010E+00
          1   -1    0    0  503    0  0.00000000000E+00  0.00000000000E+00  0.61897992934E+02  0.61897992934E+02  0.00000000000E+00 0. -1.
         -1   -1    0    0    0  501 -0.00000000000E+00 -0.00000000000E+00 -0.76278428133E+03  0.76278428133E+03  0.00000000000E+00 0.  1.
         23    2    1    2    0    0  0.40035642813E+02  0.33648978003E+02 -0.29417717208E+03  0.31222318211E+03  0.90598015749E+02 0.  0.
         23    2    1    2    0    0 -0.46999279746E+02 -0.65878724022E+02 -0.10422952233E+03  0.16060805518E+03  0.91554440014E+02 0.  0.
        -11    1    3    3    0    0  0.36585621228E+02 -0.21433545780E+02 -0.18610423070E+03  0.19087349017E+03  0.00000000000E+00 0. -1.
         11    1    3    3    0    0  0.34500215849E+01  0.55082523783E+02 -0.10807294138E+03  0.12134969194E+03  0.00000000000E+00 0.  1.
        -13    1    4    4    0    0 -0.21257345215E+02 -0.83679369046E+02 -0.94114248616E+02  0.12771688738E+03  0.00000000000E+00 0.  1.
         13    1    4    4    0    0 -0.25741934532E+02  0.17800645023E+02 -0.10115273718E+02  0.32891167797E+02  0.00000000000E+00 0. -1.
         21    1    1    2  502  501  0.46210687359E+02 -0.12407721157E+02 -0.28627224223E+03  0.29024330456E+03  0.00000000000E+00 0.  1.
         21    1    1    2  503  502 -0.39247050425E+02  0.44637467177E+02 -0.16207351754E+02  0.61607732420E+02  0.00000000000E+00 0. -1.
<scales pt_clust_5="13000.00000" pt_clust_6="13000.00000" pt_clust_7="13000.00000" pt_clust_8="13000.00000" pt_clust_9="47.84746" pt_clust_10="56.21383"></scales>
<clustering>
<clus scale="   47.847">  2  9  1 -1</clus>
<clus scale="   56.214">  1 10  2 -1</clus>
<clus scale="   90.598">  5  6 -1 -1</clus>
<clus scale="   91.554">  7  8 -1 -1</clus>
<clus scale="  114.761">  2  5  1 -1</clus>
<clus scale="   56.214">  1  5  2 -1</clus>
</clustering>
</event>
<event>
10    2  0.1133532E-006  0.1040198E+03  0.7546771E-02  0.1272865E+00
         -3   -1    0    0    0  501 -0.00000000000E+00  0.00000000000E+00  0.16936790716E+03  0.16936790716E+03  0.00000000000E+00 0.  1.
          3   -1    0    0  503    0  0.00000000000E+00 -0.00000000000E+00 -0.58872940509E+03  0.58872940509E+03  0.00000000000E+00 0. -1.
         23    2    1    2    0    0  0.28568934578E+02 -0.38822557972E+02  0.19608086888E+02  0.10721406429E+03  0.93739017917E+02 0.  0.
         23    2    1    2    0    0  0.31822349476E+02  0.28575809635E+02 -0.34961079402E+03  0.36402554755E+03  0.91965499766E+02 0.  0.
        -11    1    3    3    0    0  0.23603665476E+02  0.58551026162E+01  0.48165951097E+02  0.53957150552E+02  0.00000000000E+00 0.  1.
         11    1    3    3    0    0  0.49652691018E+01 -0.44677660588E+02 -0.28557864210E+02  0.53256913740E+02  0.00000000000E+00 0. -1.
        -13    1    4    4    0    0  0.31933621020E+02 -0.25503986783E+02 -0.21694072977E+03  0.22075663008E+03  0.00000000000E+00 0.  1.
         13    1    4    4    0    0 -0.11127154466E+00  0.54079796418E+02 -0.13267006426E+03  0.14326891746E+03  0.00000000000E+00 0. -1.
         21    1    1    2  502  501 -0.23189051130E+02 -0.96846827579E+01  0.94722879130E+02  0.97999739811E+02  0.00000000000E+00 0.  1.
         21    1    1    2  503  502 -0.37202232924E+02  0.19931431094E+02 -0.18408166993E+03  0.18885796060E+03  0.00000000000E+00 0. -1.
<scales pt_clust_5="13000.00000" pt_clust_6="13000.00000" pt_clust_7="13000.00000" pt_clust_8="13000.00000" pt_clust_9="25.13016" pt_clust_10="42.72885"></scales>
<clustering>
<clus scale="   25.130">  1  9  2 -1</clus>
<clus scale="   42.729">  2 10  1 -1</clus>
<clus scale="   91.965">  7  8 -1 -1</clus>
<clus scale="   93.739">  5  6 -1 -1</clus>
<clus scale="  102.424">  2  7  1 -1</clus>
<clus scale="   42.729">  2  5  1 -1</clus>
</clustering>
</event>
<event>
10    2  0.1133532E-006  0.1151995E+03  0.7546771E-02  0.1251375E+00
          2   -1    0    0  503    0  0.00000000000E+00  0.00000000000E+00  0.15519232559E+03  0.15519232559E+03  0.00000000000E+00 0. -1.
         -2   -1    0    0    0  501 -0.00000000000E+00 -0.00000000000E+00 -0.44974294732E+03  0.44974294732E+03  0.00000000000E+00 0.  1.
         23    2    1    2    0    0  0.24398184540E+02  0.69325457822E+02 -0.96885454004E+02  0.15199435034E+03  0.91182239642E+02 0.  0.
         23    2    1    2    0    0 -0.91978083157E+02 -0.22389941903E+02 -0.58373327079E+02  0.14407490924E+03  0.91590703016E+02 0.  0.
        -11    1    4    4    0    0 -0.34046782706E+02 -0.51483160969E+02 -0.48506303796E+02  0.78501979491E+02  0.00000000000E+00 0.  1.
         11    1    4    4    0    0 -0.57931300451E+02  0.29093219067E+02 -0.98670232828E+01  0.65572929751E+02  0.00000000000E+00 0. -1.
        -13    1    3    3    0    0  0.24786622468E+02 -0.12797727355E+02 -0.50456932457E+02  0.57654666002E+02  0.00000000000E+00 0.  1.
         13    1    3    3    0    0 -0.38843792835E+00  0.82123185177E+02 -0.46428521547E+02  0.94339684336E+02  0.00000000000E+00 0. -1.
         21    1    1    2  502  501 -0.24501047534E+02  0.62281929075E+01 -0.18957232080E+03  0.19125050727E+03  0.00000000000E+00 0.  1.
         21    1    1    2  503  502  0.92080946152E+02 -0.53163708827E+02  0.50280480150E+02  0.11761550606E+03  0.00000000000E+00 0.  1.
<scales pt_clust_5="13000.00000" pt_clust_6="13000.00000" pt_clust_7="13000.00000" pt_clust_8="13000.00000" pt_clust_9="25.28026" pt_clust_10="103.17117"></scales>
<clustering>
<clus scale="   25.280">  2  9  1 -1</clus>
<clus scale="   91.182">  7  8 -1 -1</clus>
<clus scale="   91.591">  5  6 -1 -1</clus>
<clus scale="  103.171">  1 10  2 -1</clus>
<clus scale="  114.875">  2  7  1 -1</clus>
<clus scale="  103.171">  1  5  2 -1</clus>
</clustering>
</event>
<event>
10    2  0.1133532E-006  0.1648399E+03  0.7546771E-02  0.1183723E+00
         -3   -1    0    0    0  501 -0.00000000000E+00  0.00000000000E+00  0.48416663644E+03  0.48416663644E+03  0.00000000000E+00 0.  1.
          3   -1    0    0  503    0  0.00000000000E+00 -0.00000000000E+00 -0.29568443317E+03  0.29568443317E+03  0.00000000000E+00 0. -1.
         23    2    1    2    0    0 -0.10861375939E+03 -0.11504652841E+02  0.31347223126E+03  0.34477110738E+03  0.93128786887E+02 0.  0.
         23    2    1    2    0    0  0.14119677691E+03  0.10792105404E+02 -0.47310890598E+02  0.17464598494E+03  0.90608500351E+02 0.  0.
        -11    1    4    4    0    0  0.61372359587E+02 -0.30803127829E+01  0.24720070660E+02  0.66235464380E+02  0.00000000000E+00 0.  1.
         11    1    4    4    0    0  0.79824417323E+02  0.13872418187E+02 -0.72030961258E+02  0.10841052056E+03  0.00000000000E+00 0. -1.
        -11    1    3    3    0    0 -0.65206801482E+02  0.21719533446E+02  0.25758181961E+03  0.26659343369E+03  0.00000000000E+00 0.  1.
         11    1    3    3    0    0 -0.43406957909E+02 -0.33224186287E+02  0.55890411649E+02  0.78177673691E+02  0.00000000000E+00 0. -1.
         21    1    1    2  502  501 -0.32670913674E+02  0.25333499012E+02  0.85731391918E+02  0.95179022545E+02  0.00000000000E+00 0.  1.
         21    1    1    2  503  502  0.87896154791E-01 -0.24620951574E+02 -0.16341052930E+03  0.16525495475E+03  0.00000000000E+00 0.  1.
<scales pt_clust_5="13000.00000" pt_clust_6="13000.00000" pt_clust_7="13000.00000" pt_clust_8="13000.00000" pt_clust_9="40.80306" pt_clust_10="24.62111"></scales>
<clustering>
<clus scale="   24.621">  2 10  1 -1</clus>
<clus scale="   40.803">  1  9  2 -1</clus>
<clus scale="   90.609">  5  6 -1 -1</clus>
<clus scale="   93.129">  7  8 -1 -1</clus>
<clus scale="  163.429">  2  5  1 -1</clus>
<clus scale="   24.621">  2  5  1 -1</clus>
</clustering>
</event>
<event>
10    2  0.1133532E-006  0.1471140E+03  0.7546771E-02  0.1204737E+00
         -1   -1    0    0    0  501 -0.00000000000E+00  0.00000000000E+00  0.36329175418E+03  0.36329175418E+03  0.00000000000E+00 0.  1.
          1   -1    0    0  503    0  0.00000000000E+00 -0.00000000000E+00 -0.30212742740E+03  0.30212742740E+03  0.00000000000E+00 0. -1.
         23    2    1    2    0    0  0.13663488161E+03 -0.79071010561E+02 -0.75464988520E+01  0.18248324909E+03  0.91224289363E+02 0.  0.
         23    2    1    2    0    0 -0.42945164850E+02  0.70480417385E+02  0.12781081926E+02  0.12615445706E+03  0.94550592605E+02 0.  0.
        -11    1    4    4    0    0 -0.70422216572E+02  0.51834517583E+02  0.24716848393E+02  0.90868192424E+02  0.00000000000E+00 0.  1.
         11    1    4    4    0    0  0.27477051722E+02  0.18645899801E+02 -0.11935766467E+02  0.35286264635E+02  0.00000000000E+00 0. -1.
        -11    1    3    3    0    0  0.96000010816E+02 -0.20380391578E+02  0.28935683668E+02  0.10231635366E+03  0.00000000000E+00 0. -1.
         11    1    3    3    0    0  0.40634870797E+02 -0.58690618983E+02 -0.36482182520E+02  0.80166895429E+02  0.00000000000E+00 0.  1.
         21    1    1    2  502  501 -0.78493443512E+02  0.22853601601E+02  0.19746536645E+03  0.21371962644E+03  0.00000000000E+00 0.  1.
         21    1    1    2  503  502 -0.15196273252E+02 -0.14263008425E+02 -0.14153562275E+03  0.14306184899E+03  0.00000000000E+00 0. -1.
<scales pt_clust_5="13000.00000" pt_clust_6="13000.00000" pt_clust_7="13000.00000" pt_clust_8="13000.00000" pt_clust_9="82.29695" pt_clust_10="20.84131"></scales>
<clustering>
<clus scale="   20.841">  2 10  1 -1</clus>
<clus scale="   82.297">  1  9  2 -1</clus>
<clus scale="   91.224">  7  8 -1 -1</clus>
<clus scale="   94.551">  5  6 -1 -1</clus>
<clus scale="  144.999">  1  7  2 -1</clus>
<clus scale="   20.841">  2  5  1 -1</clus>
</clustering>
</event>
<event>
10    2  0.1133532E-006  0.1648575E+03  0.7546771E-02  0.1183348E+00
         -1   -1    0    0    0  501 -0.00000000000E+00  0.00000000000E+00  0.28749960323E+03  0.28749960323E+03  0.00000000000E+00 0.  1.
          1   -1    0    0  503    0  0.00000000000E+00 -0.00000000000E+00 -0.70422363794E+03  0.70422363794E+03  0.00000000000E+00 0. -1.
         23    2    1    2    0    0 -0.29610123098E+02  0.73880324323E+02  0.18031295429E+03  0.21694123457E+03  0.90640366622E+02 0.  0.
         23    2    1    2    0    0 -0.60707108390E+02 -0.12329791072E+03 -0.51393871024E+03  0.53969494263E+03  0.90828989962E+02 0.  0.
        -11    1    4    4    0    0  0.15852360228E+02 -0.21370297607E+02 -0.34332579353E+02  0.43436309117E+02  0.00000000000E+00 0.  1.
         11    1    4    4    0    0 -0.76559468618E+02 -0.10192761311E+03 -0.47960613088E+03  0.49625863351E+03  0.00000000000E+00 0. -1.
        -13    1    3    3    0    0 -0.58245658850E+02  0.49705808032E+02  0.15121017878E+03  0.16949260247E+03  0.00000000000E+00 0.  1.
         13    1    3    3    0    0  0.28635535752E+02  0.24174516291E+02  0.29102775514E+02  0.47448632102E+02  0.00000000000E+00 0. -1.
         21    1    1    2  502  501  0.23620926309E+02  0.73233609955E+02  0.44691015994E+02  0.88985373503E+02  0.00000000000E+00 0.  1.
         21    1    1    2  503  502  0.66696305179E+02 -0.23816023559E+02 -0.12778929475E+03  0.14610169046E+03  0.00000000000E+00 0.  1.
<scales pt_clust_5="13000.00000" pt_clust_6="13000.00000" pt_clust_7="13000.00000" pt_clust_8="13000.00000" pt_clust_9="76.91282" pt_clust_10="70.82090"></scales>
<clustering>
<clus scale="   70.821">  2 10  1 -1</clus>
<clus scale="   76.913">  1  9  2 -1</clus>
<clus scale="   90.640">  7  8 -1 -1</clus>
<clus scale="   90.829">  5  6 -1 -1</clus>
<clus scale="  164.754">  1  7  2 -1</clus>
<clus scale="   70.821">  2  5  1 -1</clus>
</clustering>
</event>
<event>
10    2  0.1133532E-006  0.1208176E+03  0.7546771E-02  0.1251142E+00
          3   -1    0    0  503    0  0.00000000000E+00  0.00000000000E+00  0.43653082182E+03  0.43653082182E+03  0.00000000000E+00 0. -1.
         -3   -1    0    0    0  501 -0.00000000000E+00 -0.00000000000E+00 -0.14170193963E+03  0.14170193963E+03  0.00000000000E+00 0.  1.
         23    2    1    2    0    0 -0.63610091823E+01 -0.90982557609E+02  0.17095553890E+03  0.21444164647E+03  0.91875650934E+02 0.  0.
         23    2    1    2    0    0 -0.37575599729E+02  0.66051531998E+02  0.15785005099E+03  0.18586204796E+03  0.62075210029E+02 0.  0.
        -11    1    3    3    0    0 -0.40506673298E+02 -0.37446328936E+02  0.37656078679E+02  0.66790705895E+02  0.00000000000E+00 0. -1.
         11    1    3    3    0    0  0.34145664116E+02 -0.53536228673E+02  0.13329946022E+03  0.14765094058E+03  0.00000000000E+00 0.  1.
        -11    1    4    4    0    0  0.87340574517E+01  0.45922368561E+02  0.63513675070E+02  0.78861490062E+02  0.00000000000E+00 0.  1.
         11    1    4    4    0    0 -0.46309657181E+02  0.20129163437E+02  0.94336375923E+02  0.10700055790E+03  0.00000000000E+00 0. -1.
         21    1    1    2  502  501  0.17621481504E+02  0.19917767046E+02 -0.10168972163E+03  0.10510962629E+03  0.00000000000E+00 0.  1.
         21    1    1    2  503  502  0.26315127407E+02  0.50132585647E+01  0.67713013932E+02  0.72819440726E+02  0.00000000000E+00 0.  1.
<scales pt_clust_5="13000.00000" pt_clust_6="13000.00000" pt_clust_7="13000.00000" pt_clust_8="13000.00000" pt_clust_9="26.59387" pt_clust_10="28.21162"></scales>
<clustering>
<clus scale="   26.594">  2  9  1 -1</clus>
<clus scale="   28.212">  1 10  2 -1</clus>
<clus scale="   62.075">  7  8 -1 -1</clus>
<clus scale="   91.876">  5  6 -1 -1</clus>
<clus scale="  100.045">  1  7  2 -1</clus>
<clus scale="   28.212">  1  5  2 -1</clus>
</clustering>
</event>
<event>
10    2  0.1133532E-006  0.1075332E+03  0.7546771E-02  0.1265546E+00
         -2   -1    0    0    0  501 -0.00000000000E+00  0.00000000000E+00  0.33481590838E+02  0.33481590838E+02  0.00000000000E+00 0.  1.
          2   -1    0    0  503    0  0.00000000000E+00 -0.00000000000E+00 -0.89790077538E+03  0.89790077538E+03  0.00000000000E+00 0. -1.
         23    2    1    2    0    0 -0.63024876612E+02 -0.23568651654E+02 -0.17205484079E+03  0.20550862375E+03  0.90018385801E+02 0.  0.
         23    2    1    2    0    0  0.50912933155E+02  0.33752275360E+02 -0.26997074117E+03  0.29132543311E+03  0.90856832648E+02 0.  0.
        -11    1    3    3    0    0 -0.64315544041E+02  0.19566251310E+02 -0.12300888361E+03  0.14018028693E+03  0.00000000000E+00 0. -1.
         11    1    3    3    0    0  0.12906674289E+01 -0.43134902963E+02 -0.49045957183E+02  0.65328336823E+02  0.00000000000E+00 0.  1.
        -13    1    4    4    0    0 -0.98711041528E+01  0.41154347200E+02 -0.66363344694E+02  0.78709672275E+02  0.00000000000E+00 0. -1.
         13    1    4    4    0    0  0.60784037308E+02 -0.74020718403E+01 -0.20360739647E+03  0.21261576084E+03  0.00000000000E+00 0.  1.
         21    1    1    2  502  501  0.21097868336E+02  0.31924062326E+02 -0.72161033425E+02  0.81679131660E+02  0.00000000000E+00 0.  1.
         21    1    1    2  503  502 -0.89859248788E+01 -0.42107686032E+02 -0.35023256915E+03  0.35286917769E+03  0.00000000000E+00 0. -1.
<scales pt_clust_5="13000.00000" pt_clust_6="13000.00000" pt_clust_7="13000.00000" pt_clust_8="13000.00000" pt_clust_9="38.26573" pt_clust_10="41.42571"></scales>
<clustering>
<clus scale="   38.266">  1  9  2 -1</clus>
<clus scale="   41.426">  2 10  1 -1</clus>
<clus scale="   90.018">  5  6 -1 -1</clus>
<clus scale="   90.857">  7  8 -1 -1</clus>
<clus scale="  106.826">  1  5  2 -1</clus>
<clus scale="   41.426">  2  5  1 -1</clus>
</clustering>
</event>
<event>
10    2  0.1133532E-006  0.1280502E+03  0.7546771E-02  0.1230391E+00
         -1   -1    0    0    0  501 -0.00000000000E+00  0.00000000000E+00  0.20597663404E+03  0.20597663404E+03  0.00000000000E+00 0.  1.
          1   -1    0    0  503    0  0.00000000000E+00 -0.00000000000E+00 -0.48534841593E+03  0.48534841593E+03  0.00000000000E+00 0. -1.
         23    2    1    2    0    0 -0.56913121728E+01 -0.12523633376E+03  0.10633670467E+03  0.18772784780E+03  0.90651639541E+02 0.  0.
         23    2    1    2    0    0 -0.13314186718E+01  0.14479245379E+02 -0.16415191792E+03  0.18805949073E+03  0.90604076471E+02 0.  0.
        -13    1    4    4    0    0 -0.27297546807E+02 -0.85706312855E+01 -0.14619804748E+03  0.14897140957E+03  0.00000000000E+00 0.  1.
         13    1    4    4    0    0  0.25966128135E+02  0.23049876665E+02 -0.17953870437E+02  0.39088081153E+02  0.00000000000E+00 0. -1.
        -13    1    3    3    0    0 -0.29620582117E+02 -0.14462236747E+02  0.95908139677E+00  0.32976582810E+02  0.00000000000E+00 0. -1.
         13    1    3    3    0    0  0.23929269944E+02 -0.11077409702E+03  0.10537762328E+03  0.15475126499E+03  0.00000000000E+00 0.  1.
         21    1    1    2  502  501 -0.22479204259E+01  0.22632300614E+02  0.36324569359E+02  0.42857304120E+02  0.00000000000E+00 0.  1.
         21    1    1    2  503  502  0.92706512705E+01  0.88124787770E+02 -0.25788113801E+03  0.27268040732E+03  0.00000000000E+00 0. -1.
<scales pt_clust_5="13000.00000" pt_clust_6="13000.00000" pt_clust_7="13000.00000" pt_clust_8="13000.00000" pt_clust_9="22.74366" pt_clust_10="89.60185"></scales>
<clustering>
<clus scale="   22.744">  1  9  2 -1</clus>
<clus scale="   89.602">  2 10  1 -1</clus>
<clus scale="   90.604">  5  6 -1 -1</clus>
<clus scale="   90.652">  7  8 -1 -1</clus>
<clus scale="  128.017">  2  5  1 -1</clus>
<clus scale="   89.602">  2  5  1 -1</clus>
</clustering>
</event>
<event>
10    2  0.1133532E-006  0.1040460E+03  0.7546771E-02  0.1273627E+00
          2   -1    0    0  503    0  0.00000000000E+00  0.00000000000E+00  0.93488132556E+02  0.93488132556E+02  0.00000000000E+00 0. -1.
         -2   -1    0    0    0  501 -0.00000000000E+00 -0.00000000000E+00 -0.50235799162E+03  0.50235799162E+03  0.00000000000E+00 0.  1.
         23    2    1    2    0    0  0.51310957296E+02  0.21745140436E+02 -0.19297671510E+03  0.21922361942E+03  0.87825493262E+02 0.  0.
         23    2    1    2    0    0 -0.79474997090E+01 -0.57846998764E+02 -0.14546992943E+03  0.18148617609E+03  0.91467446263E+02 0.  0.
        -11    1    3    3    0    0  0.64882347039E+02 -0.13101419469E+02 -0.13261842014E+03  0.14821947075E+03  0.00000000000E+00 0. -1.
         11    1    3    3    0    0 -0.13571389743E+02  0.34846559905E+02 -0.60358294965E+02  0.71004148666E+02  0.00000000000E+00 0.  1.
        -11    1    4    4    0    0  0.39456069361E+02 -0.18024640332E+02 -0.39039678066E+02  0.58358937036E+02  0.00000000000E+00 0. -1.
         11    1    4    4    0    0 -0.47403569070E+02 -0.39822358432E+02 -0.10643025137E+03  0.12312723906E+03  0.00000000000E+00 0.  1.
         21    1    1    2  502  501 -0.21169465796E+02  0.17614274973E+02 -0.12788835305E+03  0.13081987544E+03  0.00000000000E+00 0. -1.
         21    1    1    2  503  502 -0.22193991790E+02  0.18487583355E+02  0.57465138523E+02  0.64316453225E+02  0.00000000000E+00 0. -1.
<scales pt_clust_5="13000.00000" pt_clust_6="13000.00000" pt_clust_7="13000.00000" pt_clust_8="13000.00000" pt_clust_9="27.53923" pt_clust_10="29.13828"></scales>
<clustering>
<clus scale="   27.539">  2  9  1 -1</clus>
<clus scale="   29.138">  1 10  2 -1</clus>
<clus scale="   87.825">  5  6 -1 -1</clus>
<clus scale="   91.467">  7  8 -1 -1</clus>
<clus scale="  100.859">  2  5  1 -1</clus>
<clus scale="   29.138">  1  5  2 -1</clus>
</clustering>
</event>
<event>
10    2  0.1133532E-006  0.1526480E+03  0.7546771E-02  0.1199865E+00
         -1   -1    0    0    0  501 -0.00000000000E+00  0.00000000000E+00  0.16509309118E+03  0.16509309118E+03  0.00000000000E+00 0.  1.
          1   -1    0    0  503    0  0.00000000000E+00 -0.00000000000E+00 -0.59213710388E+03  0.59213710388E+03  0.00000000000E+00 0. -1.
         23    2    1    2    0    0 -0.12106363813E+03 -0.14243800069E+01 -0.45573110069E+02  0.16602278788E+03  0.10405875455E+03 0.  0.
         23    2    1    2    0    0  0.97770442878E+02 -0.55771722030E+02 -0.43457645196E+03  0.45809673717E+03  0.91249019361E+02 0.  0.
        -11    1    4    4    0    0  0.90918378808E+02 -0.75709763680E+02 -0.40391507089E+03  0.42088656953E+03  0.00000000000E+00 0. -1.
         11    1    4    4    0    0  0.68520640700E+01  0.19938041650E+02 -0.30661381069E+02  0.37210167642E+02  0.00000000000E+00 0.  1.
        -11    1    3    3    0    0 -0.63891127663E+02 -0.37103588432E+02 -0.62234384380E+02  0.96601610068E+02  0.00000000000E+00 0. -1.
         11    1    3    3    0    0 -0.57172510467E+02  0.35679208425E+02  0.16661274311E+02  0.69421177810E+02  0.00000000000E+00 0.  1.
         21    1    1    2  502  501 -0.10320188586E+02  0.25929176538E+02  0.76610923181E+02  0.81535648885E+02  0.00000000000E+00 0. -1.
         21    1    1    2  503  502  0.33613383837E+02  0.31266925499E+02 -0.23505373854E+02  0.51575021116E+02  0.00000000000E+00 0.  1.
<scales pt_clust_5="13000.00000" pt_clust_6="13000.00000" pt_clust_7="13000.00000" pt_clust_8="13000.00000" pt_clust_9="27.90750" pt_clust_10="47.74482"></scales>
<clustering>
<clus scale="   27.907">  1  9  2 -1</clus>
<clus scale="   47.745">  1 10  2 -1</clus>
<clus scale="   91.249">  5  6 -1 -1</clus>
<clus scale="  104.059">  7  8 -1 -1</clus>
<clus scale="  144.221">  2  5  1 -1</clus>
<clus scale="  144.221">  2  5  1 -1</clus>
</clustering>
</event>
<event>
10    2  0.1133532E-006  0.2184809E+03  0.7546771E-02  0.1135048E+00
          1   -1    0    0  503    0  0.00000000000E+00  0.00000000000E+00  0.87691118669E+03  0.87691118669E+03  0.00000000000E+00 0. -1.
         -1   -1    0    0    0  501 -0.00000000000E+00 -0.00000000000E+00 -0.16271749270E+03  0.16271749270E+03  0.00000000000E+00 0.  1.
         23    2    1    2    0    0 -0.30232830968E+02 -0.26201461465E+03  0.95071012998E+02  0.29495675046E+03  0.91625895729E+02 0.  0.
         23    2    1    2    0    0 -0.44873373021E+02  0.16123713219E+03  0.31711962551E+03  0.37001130294E+03  0.91282391571E+02 0.  0.
        -11    1    4    4    0    0 -0.11106496062E+01  0.11769182803E+03  0.26211000621E+03  0.28732256313E+03  0.00000000000E+00 0. -1.
         11    1    4    4    0    0 -0.43762723415E+02  0.43545304158E+02  0.55009619308E+02  0.82688739810E+02  0.00000000000E+00 0.  1.
        -13    1    3    3    0    0 -0.60449606374E+02 -0.12429134527E+03  0.47855808544E+02  0.14626233908E+03  0.00000000000E+00 0.  1.
         13    1    3    3    0    0  0.30216775406E+02 -0.13772326938E+03  0.47215204454E+02  0.14869441138E+03  0.00000000000E+00 0. -1.
         21    1    1    2  502  501  0.58762419156E+02  0.69973326006E+02  0.23992808936E+02  0.94471917193E+02  0.00000000000E+00 0.  1.
         21    1    1    2  503  502  0.16343784833E+02  0.30804156455E+02  0.27801024654E+03  0.28018870880E+03  0.00000000000E+00 0. -1.
<scales pt_clust_5="13000.00000" pt_clust_6="13000.00000" pt_clust_7="13000.00000" pt_clust_8="13000.00000" pt_clust_9="94.75589" pt_clust_10="34.87141"></scales>
<clustering>
<clus scale="   34.871">  1 10  2 -1</clus>
<clus scale="   91.282">  5  6 -1 -1</clus>
<clus scale="   91.626">  7  8 -1 -1</clus>
<clus scale="   94.756">  2  9  1 -1</clus>
<clus scale="  218.337">  1  5  2 -1</clus>
<clus scale="   34.871">  1  5  2 -1</clus>
</clustering>
</event>
<event>
10    2  0.1133532E-006  0.1560585E+03  0.7546771E-02  0.1209468E+00
         -1   -1    0    0    0  501 -0.00000000000E+00  0.00000000000E+00  0.10147632790E+03  0.10147632790E+03  0.00000000000E+00 0.  1.
          1   -1    0    0  503    0  0.00000000000E+00 -0.00000000000E+00 -0.86050518911E+03  0.86050518911E+03  0.00000000000E+00 0. -1.
         23    2    1    2    0    0 -0.74210902334E+02  0.78230069794E+01 -0.42431241503E+02  0.12056283867E+03  0.84655362199E+02 0.  0.
         23    2    1    2    0    0 -0.25079966268E+02  0.98656023111E+02 -0.39468661694E+03  0.41868495152E+03  0.95695075320E+02 0.  0.
        -13    1    3    3    0    0 -0.23933916052E+02  0.18643293600E+02  0.22471785684E+02  0.37754283011E+02  0.00000000000E+00 0.  1.
         13    1    3    3    0    0 -0.50276986283E+02 -0.10820286620E+02 -0.64903027187E+02  0.82808555659E+02  0.00000000000E+00 0. -1.
        -13    1    4    4    0    0 -0.55083679206E+02  0.52861840001E+02 -0.15444581945E+03  0.17228492966E+03  0.00000000000E+00 0.  1.
         13    1    4    4    0    0  0.30003712939E+02  0.45794183110E+02 -0.24024079749E+03  0.24640002186E+03  0.00000000000E+00 0. -1.
         21    1    1    2  502  501  0.59255463802E+02 -0.13681145551E+03 -0.67938609897E+02  0.16384211627E+03  0.00000000000E+00 0.  1.
         21    1    1    2  503  502  0.40035404800E+02  0.30332425417E+02 -0.25397239288E+03  0.25889161055E+03  0.00000000000E+00 0.  1.
<scales pt_clust_5="13000.00000" pt_clust_6="13000.00000" pt_clust_7="13000.00000" pt_clust_8="13000.00000" pt_clust_9="123.27491" pt_clust_10="50.22838"></scales>
<clustering>
<clus scale="   50.228">  2 10  1 -1</clus>
<clus scale="   84.655">  5  6 -1 -1</clus>
<clus scale="   95.695">  7  8 -1 -1</clus>
<clus scale="  109.742">  1  5  2 -1</clus>
<clus scale="  123.275">  1  9  2 -1</clus>
<clus scale="   50.228">  2  5  1 -1</clus>
</clustering>
</event>
<event>
10    2  0.1133532E-006  0.1136105E+03  0.7546771E-02  0.1256565E+00
          1   -1    0    0  503    0  0.00000000000E+00  0.00000000000E+00  0.98917006852E+02  0.98917006852E+02  0.00000000000E+00 0. -1.
         -1   -1    0    0    0  501 -0.00000000000E+00 -0.00000000000E+00 -0.38029241717E+03  0.38029241717E+03  0.00000000000E+00 0.  1.
         23    2    1    2    0    0 -0.27499173494E+02  0.67495443458E+02 -0.20110886077E+03  0.23272249344E+03  0.91668673179E+02 0.  0.
         23    2    1    2    0    0  0.26751616708E+02 -0.23072256557E+02  0.17386456585E+02  0.10577552694E+03  0.98174310320E+02 0.  0.
        -11    1    4    4    0    0 -0.25633293417E+01  0.32193344024E+02  0.27483600816E+02  0.42406725535E+02  0.00000000000E+00 0.  1.
         11    1    4    4    0    0  0.29314946050E+02 -0.55265600581E+02 -0.10097144231E+02  0.63368801401E+02  0.00000000000E+00 0. -1.
        -13    1    3    3    0    0 -0.52485563080E+02  0.12936258725E+02 -0.12190947587E+03  0.13335666998E+03  0.00000000000E+00 0.  1.
         13    1    3    3    0    0  0.24986389586E+02  0.54559184733E+02 -0.79199384906E+02  0.99365823464E+02  0.00000000000E+00 0. -1.
         21    1    1    2  502  501 -0.13238739876E+02 -0.22360888489E+02 -0.10912856465E+03  0.11217984306E+03  0.00000000000E+00 0.  1.
         21    1    1    2  503  502  0.13986296662E+02 -0.22062298412E+02  0.11475558522E+02  0.28531560576E+02  0.00000000000E+00 0. -1.
<scales pt_clust_5="13000.00000" pt_clust_6="13000.00000" pt_clust_7="13000.00000" pt_clust_8="13000.00000" pt_clust_9="25.98603" pt_clust_10="26.50529"></scales>
<clustering>
<clus scale="   25.986">  2  9  1 -1</clus>
<clus scale="   26.505">  1 10  2 -1</clus>
<clus scale="   91.669">  7  8 -1 -1</clus>
<clus scale="   98.174">  5  6 -1 -1</clus>
<clus scale="  108.038">  2  7  1 -1</clus>
<clus scale="   26.505">  1  5  2 -1</clus>
</clustering>
</event>
<event>
10    2  0.1133532E-006  0.1106559E+03  0.7546771E-02  0.1261312E+00
         -2   -1    0    0    0  501 -0.00000000000E+00  0.00000000000E+00  0.22209970251E+03  0.22209970251E+03  0.00000000000E+00 0.  1.
          2   -1    0    0  503    0  0.00000000000E+00 -0.00000000000E+00 -0.51465304820E+03  0.51465304820E+03  0.00000000000E+00 0. -1.
         23    2    1    2    0    0  0.52473430475E+02  0.61907280484E+02 -0.52275232694E+02  0.12964827018E+03  0.86544796064E+02 0.  0.
         23    2    1    2    0    0 -0.46208480988E+02 -0.20225302142E+02 -0.27401839947E+03  0.29329919864E+03  0.91619048827E+02 0.  0.
        -11    1    3    3    0    0  0.26680262894E+02 -0.19230118105E+02 -0.20606831982E+02  0.38810763903E+02  0.00000000000E+00 0.  1.
         11    1    3    3    0    0  0.25793167582E+02  0.81137398589E+02 -0.31668400712E+02  0.90837506281E+02  0.00000000000E+00 0. -1.
        -13    1    4    4    0    0 -0.65487273155E+02  0.10370643088E+02 -0.20382287389E+03  0.21433594450E+03  0.00000000000E+00 0.  1.
         13    1    4    4    0    0  0.19278792166E+02 -0.30595945230E+02 -0.70195525585E+02  0.78963254138E+02  0.00000000000E+00 0. -1.
         21    1    1    2  502  501 -0.54029101397E+02  0.91000503549E+01  0.16025034011E+03  0.16935798245E+03  0.00000000000E+00 0.  1.
         21    1    1    2  503  502  0.47764151910E+02 -0.50782028697E+02 -0.12651005363E+03  0.14444729944E+03  0.00000000000E+00 0. -1.
<scales pt_clust_5="13000.00000" pt_clust_6="13000.00000" pt_clust_7="13000.00000" pt_clust_8="13000.00000" pt_clust_9="54.79010" pt_clust_10="63.09673"></scales>
<clustering>
<clus scale="   54.790">  1  9  2 -1</clus>
<clus scale="   63.097">  2 10  1 -1</clus>
<clus scale="   86.545">  5  6 -1 -1</clus>
<clus scale="   91.619">  7  8 -1 -1</clus>
<clus scale="  106.493">  1  5  2 -1</clus>
<clus scale="   63.097">  2  5  1 -1</clus>
</clustering>
</event>
<event>
10    2  0.1133532E-006  0.1148103E+03  0.7546771E-02  0.1254285E+00
          1   -1    0    0  503    0  0.00000000000E+00  0.00000000000E+00  0.28629171628E+03  0.28629171628E+03  0.00000000000E+00 0. -1.
         -1   -1    0    0    0  501 -0.00000000000E+00 -0.00000000000E+00 -0.16361601009E+03  0.16361601009E+03  0.00000000000E+00 0.  1.
         23    2    1    2    0    0  0.39680603251E+02 -0.84180042024E+02 -0.39103071819E+02  0.14136326189E+03  0.98963083199E+02 0.  0.
         23    2    1    2    0    0  0.23446880480E+02  0.35254898816E+02  0.16143065160E+02  0.10324910801E+03  0.92774542070E+02 0.  0.
        -11    1    4    4    0    0  0.44654552866E+02  0.51613711702E+02 -0.59785320854E+01  0.68510927400E+02  0.00000000000E+00 0. -1.
         11    1    4    4    0    0 -0.21207672386E+02 -0.16358812886E+02  0.22121597246E+02  0.34738180605E+02  0.00000000000E+00 0.  1.
        -13    1    3    3    0    0  0.46311158305E+02 -0.40103145137E+02  0.22554622685E+02  0.65281671531E+02  0.00000000000E+00 0. -1.
         13    1    3    3    0    0 -0.66305550546E+01 -0.44076896887E+02 -0.61657694504E+02  0.76081590356E+02  0.00000000000E+00 0.  1.
         21    1    1    2  502  501 -0.98001173451E+01  0.25998125825E+02 -0.17026647658E+02  0.32586064151E+02  0.00000000000E+00 0. -1.
         21    1    1    2  503  502 -0.53327366385E+02  0.22927017383E+02  0.16266236050E+03  0.17270929233E+03  0.00000000000E+00 0. -1.
<scales pt_clust_5="13000.00000" pt_clust_6="13000.00000" pt_clust_7="13000.00000" pt_clust_8="13000.00000" pt_clust_9="27.78390" pt_clust_10="58.74892"></scales>
<clustering>
<clus scale="   27.784">  2  9  1 -1</clus>
<clus scale="   58.749">  1 10  2 -1</clus>
<clus scale="   92.775">  5  6 -1 -1</clus>
<clus scale="   98.963">  7  8 -1 -1</clus>
<clus scale="  109.521">  1  5  2 -1</clus>
<clus scale="   58.749">  1  5  2 -1</clus>
</clustering>
</event>
<event>
10    2  0.1133532E-006  0.1352887E+03  0.7546771E-02  0.1220450E+00
          2   -1    0    0  503    0  0.00000000000E+00  0.00000000000E+00  0.74677714480E+03  0.74677714480E+03  0.00000000000E+00 0. -1.
         -2   -1    0    0    0  501 -0.00000000000E+00 -0.00000000000E+00 -0.90454116924E+02  0.90454116924E+02  0.00000000000E+00 0.  1.
         23    2    1    2    0    0  0.30901603266E+02  0.77794592848E+02  0.15958210158E+03  0.20173809782E+03  0.90691263125E+02 0.  0.
         23    2    1    2    0    0 -0.11706625954E+03 -0.31929028551E+02  0.45010123074E+03  0.47541923460E+03  0.93318587283E+02 0.  0.
        -11    1    4    4    0    0 -0.15810556581E+02  0.24620770578E+02  0.42206133224E+02  0.51356730084E+02  0.00000000000E+00 0.  1.
         11    1    4    4    0    0 -0.10125570296E+03 -0.56549799129E+02  0.40789509751E+03  0.42406250452E+03  0.00000000000E+00 0. -1.
        -13    1    3    3    0    0 -0.15874401959E+02  0.63147858293E+02  0.12747896923E+03  0.14314515793E+03  0.00000000000E+00 0. -1.
         13    1    3    3    0    0  0.46776005225E+02  0.14646734556E+02  0.32103132354E+02  0.58592939890E+02  0.00000000000E+00 0.  1.
         21    1    1    2  502  501  0.16877577583E+02 -0.39708180602E+02 -0.33010203183E+02  0.54325553343E+02  0.00000000000E+00 0.  1.
         21    1    1    2  503  502  0.69287078692E+02 -0.61573836944E+01  0.79649898744E+02  0.10574837596E+03  0.00000000000E+00 0.  1.
<scales pt_clust_5="13000.00000" pt_clust_6="13000.00000" pt_clust_7="13000.00000" pt_clust_8="13000.00000" pt_clust_9="43.14617" pt_clust_10="75.97456"></scales>
<clustering>
<clus scale="   43.146">  2  9  1 -1</clus>
<clus scale="   75.975">  2 10  1 -1</clus>
<clus scale="   90.691">  7  8 -1 -1</clus>
<clus scale="   93.319">  5  6 -1 -1</clus>
<clus scale="  133.490">  2  7  1 -1</clus>
<clus scale="  135.289">  1  5  2 -1</clus>
</clustering>
</event>
<event>
10    2  0.1133532E-006  0.1254040E+03  0.7546771E-02  0.1236067E+00
          1   -1    0    0  503    0  0.00000000000E+00  0.00000000000E+00  0.49917804570E+02  0.49917804570E+02  0.00000000000E+00 0. -1.
         -1   -1    0    0    0  501 -0.00000000000E+00 -0.00000000000E+00 -0.58822350102E+03  0.58822350102E+03  0.00000000000E+00 0.  1.
         23    2    1    2    0    0 -0.55684305384E+00  0.61769727345E+02 -0.25896370442E+03  0.27968537596E+03  0.85708226145E+02 0.  0.
         23    2    1    2    0    0 -0.16204038458E+01 -0.11472749722E+03 -0.21731803595E+03  0.26220621035E+03  0.91432727544E+02 0.  0.
        -11    1    4    4    0    0 -0.20162440486E+02 -0.22159926637E+02 -0.57168455740E+01  0.30500306199E+02  0.00000000000E+00 0.  1.
         11    1    4    4    0    0  0.18542036640E+02 -0.92567570584E+02 -0.21160119038E+03  0.23170590415E+03  0.00000000000E+00 0. -1.
        -13    1    3    3    0    0  0.40183008278E+02  0.43488917455E+02 -0.12167260189E+03  0.13531512165E+03  0.00000000000E+00 0.  1.
         13    1    3    3    0    0 -0.40739851331E+02  0.18280809889E+02 -0.13729110252E+03  0.14437025431E+03  0.00000000000E+00 0. -1.
         21    1    1    2  502  501 -0.10978927655E+02  0.24265283004E+02 -0.58762882245E+02  0.64516797358E+02  0.00000000000E+00 0. -1.
         21    1    1    2  503  502  0.13156174554E+02  0.28692486872E+02 -0.32610738392E+01  0.31732921933E+02  0.00000000000E+00 0. -1.
<scales pt_clust_5="13000.00000" pt_clust_6="13000.00000" pt_clust_7="13000.00000" pt_clust_8="13000.00000" pt_clust_9="26.63345" pt_clust_10="32.15270"></scales>
<clustering>
<clus scale="   26.633">  2  9  1 -1</clus>
<clus scale="   32.153">  1 10  2 -1</clus>
<clus scale="   85.708">  7  8 -1 -1</clus>
<clus scale="   91.433">  5  6 -1 -1</clus>
<clus scale="  121.294">  2  7  1 -1</clus>
<clus scale="   32.153">  1  5  2 -1</clus>
</clustering>
</event>
<event>
10    2  0.1133532E-006  0.2425369E+03  0.7546771E-02  0.1139274E+00
         -1   -1    0    0    0  501 -0.00000000000E+00  0.00000000000E+00  0.31465060353E+03  0.31465060353E+03  0.00000000000E+00 0.  1.
          1   -1    0    0  503    0  0.00000000000E+00 -0.00000000000E+00 -0.85858113151E+03  0.85858113151E+03  0.00000000000E+00 0. -1.
         23    2    1    2    0    0  0.29028305909E+03  0.31403821777E+02 -0.23955739758E+03  0.38707056957E+03  0.84766884291E+02 0.  0.
         23    2    1    2    0    0 -0.92029580507E+02 -0.64630454828E+02 -0.40961349351E+03  0.43474919137E+03  0.92612666263E+02 0.  0.
        -11    1    3    3    0    0  0.46721308351E+02  0.10087103407E+02 -0.46630491391E+01  0.48024726303E+02  0.00000000000E+00 0.  1.
         11    1    3    3    0    0  0.24356175074E+03  0.21316718370E+02 -0.23489434844E+03  0.33904584327E+03  0.00000000000E+00 0. -1.
        -11    1    4    4    0    0  0.33597942330E+01 -0.36841232256E+02 -0.19194506056E+03  0.19547754573E+03  0.00000000000E+00 0. -1.
         11    1    4    4    0    0 -0.95389374740E+02 -0.27789222572E+02 -0.21766843295E+03  0.23927164564E+03  0.00000000000E+00 0.  1.
         21    1    1    2  502  501 -0.21345733314E+03  0.46391700746E+02  0.17431614999E+03  0.27946796439E+03  0.00000000000E+00 0.  1.
         21    1    1    2  503  502  0.15203854552E+02 -0.13165067695E+02 -0.69075786879E+02  0.71944009714E+02  0.00000000000E+00 0. -1.
<scales pt_clust_5="13000.00000" pt_clust_6="13000.00000" pt_clust_7="13000.00000" pt_clust_8="13000.00000" pt_clust_9="227.24153" pt_clust_10="20.11159"></scales>
<clustering>
<clus scale="   20.112">  2 10  1 -1</clus>
<clus scale="   84.767">  5  6 -1 -1</clus>
<clus scale="   92.613">  7  8 -1 -1</clus>
<clus scale="  144.056">  2  7  1 -1</clus>
<clus scale="  227.242">  1  9  2 -1</clus>
<clus scale="   20.112">  2  5  1 -1</clus>
</clustering>
</event>
<event>
10    2  0.1133532E-006  0.1216440E+03  0.7546771E-02  0.1241359E+00
          1   -1    0    0  503    0  0.00000000000E+00  0.00000000000E+00  0.13225213632E+03  0.13225213632E+03  0.00000000000E+00 0. -1.
         -1   -1    0    0    0  501 -0.00000000000E+00 -0.00000000000E+00 -0.26472709239E+03  0.26472709239E+03  0.00000000000E+00 0.  1.
         23    2    1    2    0    0  0.70331904558E+02 -0.39372953822E+02 -0.67238012881E+02  0.13933008467E+03  0.91624864675E+02 0.  0.
         23    2    1    2    0    0 -0.36471244700E+02  0.78178993286E+02 -0.19576032237E+02  0.12953535093E+03  0.94625997595E+02 0.  0.
        -13    1    3    3    0    0  0.84633330577E+02 -0.51928442877E+01 -0.50313232919E+02  0.98596083508E+02  0.00000000000E+00 0. -1.
         13    1    3    3    0    0 -0.14301426019E+02 -0.34180109535E+02 -0.16924779962E+02  0.40734001163E+02  0.00000000000E+00 0.  1.
        -13    1    4    4    0    0 -0.16766482868E+02  0.87986568531E+02  0.12703044310E+02  0.90466118101E+02  0.00000000000E+00 0.  1.
         13    1    4    4    0    0 -0.19704761832E+02 -0.98075752445E+01 -0.32279076547E+02  0.39069232827E+02  0.00000000000E+00 0. -1.
         21    1    1    2  502  501 -0.39584466078E+02 -0.19487622618E+02 -0.78231009620E+02  0.89815300791E+02  0.00000000000E+00 0.  1.
         21    1    1    2  503  502  0.57238062199E+01 -0.19318416847E+02  0.32570098663E+02  0.38298492321E+02  0.00000000000E+00 0.  1.
<scales pt_clust_5="13000.00000" pt_clust_6="13000.00000" pt_clust_7="13000.00000" pt_clust_8="13000.00000" pt_clust_9="44.34056" pt_clust_10="20.14853"></scales>
<clustering>
<clus scale="   20.149">  1 10  2 -1</clus>
<clus scale="   44.341">  2  9  1 -1</clus>
<clus scale="   91.625">  5  6 -1 -1</clus>
<clus scale="   94.626">  7  8 -1 -1</clus>
<clus scale="  119.324">  2  5  1 -1</clus>
<clus scale="   20.149">  1  5  2 -1</clus>
</clustering>
</event>
<event>
10    2  0.1133532E-006  0.1739053E+03  0.7546771E-02  0.1173972E+00
          1   -1    0    0  503    0  0.00000000000E+00  0.00000000000E+00  0.75113997574E+03  0.75113997574E+03  0.00000000000E+00 0. -1.
         -1   -1    0    0    0  501 -0.00000000000E+00 -0.00000000000E+00 -0.80736833719E+02  0.80736833719E+02  0.00000000000E+00 0.  1.
         23    2    1    2    0    0  0.17577390337E+03 -0.13815215637E+02  0.18075795901E+03  0.26822067769E+03  0.90452014382E+02 0.  0.
         23    2    1    2    0    0 -0.12295115339E+03  0.55430562093E+01  0.42957979242E+03  0.45572013067E+03  0.89411005224E+02 0.  0.
        -11    1    3    3    0    0  0.73018303385E+02 -0.10286828284E+01  0.17827648230E+02  0.75170179320E+02  0.00000000000E+00 0.  1.
         11    1    3    3    0    0  0.10275559998E+03 -0.12786532808E+02  0.16293031078E+03  0.19305049837E+03  0.00000000000E+00 0. -1.
        -11    1    4    4    0    0  0.28631255528E+01  0.24424259189E+02  0.80916048353E+02  0.84570377828E+02  0.00000000000E+00 0.  1.
         11    1    4    4    0    0 -0.12581427895E+03 -0.18881202980E+02  0.34866374407E+03  0.37114975285E+03  0.00000000000E+00 0. -1.
         21    1    1    2  502  501 -0.26127265299E+02  0.98677028608E+01 -0.12500914344E+02  0.30598666820E+02  0.00000000000E+00 0.  1.
         21    1    1    2  503  502 -0.26695484675E+02 -0.15955434334E+01  0.72566304936E+02  0.77337334277E+02  0.00000000000E+00 0.  1.
<scales pt_clust_5="13000.00000" pt_clust_6="13000.00000" pt_clust_7="13000.00000" pt_clust_8="13000.00000" pt_clust_9="28.25562" pt_clust_10="26.74312"></scales>
<clustering>
<clus scale="   26.743">  1 10  2 -1</clus>
<clus scale="   28.256">  2  9  1 -1</clus>
<clus scale="   89.411">  7  8 -1 -1</clus>
<clus scale="   90.452">  5  6 -1 -1</clus>
<clus scale="  173.366">  1  7  2 -1</clus>
<clus scale="   26.743">  1  5  2 -1</clus>
</clustering>
</event>
<event>
10    2  0.1133532E-006  0.1754394E+03  0.7546771E-02  0.1190914E+00
          2   -1    0    0  503    0  0.00000000000E+00  0.00000000000E+00  0.79624271656E+03  0.79624271656E+03  0.00000000000E+00 0. -1.
         -2   -1    0    0    0  501 -0.00000000000E+00 -0.00000000000E+00 -0.23606833987E+03  0.23606833987E+03  0.00000000000E+00 0.  1.
         23    2    1    2    0    0  0.80675844722E+02 -0.12335908053E+03 -0.11676890088E+03  0.20897038292E+03  0.91145982111E+02 0.  0.
         23    2    1    2    0    0 -0.34176905404E+02  0.67088312015E+02  0.26249510328E+03  0.28680717933E+03  0.87668559887E+02 0.  0.
        -13    1    4    4    0    0 -0.54464915322E+02  0.70110774283E+02  0.24217010512E+03  0.25793081919E+03  0.00000000000E+00 0.  1.
         13    1    4    4    0    0  0.20288009918E+02 -0.30224622677E+01  0.20324998162E+02  0.28876360139E+02  0.00000000000E+00 0. -1.
        -13    1    3    3    0    0  0.10097904902E+03 -0.98892711731E+02 -0.98842187472E+02  0.17247119991E+03  0.00000000000E+00 0.  1.
         13    1    3    3    0    0 -0.20303204297E+02 -0.24466368797E+02 -0.17926713404E+02  0.36499183009E+02  0.00000000000E+00 0. -1.
         21    1    1    2  502  501 -0.11379908086E+03 -0.45153007389E+02  0.20404913382E+02  0.12411843284E+03  0.00000000000E+00 0.  1.
         21    1    1    2  503  502  0.67300141539E+02  0.10142377590E+03  0.39404326090E+03  0.41241506135E+03  0.00000000000E+00 0. -1.
<scales pt_clust_5="13000.00000" pt_clust_6="13000.00000" pt_clust_7="13000.00000" pt_clust_8="13000.00000" pt_clust_9="123.83916" pt_clust_10="149.90467"></scales>
<clustering>
<clus scale="   87.669">  5  6 -1 -1</clus>
<clus scale="   91.146">  7  8 -1 -1</clus>
<clus scale="  115.562">  1  5  2 -1</clus>
<clus scale="  123.839">  2  9  1 -1</clus>
<clus scale="  149.905">  1 10  2 -1</clus>
<clus scale="  115.562">  1  5  2 -1</clus>
</clustering>
</event>
<event>
10    2  0.1133532E-006  0.9404600E+02  0.7546771E-02  0.1295779E+00
          2   -1    0    0  503    0  0.00000000000E+00  0.00000000000E+00  0.21547382984E+03  0.21547382984E+03  0.00000000000E+00 0. -1.
         -2   -1    0    0    0  501 -0.00000000000E+00 -0.00000000000E+00 -0.11032883546E+03  0.11032883546E+03  0.00000000000E+00 0.  1.
         23    2    1    2    0    0 -0.24047125627E+01 -0.50190767514E+02  0.48876514033E+02  0.11254279464E+03  0.88045847233E+02 0.  0.
         23    2    1    2    0    0 -0.15657597065E+02 -0.10399135384E+02  0.63204879652E+02  0.11343388739E+03  0.92298903750E+02 0.  0.
        -13    1    4    4    0    0  0.24217044479E+02 -0.30502668469E+02  0.55982768715E+02  0.68197862283E+02  0.00000000000E+00 0. -1.
         13    1    4    4    0    0 -0.39874641544E+02  0.20103533086E+02  0.72221109372E+01  0.45236025104E+02  0.00000000000E+00 0.  1.
        -13    1    3    3    0    0  0.21228307853E+02  0.11473280263E+02  0.38870416138E+02  0.45751354789E+02  0.00000000000E+00 0. -1.
         13    1    3    3    0    0 -0.23633020415E+02 -0.61664047777E+02  0.10006097895E+02  0.66791439850E+02  0.00000000000E+00 0.  1.
         21    1    1    2  502  501  0.22157781114E+02 -0.93409870536E+01 -0.16446595928E+02  0.29132659004E+02  0.00000000000E+00 0.  1.
         21    1    1    2  503  502 -0.40954714858E+01  0.69930889951E+02  0.95101966237E+01  0.70693324267E+02  0.00000000000E+00 0. -1.
<scales pt_clust_5="13000.00000" pt_clust_6="13000.00000" pt_clust_7="13000.00000" pt_clust_8="13000.00000" pt_clust_9="24.04623" pt_clust_10="66.76630"></scales>
<clustering>
<clus scale="   24.046">  2  9  1 -1</clus>
<clus scale="   66.766">  2 10  1 -1</clus>
<clus scale="   88.046">  7  8 -1 -1</clus>
<clus scale="   89.876">  2  7  1 -1</clus>
<clus scale="   92.299">  5  6 -1 -1</clus>
<clus scale="   94.046">  1  5  2 -1</clus>
</clustering>
</event>
<event>
10    2  0.1133532E-006  0.1320702E+03  0.7546771E-02  0.1227980E+00
         -1   -1    0    0    0  501 -0.00000000000E+00  0.00000000000E+00  0.57345552545E+02  0.57345552545E+02  0.00000000000E+00 0.  1.
          1   -1    0    0  503    0  0.00000000000E+00 -0.00000000000E+00 -0.11625786227E+04  0.11625786227E+04  0.00000000000E+00 0. -1.
         23    2    1    2    0    0 -0.86858086823E+02  0.16627346228E+01 -0.34059505689E+03  0.36525218516E+03  0.99282798372E+02 0.  0.
         23    2    1    2    0    0  0.64956023504E+02  0.70765936183E+02 -0.51286382127E+03  0.52887784064E+03  0.86344475440E+02 0.  0.
        -11    1    3    3    0    0 -0.95799704785E+02  0.27363946618E+02 -0.30213857056E+03  0.31814161128E+03  0.00000000000E+00 0. -1.
         11    1    3    3    0    0  0.89416179629E+01 -0.25701211995E+02 -0.38456486331E+02  0.47110573874E+02  0.00000000000E+00 0.  1.
        -13    1    4    4    0    0  0.47508667627E+02  0.90837186506E+02 -0.41335275364E+03  0.42587435576E+03  0.00000000000E+00 0. -1.
         13    1    4    4    0    0  0.17447355877E+02 -0.20071250323E+02 -0.99511067629E+02  0.10300348488E+03  0.00000000000E+00 0.  1.
         21    1    1    2  502  501 -0.12501477964E+02 -0.52296488955E+02  0.15186909382E+02  0.55873535103E+02  0.00000000000E+00 0.  1.
         21    1    1    2  503  502  0.34403541283E+02 -0.20132181851E+02 -0.26696110136E+03  0.26992061433E+03  0.00000000000E+00 0. -1.
<scales pt_clust_5="13000.00000" pt_clust_6="13000.00000" pt_clust_7="13000.00000" pt_clust_8="13000.00000" pt_clust_9="54.04044" pt_clust_10="39.86111"></scales>
<clustering>
<clus scale="   39.861">  2 10  1 -1</clus>
<clus scale="   54.040">  1  9  2 -1</clus>
<clus scale="   86.344">  7  8 -1 -1</clus>
<clus scale="   99.283">  5  6 -1 -1</clus>
<clus scale="  122.641">  2  7  1 -1</clus>
<clus scale="   39.861">  2  5  1 -1</clus>
</clustering>
</event>
<event>
10    2  0.1133532E-006  0.2858067E+03  0.7546771E-02  0.1092565E+00
          1   -1    0    0  503    0  0.00000000000E+00  0.00000000000E+00  0.69459314011E+03  0.69459314011E+03  0.00000000000E+00 0. -1.
         -1   -1    0    0    0  501 -0.00000000000E+00 -0.00000000000E+00 -0.18317341977E+03  0.18317341977E+03  0.00000000000E+00 0.  1.
         23    2    1    2    0    0  0.23062006984E+03 -0.90166837491E+02  0.67721817595E+02  0.27237848863E+03  0.91039119590E+02 0.  0.
         23    2    1    2    0    0 -0.26776068417E+03  0.13502258924E+03  0.34497585427E+03  0.46609945577E+03  0.91178281657E+02 0.  0.
        -11    1    3    3    0    0  0.15915742263E+03 -0.32526755880E+02  0.75823307072E+01  0.16262400427E+03  0.00000000000E+00 0.  1.
         11    1    3    3    0    0  0.71462647206E+02 -0.57640081610E+02  0.60139486888E+02  0.10975448436E+03  0.00000000000E+00 0. -1.
        -11    1    4    4    0    0 -0.13564619748E+03  0.27283968493E+02  0.19462429473E+03  0.23879472760E+03  0.00000000000E+00 0.  1.
         11    1    4    4    0    0 -0.13211448669E+03  0.10773862075E+03  0.15035155954E+03  0.22730472817E+03  0.00000000000E+00 0. -1.
         21    1    1    2  502  501  0.19077943571E+02 -0.10091433811E+02 -0.99535562956E+01  0.23767167483E+02  0.00000000000E+00 0.  1.
         21    1    1    2  503  502  0.18062670763E+02 -0.34764317943E+02  0.10867560477E+03  0.11552144801E+03  0.00000000000E+00 0. -1.
<scales pt_clust_5="13000.00000" pt_clust_6="13000.00000" pt_clust_7="13000.00000" pt_clust_8="13000.00000" pt_clust_9="21.58252" pt_clust_10="39.54289"></scales>
<clustering>
<clus scale="   21.583">  2  9  1 -1</clus>
<clus scale="   39.543">  1 10  2 -1</clus>
<clus scale="   91.039">  5  6 -1 -1</clus>
<clus scale="   91.178">  7  8 -1 -1</clus>
<clus scale="  285.762">  2  5  1 -1</clus>
<clus scale="   39.543">  1  5  2 -1</clus>
</clustering>
</event>
<event>
10    2  0.1133532E-006  0.1204055E+03  0.7546771E-02  0.1243972E+00
         -1   -1    0    0    0  501 -0.00000000000E+00  0.00000000000E+00  0.10929308247E+03  0.10929308247E+03  0.00000000000E+00 0.  1.
          1   -1    0    0  503    0  0.00000000000E+00 -0.00000000000E+00 -0.68480627788E+03  0.68480627788E+03  0.00000000000E+00 0. -1.
         23    2    1    2    0    0 -0.38342217007E+02  0.59254321763E+02 -0.14511056661E+02  0.11856753655E+03  0.94162039623E+02 0.  0.
         23    2    1    2    0    0 -0.68611794791E+01 -0.78311386398E+02 -0.13135760254E+03  0.17727140962E+03  0.89390066003E+02 0.  0.
        -11    1    3    3    0    0  0.25761635618E+02  0.71098408449E+01  0.15211686827E+02  0.30750725564E+02  0.00000000000E+00 0.  1.
         11    1    3    3    0    0 -0.64103852626E+02  0.52144480918E+02 -0.29722743488E+02  0.87816810988E+02  0.00000000000E+00 0. -1.
        -13    1    4    4    0    0 -0.45574016940E+02 -0.52387116892E+02 -0.58521463518E+02  0.90808384682E+02  0.00000000000E+00 0. -1.
         13    1    4    4    0    0  0.38712837461E+02 -0.25924269506E+02 -0.72836139019E+02  0.86463024935E+02  0.00000000000E+00 0.  1.
         21    1    1    2  502  501 -0.17209008832E+02  0.10283032877E+02  0.29028127338E+02  0.35277796514E+02  0.00000000000E+00 0. -1.
         21    1    1    2  503  502  0.62412405318E+02  0.87740317584E+01 -0.45867266355E+03  0.46298261766E+03  0.00000000000E+00 0. -1.
<scales pt_clust_5="13000.00000" pt_clust_6="13000.00000" pt_clust_7="13000.00000" pt_clust_8="13000.00000" pt_clust_9="20.04721" pt_clust_10="62.59103"></scales>
<clustering>
<clus scale="   20.047">  1  9  2 -1</clus>
<clus scale="   62.591">  2 10  1 -1</clus>
<clus scale="   89.390">  7  8 -1 -1</clus>
<clus scale="   94.162">  5  6 -1 -1</clus>
<clus scale="  116.711">  2  7  1 -1</clus>
<clus scale="   62.591">  2  5  1 -1</clus>
</clustering>
</event>
<event>
10    2  0.1133532E-006  0.2414270E+03  0.7546771E-02  0.1119010E+00
          1   -1    0    0  503    0  0.00000000000E+00  0.00000000000E+00  0.71701308267E+03  0.71701308267E+03  0.00000000000E+00 0. -1.
         -1   -1    0    0    0  501 -0.00000000000E+00 -0.00000000000E+00 -0.23445943058E+03  0.23445943058E+03  0.00000000000E+00 0.  1.
         23    2    1    2    0    0 -0.16854146693E+03  0.94690860643E+02 -0.89352160436E+02  0.23223516074E+03  0.92610885687E+02 0.  0.
         23    2    1    2    0    0  0.20122010856E+03 -0.11630744499E+03  0.35875574217E+03  0.43683039221E+03  0.89989750349E+02 0.  0.
        -11    1    3    3    0    0 -0.10819659060E+03  0.99046292256E+02 -0.34768427884E+02  0.15074983849E+03  0.00000000000E+00 0.  1.
         11    1    3    3    0    0 -0.60344876331E+02 -0.43554316134E+01 -0.54583732552E+02  0.81485322257E+02  0.00000000000E+00 0. -1.
        -13    1    4    4    0    0  0.45989754981E+02 -0.26823113297E+02  0.16290685891E+03  0.17138606026E+03  0.00000000000E+00 0.  1.
         13    1    4    4    0    0  0.15523035358E+03 -0.89484331695E+02  0.19584888326E+03  0.26544433195E+03  0.00000000000E+00 0. -1.
         21    1    1    2  502  501 -0.10403198279E+02  0.51117823628E+02 -0.12587302823E+02  0.53662823437E+02  0.00000000000E+00 0.  1.
         21    1    1    2  503  502 -0.22275443356E+02 -0.29501239278E+02  0.22573737319E+03  0.22874413686E+03  0.00000000000E+00 0. -1.
<scales pt_clust_5="13000.00000" pt_clust_6="13000.00000" pt_clust_7="13000.00000" pt_clust_8="13000.00000" pt_clust_9="51.15293" pt_clust_10="36.96645"></scales>
<clustering>
<clus scale="   36.966">  1 10  2 -1</clus>
<clus scale="   51.153">  2  9  1 -1</clus>
<clus scale="   89.990">  7  8 -1 -1</clus>
<clus scale="   92.611">  5  6 -1 -1</clus>
<clus scale="  240.434">  1  7  2 -1</clus>
<clus scale="   36.966">  1  5  2 -1</clus>
</clustering>
</event>
<event>
10    2  0.1133532E-006  0.9845509E+02  0.7546771E-02  0.1283745E+00
          4   -1    0    0  503    0  0.00000000000E+00  0.00000000000E+00  0.38302288721E+02  0.38302288721E+02  0.00000000000E+00 0.  1.
         -4   -1    0    0    0  501 -0.00000000000E+00 -0.00000000000E+00 -0.60349126119E+03  0.60349126119E+03  0.00000000000E+00 0. -1.
         23    2    1    2    0    0 -0.15474599684E+02 -0.53228375918E+02 -0.31943209699E+03  0.33682281308E+03  0.91323707715E+02 0.  0.
         23    2    1    2    0    0 -0.37755052238E+02  0.65506724983E+01 -0.13533302231E+03  0.16751881625E+03  0.90989953243E+02 0.  0.
        -11    1    3    3    0    0 -0.32702818323E+02  0.32204748834E+01 -0.42773731826E+02  0.53939205770E+02  0.00000000000E+00 0.  1.
         11    1    3    3    0    0  0.17228218639E+02 -0.56448850802E+02 -0.27665836516E+03  0.28288360731E+03  0.00000000000E+00 0. -1.
        -13    1    4    4    0    0  0.17163180383E+02 -0.24611919191E+02 -0.72388966536E+02  0.78361239164E+02  0.00000000000E+00 0. -1.
         13    1    4    4    0    0 -0.54918232621E+02  0.31162591689E+02 -0.62944055776E+02  0.89157577090E+02  0.00000000000E+00 0.  1.
         21    1    1    2  502  501  0.25427075764E+02  0.16018518453E+01 -0.55945553934E+02  0.61473629437E+02  0.00000000000E+00 0. -1.
         21    1    1    2  503  502  0.27802576158E+02  0.45075851575E+02 -0.54478299237E+02  0.75978291136E+02  0.00000000000E+00 0.  1.
<scales pt_clust_5="13000.00000" pt_clust_6="13000.00000" pt_clust_7="13000.00000" pt_clust_8="13000.00000" pt_clust_9="25.47748" pt_clust_10="54.77864"></scales>
<clustering>
<clus scale="   25.477">  2  9  1 -1</clus>
<clus scale="   54.779">  1 10  2 -1</clus>
<clus scale="   90.990">  7  8 -1 -1</clus>
<clus scale="   91.324">  5  6 -1 -1</clus>
<clus scale="   98.146">  1  7  2 -1</clus>
<clus scale="   54.779">  1  5  2 -1</clus>
</clustering>
</event>
<event>
10    2  0.1133532E-006  0.1927639E+03  0.7546771E-02  0.1156021E+00
         -2   -1    0    0    0  501 -0.00000000000E+00  0.00000000000E+00  0.41875442918E+03  0.41875442918E+03  0.00000000000E+00 0.  1.
          2   -1    0    0  503    0  0.00000000000E+00 -0.00000000000E+00 -0.15698548498E+03  0.15698548498E+03  0.00000000000E+00 0. -1.
         23    2    1    2    0    0  0.12501873219E+03 -0.12072082191E+03  0.97164865727E+02  0.21957361658E+03  0.92565445631E+02 0.  0.
         23    2    1    2    0    0 -0.12008527345E+03  0.11610485352E+03  0.11284427674E+03  0.22193017328E+03  0.92835128638E+02 0.  0.
        -11    1    3    3    0    0  0.15523966465E+02 -0.59225579597E+02  0.66317194752E+02  0.90258701150E+02  0.00000000000E+00 0.  1.
         11    1    3    3    0    0  0.10949476572E+03 -0.61495242316E+02  0.30847670975E+02  0.12931491543E+03  0.00000000000E+00 0. -1.
        -13    1    4    4    0    0 -0.12836560161E+03  0.75690828612E+02  0.79587408125E+02  0.16894077289E+03  0.00000000000E+00 0.  1.
         13    1    4    4    0    0  0.82803281604E+01  0.40414024907E+02  0.33256868617E+02  0.52989400391E+02  0.00000000000E+00 0. -1.
         21    1    1    2  502  501 -0.22867831207E+02  0.38837199902E+02  0.76191511932E+02  0.88523512644E+02  0.00000000000E+00 0.  1.
         21    1    1    2  503  502  0.17934372469E+02 -0.34221231508E+02 -0.24431710202E+02  0.45712611664E+02  0.00000000000E+00 0. -1.
<scales pt_clust_5="13000.00000" pt_clust_6="13000.00000" pt_clust_7="13000.00000" pt_clust_8="13000.00000" pt_clust_9="43.11798" pt_clust_10="38.63592"></scales>
<clustering>
<clus scale="   38.636">  2 10  1 -1</clus>
<clus scale="   43.118">  1  9  2 -1</clus>
<clus scale="   92.565">  5  6 -1 -1</clus>
<clus scale="   92.835">  7  8 -1 -1</clus>
<clus scale="  192.634">  1  5  2 -1</clus>
<clus scale="   38.636">  2  5  1 -1</clus>
</clustering>
</event>
<event>
10    2  0.1133532E-006  0.1415772E+03  0.7546771E-02  0.1211343E+00
          2   -1    0    0  503    0  0.00000000000E+00  0.00000000000E+00  0.45018972918E+03  0.45018972918E+03  0.00000000000E+00 0. -1.
         -2   -1    0    0    0  501 -0.00000000000E+00 -0.00000000000E+00 -0.83849655467E+02  0.83849655467E+02  0.00000000000E+00 0.  1.
         23    2    1    2    0    0 -0.39932462432E+02 -0.11120733441E+03  0.68230243932E+02  0.16260581772E+03  0.88451189852E+02 0.  0.
         23    2    1    2    0    0  0.42352183804E+02  0.11202518498E+03  0.22375239017E+03  0.26895147513E+03  0.89030412368E+02 0.  0.
        -11    1    3    3    0    0 -0.43203488255E+02 -0.59635403006E+02 -0.40515712116E+01  0.73751867220E+02  0.00000000000E+00 0.  1.
         11    1    3    3    0    0  0.32710258229E+01 -0.51571931401E+02  0.72281815144E+02  0.88853950496E+02  0.00000000000E+00 0. -1.
        -13    1    4    4    0    0  0.59698464193E+02  0.58089497712E+02  0.84680030642E+02  0.11878132833E+03  0.00000000000E+00 0. -1.
         13    1    4    4    0    0 -0.17346280389E+02  0.53935687265E+02  0.13907235953E+03  0.15017014680E+03  0.00000000000E+00 0.  1.
         21    1    1    2  502  501  0.26277831072E+02  0.16740103795E+02  0.15765803909E+02  0.34918706360E+02  0.00000000000E+00 0. -1.
         21    1    1    2  503  502 -0.28697552444E+02 -0.17557954364E+02  0.58591635695E+02  0.67563385433E+02  0.00000000000E+00 0. -1.
<scales pt_clust_5="13000.00000" pt_clust_6="13000.00000" pt_clust_7="13000.00000" pt_clust_8="13000.00000" pt_clust_9="31.15695" pt_clust_10="31.76124"></scales>
<clustering>
<clus scale="   31.157">  2  9  1 -1</clus>
<clus scale="   31.761">  1 10  2 -1</clus>
<clus scale="   88.451">  5  6 -1 -1</clus>
<clus scale="   89.030">  7  8 -1 -1</clus>
<clus scale="  141.214">  2  5  1 -1</clus>
<clus scale="   31.761">  1  5  2 -1</clus>
</clustering>
</event>
<event>
10    2  0.1133532E-006  0.1025064E+03  0.7546771E-02  0.1276286E+00
          1   -1    0    0  503    0  0.00000000000E+00  0.00000000000E+00  0.24544492558E+03  0.24544492558E+03  0.00000000000E+00 0. -1.
         -1   -1    0    0    0  501 -0.00000000000E+00 -0.00000000000E+00 -0.21181073633E+03  0.21181073633E+03  0.00000000000E+00 0.  1.
         23    2    1    2    0    0  0.19227708995E+01 -0.53975057725E+02 -0.13095557297E+03  0.16906337374E+03  0.92282492093E+02 0.  0.
         23    2    1    2    0    0 -0.31502966854E+02 -0.41798609428E+01  0.68559609902E+02  0.11732031418E+03  0.89742564327E+02 0.  0.
        -13    1    4    4    0    0  0.31213628689E+02 -0.24775581549E+01  0.31686974038E+02  0.44547651274E+02  0.00000000000E+00 0. -1.
         13    1    4    4    0    0 -0.62716595544E+02 -0.17023027879E+01  0.36872635865E+02  0.72772662910E+02  0.00000000000E+00 0.  1.
        -13    1    3    3    0    0 -0.14003392795E+02 -0.67054869318E+02 -0.48148007677E+02  0.83729810416E+02  0.00000000000E+00 0.  1.
         13    1    3    3    0    0  0.15926163695E+02  0.13079811593E+02 -0.82807565288E+02  0.85333563328E+02  0.00000000000E+00 0. -1.
         21    1    1    2  502  501 -0.16500446118E+02  0.56711139613E+02 -0.55461251544E+01  0.59322656570E+02  0.00000000000E+00 0. -1.
         21    1    1    2  503  502  0.46080642073E+02  0.14437790551E+01  0.10157627747E+03  0.11154931742E+03  0.00000000000E+00 0. -1.
<scales pt_clust_5="13000.00000" pt_clust_6="13000.00000" pt_clust_7="13000.00000" pt_clust_8="13000.00000" pt_clust_9="57.49241" pt_clust_10="46.10325"></scales>
<clustering>
<clus scale="   46.103">  1 10  2 -1</clus>
<clus scale="   57.492">  1  9  2 -1</clus>
<clus scale="   89.743">  5  6 -1 -1</clus>
<clus scale="   92.282">  7  8 -1 -1</clus>
<clus scale="  100.226">  1  5  2 -1</clus>
<clus scale="   46.103">  1  5  2 -1</clus>
</clustering>
</event>
<event>
10    2  0.1133532E-006  0.1199082E+03  0.7546771E-02  0.1243747E+00
          1   -1    0    0  503    0  0.00000000000E+00  0.00000000000E+00  0.70094968716E+03  0.70094968716E+03  0.00000000000E+00 0. -1.
         -1   -1    0    0    0  501 -0.00000000000E+00 -0.00000000000E+00 -0.92730751773E+02  0.92730751773E+02  0.00000000000E+00 0.  1.
         23    2    1    2    0    0 -0.22266141285E+02 -0.60967279657E+02  0.50999278647E+02  0.12519093971E+03  0.94122551632E+02 0.  0.
         23    2    1    2    0    0  0.11915203177E+03  0.80821653527E+01  0.95464553141E+02  0.18033780418E+03  0.95633229779E+02 0.  0.
        -11    1    3    3    0    0  0.16963444149E+02 -0.69850228319E+02  0.20603942465E+02  0.74775231719E+02  0.00000000000E+00 0. -1.
         11    1    3    3    0    0 -0.39229585435E+02  0.88829486618E+01  0.30395336182E+02  0.50415707988E+02  0.00000000000E+00 0.  1.
        -13    1    4    4    0    0  0.12781965766E+02  0.38917548952E+02  0.15763641731E+02  0.43891305129E+02  0.00000000000E+00 0.  1.
         13    1    4    4    0    0  0.10637006600E+03 -0.30835383600E+02  0.79700911410E+02  0.13644649905E+03  0.00000000000E+00 0. -1.
         21    1    1    2  502  501 -0.85501855918E+02  0.21982684362E+01  0.15503065637E+03  0.17705904146E+03  0.00000000000E+00 0.  1.
         21    1    1    2  503  502 -0.11384034563E+02  0.50686845868E+02  0.30672444723E+03  0.31109265359E+03  0.00000000000E+00 0. -1.
<scales pt_clust_5="13000.00000" pt_clust_6="13000.00000" pt_clust_7="13000.00000" pt_clust_8="13000.00000" pt_clust_9="93.37243" pt_clust_10="51.94952"></scales>
<clustering>
<clus scale="   51.950">  1 10  2 -1</clus>
<clus scale="   93.372">  1  9  2 -1</clus>
<clus scale="   94.123">  5  6 -1 -1</clus>
<clus scale="   95.633">  7  8 -1 -1</clus>
<clus scale="  118.707">  2  5  1 -1</clus>
<clus scale="   51.950">  1  5  2 -1</clus>
</clustering>
</event>
<event>
10    2  0.1133532E-006  0.1995629E+03  0.7546771E-02  0.1150661E+00
         -1   -1    0    0    0  501 -0.00000000000E+00  0.00000000000E+00  0.31381160019E+03  0.31381160019E+03  0.00000000000E+00 0.  1.
          1   -1    0    0  503    0  0.00000000000E+00 -0.00000000000E+00 -0.21672307522E+03  0.21672307522E+03  0.00000000000E+00 0. -1.
         23    2    1    2    0    0 -0.25717417348E+02 -0.16731760310E+03  0.21184642807E+02  0.19657719123E+03  0.97658779227E+02 0.  0.
         23    2    1    2    0    0  0.78515049578E+02  0.16327980136E+03  0.58914624504E+02  0.21167174293E+03  0.92244713840E+02 0.  0.
        -11    1    3    3    0    0  0.20709792024E+02 -0.60349302898E+02  0.44331226694E+02  0.77692930864E+02  0.00000000000E+00 0.  1.
         11    1    3    3    0    0 -0.46427209372E+02 -0.10696830020E+03 -0.23146583886E+02  0.11888426037E+03  0.00000000000E+00 0. -1.
        -11    1    4    4    0    0  0.12171185454E+02  0.10561595523E+03  0.83942385669E+00  0.10631825989E+03  0.00000000000E+00 0. -1.
         11    1    4    4    0    0  0.66343864124E+02  0.57663846135E+02  0.58075200648E+02  0.10535348304E+03  0.00000000000E+00 0.  1.
         21    1    1    2  502  501 -0.23348761196E+02  0.33895435458E+02  0.52933639563E+02  0.67052482367E+02  0.00000000000E+00 0.  1.
         21    1    1    2  503  502 -0.29448871034E+02 -0.29857633721E+02 -0.35944381900E+02  0.55233258883E+02  0.00000000000E+00 0. -1.
<scales pt_clust_5="13000.00000" pt_clust_6="13000.00000" pt_clust_7="13000.00000" pt_clust_8="13000.00000" pt_clust_9="41.15902" pt_clust_10="41.67138"></scales>
<clustering>
<clus scale="   41.159">  1  9  2 -1</clus>
<clus scale="   41.671">  2 10  1 -1</clus>
<clus scale="   92.245">  7  8 -1 -1</clus>
<clus scale="   97.659">  5  6 -1 -1</clus>
<clus scale="  196.970">  2  7  1 -1</clus>
<clus scale="   41.671">  2  5  1 -1</clus>
</clustering>
</event>
<event>
10    2  0.1133532E-006  0.2021677E+03  0.7546771E-02  0.1147948E+00
         -2   -1    0    0    0  501 -0.00000000000E+00  0.00000000000E+00  0.88114090685E+02  0.88114090685E+02  0.00000000000E+00 0.  1.
          2   -1    0    0  503    0  0.00000000000E+00 -0.00000000000E+00 -0.79042012520E+03  0.79042012520E+03  0.00000000000E+00 0. -1.
         23    2    1    2    0    0 -0.11344344750E+03  0.13657034106E+03 -0.23072873899E+03  0.30495906870E+03  0.90793219723E+02 0.  0.
         23    2    1    2    0    0  0.18454840147E+03 -0.72802862380E+02 -0.27587845096E+03  0.35179359949E+03  0.91057386755E+02 0.  0.
        -11    1    3    3    0    0 -0.58892812063E+02  0.10045249848E+03 -0.81829150468E+02  0.14232033456E+03  0.00000000000E+00 0.  1.
         11    1    3    3    0    0 -0.54550635441E+02  0.36117842579E+02 -0.14889958853E+03  0.16263873414E+03  0.00000000000E+00 0. -1.
        -11    1    4    4    0    0  0.36531668623E+02 -0.48262366925E+02 -0.41086441425E+02  0.73156780564E+02  0.00000000000E+00 0. -1.
         11    1    4    4    0    0  0.14801673284E+03 -0.24540495456E+02 -0.23479200954E+03  0.27863681893E+03  0.00000000000E+00 0.  1.
         21    1    1    2  502  501 -0.21283366109E+01 -0.21518621717E+02 -0.26194975427E+02  0.33967008037E+02  0.00000000000E+00 0. -1.
         21    1    1    2  503  502 -0.68976617350E+02 -0.42248856962E+02 -0.16950386914E+03  0.18781453966E+03  0.00000000000E+00 0. -1.
<scales pt_clust_5="13000.00000" pt_clust_6="13000.00000" pt_clust_7="13000.00000" pt_clust_8="13000.00000" pt_clust_9="21.62362" pt_clust_10="82.32751"></scales>
<clustering>
<clus scale="   21.624">  1  9  2 -1</clus>
<clus scale="   82.328">  2 10  1 -1</clus>
<clus scale="   90.793">  5  6 -1 -1</clus>
<clus scale="   91.057">  7  8 -1 -1</clus>
<clus scale="  202.049">  1  5  2 -1</clus>
<clus scale="   82.328">  2  5  1 -1</clus>
</clustering>
</event>
<event>
10    2  0.1133532E-006  0.1093821E+03  0.7546771E-02  0.1262301E+00
          1   -1    0    0  503    0  0.00000000000E+00  0.00000000000E+00  0.31388654454E+03  0.31388654454E+03  0.00000000000E+00 0. -1.
         -1   -1    0    0    0  501 -0.00000000000E+00 -0.00000000000E+00 -0.14513453839E+03  0.14513453839E+03  0.00000000000E+00 0.  1.
         23    2    1    2    0    0 -0.20011490852E+02 -0.50986892859E+02  0.43494079347E+02  0.11402135421E+03  0.90050048691E+02 0.  0.
         23    2    1    2    0    0  0.56766621246E+02  0.45070473583E+02  0.82106485947E+02  0.14273899262E+03  0.91537686797E+02 0.  0.
        -11    1    3    3    0    0 -0.41480605278E+02 -0.59359275067E+02  0.96208562971E+01  0.73052891980E+02  0.00000000000E+00 0. -1.
         11    1    3    3    0    0  0.21469114426E+02  0.83723822087E+01  0.33873223050E+02  0.40968462235E+02  0.00000000000E+00 0.  1.
        -13    1    4    4    0    0  0.45069906697E+02  0.69017825607E+02  0.37013640394E+02  0.90359096479E+02  0.00000000000E+00 0.  1.
         13    1    4    4    0    0  0.11696714549E+02 -0.23947352024E+02  0.45092845552E+02  0.52379896146E+02  0.00000000000E+00 0. -1.
         21    1    1    2  502  501 -0.18947989816E+02  0.15439688993E+02 -0.76813292085E+02  0.80608263566E+02  0.00000000000E+00 0.  1.
         21    1    1    2  503  502 -0.17807140578E+02 -0.95232697173E+01  0.11996473294E+03  0.12165247253E+03  0.00000000000E+00 0. -1.
<scales pt_clust_5="13000.00000" pt_clust_6="13000.00000" pt_clust_7="13000.00000" pt_clust_8="13000.00000" pt_clust_9="24.51921" pt_clust_10="20.19373"></scales>
<clustering>
<clus scale="   20.194">  1 10  2 -1</clus>
<clus scale="   24.519">  2  9  1 -1</clus>
<clus scale="   90.050">  5  6 -1 -1</clus>
<clus scale="   91.538">  7  8 -1 -1</clus>
<clus scale="  108.140">  2  5  1 -1</clus>
<clus scale="   20.194">  1  5  2 -1</clus>
</clustering>
</event>
<event>
10    2  0.1133532E-006  0.1402073E+03  0.7546771E-02  0.1215355E+00
          2   -1    0    0  503    0  0.00000000000E+00  0.00000000000E+00  0.31750805435E+03  0.31750805435E+03  0.00000000000E+00 0. -1.
         -2   -1    0    0    0  501 -0.00000000000E+00 -0.00000000000E+00 -0.26815520979E+03  0.26815520979E+03  0.00000000000E+00 0.  1.
         23    2    1    2    0    0 -0.94370245590E+02  0.17169842668E+03  0.13423653255E+01  0.21584168472E+03  0.90552404381E+02 0.  0.
         23    2    1    2    0    0  0.71243731916E+02 -0.46435327177E+02  0.10982099868E+03  0.16019329939E+03  0.79808097772E+02 0.  0.
        -11    1    4    4    0    0  0.12082623040E+02 -0.53989703762E+02  0.39459714073E+02  0.67955477531E+02  0.00000000000E+00 0.  1.
         11    1    4    4    0    0  0.59161108876E+02  0.75543765844E+01  0.70361284607E+02  0.92237821855E+02  0.00000000000E+00 0. -1.
        -13    1    3    3    0    0 -0.16151692671E+02  0.12283785225E+02 -0.29306362648E+02  0.35645917680E+02  0.00000000000E+00 0. -1.
         13    1    3    3    0    0 -0.78218552919E+02  0.15941464145E+03  0.30648727974E+02  0.18019576704E+03  0.00000000000E+00 0.  1.
         21    1    1    2  502  501  0.36782278327E+02 -0.10455745796E+03 -0.10954307856E+03  0.15583608079E+03  0.00000000000E+00 0. -1.
         21    1    1    2  503  502 -0.13655764653E+02 -0.20705641544E+02  0.47732559120E+02  0.53792199251E+02  0.00000000000E+00 0.  1.
<scales pt_clust_5="13000.00000" pt_clust_6="13000.00000" pt_clust_7="13000.00000" pt_clust_8="13000.00000" pt_clust_9="112.15336" pt_clust_10="24.80330"></scales>
<clustering>
<clus scale="   24.803">  1 10  2 -1</clus>
<clus scale="   79.808">  5  6 -1 -1</clus>
<clus scale="   90.552">  7  8 -1 -1</clus>
<clus scale="  112.153">  2  9  1 -1</clus>
<clus scale="  133.520">  1  5  2 -1</clus>
<clus scale="   24.803">  1  5  2 -1</clus>
</clustering>
</event>
<event>
10    2  0.1133532E-006  0.1158210E+03  0.7546771E-02  0.1250385E+00
         -2   -1    0    0    0  501 -0.00000000000E+00  0.00000000000E+00  0.84375393732E+02  0.84375393732E+02  0.00000000000E+00 0.  1.
          2   -1    0    0  503    0  0.00000000000E+00 -0.00000000000E+00 -0.41747273968E+03  0.41747273968E+03  0.00000000000E+00 0. -1.
         23    2    1    2    0    0  0.58397946536E+02  0.50115185965E+02 -0.28537175857E+01  0.11941243641E+03  0.91265186362E+02 0.  0.
         23    2    1    2    0    0 -0.54511074606E+02 -0.67887811532E+01 -0.17976269729E+03  0.20865959316E+03  0.90590582717E+02 0.  0.
        -13    1    4    4    0    0 -0.18969472760E+02  0.14384072715E+02  0.39832317902E+00  0.23809685130E+02  0.00000000000E+00 0.  1.
         13    1    4    4    0    0 -0.35541601846E+02 -0.21172853868E+02 -0.18016102047E+03  0.18484990803E+03  0.00000000000E+00 0. -1.
        -13    1    3    3    0    0  0.23320257308E+02  0.12774180240E+02 -0.45535317890E+02  0.52730249924E+02  0.00000000000E+00 0. -1.
         13    1    3    3    0    0  0.35077689229E+02  0.37341005725E+02  0.42681600305E+02  0.66682186487E+02  0.00000000000E+00 0.  1.
         21    1    1    2  502  501  0.13544269002E+02 -0.15025638023E+02 -0.58323635248E+00  0.20237519251E+02  0.00000000000E+00 0. -1.
         21    1    1    2  503  502 -0.17431140933E+02 -0.28300766789E+02 -0.14989769472E+03  0.15353858459E+03  0.00000000000E+00 0. -1.
<scales pt_clust_5="13000.00000" pt_clust_6="13000.00000" pt_clust_7="13000.00000" pt_clust_8="13000.00000" pt_clust_9="20.22911" pt_clust_10="33.38053"></scales>
<clustering>
<clus scale="   20.229">  1  9  2 -1</clus>
<clus scale="   33.381">  2 10  1 -1</clus>
<clus scale="   90.591">  5  6 -1 -1</clus>
<clus scale="   91.265">  7  8 -1 -1</clus>
<clus scale="  115.290">  2  5  1 -1</clus>
<clus scale="   33.381">  2  5  1 -1</clus>
</clustering>
</event>
<event>
10    2  0.1133532E-006  0.1257799E+03  0.7546771E-02  0.1234615E+00
         -2   -1    0    0    0  501 -0.00000000000E+00  0.00000000000E+00  0.35089460940E+03  0.35089460940E+03  0.00000000000E+00 0.  1.
          2   -1    0    0  503    0  0.00000000000E+00 -0.00000000000E+00 -0.25516766766E+03  0.25516766766E+03  0.00000000000E+00 0. -1.
         23    2    1    2    0    0  0.21059086380E+02 -0.36884008554E+02  0.11171895429E+02  0.98110811776E+02  0.87732576240E+02 0.  0.
         23    2    1    2    0    0 -0.45226965706E+02  0.13024093775E+03 -0.11401135202E+03  0.20047170457E+03  0.90455158235E+02 0.  0.
        -13    1    4    4    0    0  0.24075940808E+02  0.56228784222E+02 -0.26995680648E+02  0.66858760642E+02  0.00000000000E+00 0.  1.
         13    1    4    4    0    0 -0.69302906514E+02  0.74012153524E+02 -0.87015671376E+02  0.13361294393E+03  0.00000000000E+00 0. -1.
        -13    1    3    3    0    0  0.16753203849E+02  0.24972761393E+02  0.19062067527E+02  0.35604368681E+02  0.00000000000E+00 0.  1.
         13    1    3    3    0    0  0.43058825308E+01 -0.61856769947E+02 -0.78901720979E+01  0.62506443095E+02  0.00000000000E+00 0. -1.
         21    1    1    2  502  501  0.14331861381E+01 -0.64121109151E+02  0.24202622176E+03  0.25038023620E+03  0.00000000000E+00 0.  1.
         21    1    1    2  503  502  0.22734693188E+02 -0.29235820041E+02 -0.43459823418E+02  0.57099524510E+02  0.00000000000E+00 0.  1.
<scales pt_clust_5="13000.00000" pt_clust_6="13000.00000" pt_clust_7="13000.00000" pt_clust_8="13000.00000" pt_clust_9="64.74492" pt_clust_10="37.03511"></scales>
<clustering>
<clus scale="   37.035">  2 10  1 -1</clus>
<clus scale="   64.745">  1  9  2 -1</clus>
<clus scale="   87.733">  7  8 -1 -1</clus>
<clus scale="   90.455">  5  6 -1 -1</clus>
<clus scale="  123.836">  1  7  2 -1</clus>
<clus scale="   37.035">  2  5  1 -1</clus>
</clustering>
</event>
<event>
10    2  0.1133532E-006  0.1224956E+03  0.7546771E-02  0.1239101E+00
          1   -1    0    0  503    0  0.00000000000E+00  0.00000000000E+00  0.17101078380E+03  0.17101078380E+03  0.00000000000E+00 0. -1.
         -1   -1    0    0    0  501 -0.00000000000E+00 -0.00000000000E+00 -0.30254223245E+03  0.30254223245E+03  0.00000000000E+00 0.  1.
         23    2    1    2    0    0  0.61023116788E+02  0.13981605157E+02 -0.13609696393E+02  0.11178724718E+03  0.91607088865E+02 0.  0.
         23    2    1    2    0    0 -0.82794743764E+02 -0.71220536444E+02  0.52320865652E+02  0.15197463745E+03  0.91823107318E+02 0.  0.
        -11    1    3    3    0    0  0.50334850916E+02 -0.23149846118E+02  0.21645372524E+02  0.59481381488E+02  0.00000000000E+00 0. -1.
         11    1    3    3    0    0  0.10688265872E+02  0.37131451275E+02 -0.35255068917E+02  0.52305865690E+02  0.00000000000E+00 0.  1.
        -11    1    4    4    0    0  0.14696151616E+02 -0.19876184716E+02 -0.84729972923E+01  0.26131040436E+02  0.00000000000E+00 0.  1.
         11    1    4    4    0    0 -0.97490895380E+02 -0.51344351728E+02  0.60793862944E+02  0.12584359701E+03  0.00000000000E+00 0. -1.
         21    1    1    2  502  501 -0.71847526540E+01  0.51919537568E+02 -0.17247724639E+03  0.18026552520E+03  0.00000000000E+00 0.  1.
         21    1    1    2  503  502  0.28956379630E+02  0.53193937187E+01  0.22346284820E+01  0.29525606433E+02  0.00000000000E+00 0.  1.
<scales pt_clust_5="13000.00000" pt_clust_6="13000.00000" pt_clust_7="13000.00000" pt_clust_8="13000.00000" pt_clust_9="52.45213" pt_clust_10="29.44092"></scales>
<clustering>
<clus scale="   29.441">  1 10  2 -1</clus>
<clus scale="   52.452">  2  9  1 -1</clus>
<clus scale="   91.607">  5  6 -1 -1</clus>
<clus scale="   91.823">  7  8 -1 -1</clus>
<clus scale="  122.334">  2  5  1 -1</clus>
<clus scale="   29.441">  1  5  2 -1</clus>
</clustering>
</event>
<event>
10    2  0.1133532E-006  0.1448638E+03  0.7546771E-02  0.1227245E+00
          1   -1    0    0  503    0  0.00000000000E+00  0.00000000000E+00  0.44383171298E+03  0.44383171298E+03  0.00000000000E+00 0. -1.
         -1   -1    0    0    0  501 -0.00000000000E+00 -0.00000000000E+00 -0.16491512331E+03  0.16491512331E+03  0.00000000000E+00 0.  1.
         23    2    1    2    0    0 -0.15929676430E+01  0.12975853073E+02  0.59654244598E+01  0.94549901508E+02  0.93451523676E+02 0.  0.
         23    2    1    2    0    0  0.12071463762E+03  0.56842008377E+02  0.11779686374E+03  0.20089059511E+03  0.93155206204E+02 0.  0.
        -13    1    3    3    0    0 -0.19154358246E+02  0.42882195405E+02 -0.20179926915E+02  0.51117527061E+02  0.00000000000E+00 0.  1.
         13    1    3    3    0    0  0.17561390603E+02 -0.29906342333E+02  0.26145351374E+02  0.43432374447E+02  0.00000000000E+00 0. -1.
        -13    1    4    4    0    0  0.42427968757E+02 -0.19325781455E+02  0.63874303785E+02  0.79079359164E+02  0.00000000000E+00 0. -1.
         13    1    4    4    0    0  0.78286668862E+02  0.76167789833E+02  0.53922559956E+02  0.12181123594E+03  0.00000000000E+00 0.  1.
         21    1    1    2  502  501 -0.12848225287E+02 -0.10750247894E+03 -0.14876840952E+02  0.10928485837E+03  0.00000000000E+00 0. -1.
         21    1    1    2  503  502 -0.10627344469E+03  0.37684617494E+02  0.17003114242E+03  0.20402148131E+03  0.00000000000E+00 0.  1.
<scales pt_clust_5="13000.00000" pt_clust_6="13000.00000" pt_clust_7="13000.00000" pt_clust_8="13000.00000" pt_clust_9="101.74644" pt_clust_10="110.93969"></scales>
<clustering>
<clus scale="   93.155">  7  8 -1 -1</clus>
<clus scale="   93.452">  5  6 -1 -1</clus>
<clus scale="   94.362">  2  5  1 -1</clus>
<clus scale="  101.746">  2  9  1 -1</clus>
<clus scale="  110.940">  1 10  2 -1</clus>
<clus scale="  110.940">  1  5  2 -1</clus>
</clustering>
</event>
<event>
10    2  0.1133532E-006  0.8911068E+02  0.7546771E-02  0.1307587E+00
         -4   -1    0    0    0  501 -0.00000000000E+00  0.00000000000E+00  0.20076531091E+03  0.20076531091E+03  0.00000000000E+00 0.  1.
          4   -1    0    0  503    0  0.00000000000E+00 -0.00000000000E+00 -0.93267939946E+02  0.93267939946E+02  0.00000000000E+00 0. -1.
         23    2    1    2    0    0 -0.23439849422E+01  0.13037840033E+02  0.42536228959E+02  0.99030465495E+02  0.88443330918E+02 0.  0.
         23    2    1    2    0    0  0.15185331696E+02  0.29927108837E+02  0.22735835602E+02  0.93568221587E+02  0.84331890341E+02 0.  0.
        -13    1    4    4    0    0  0.32998474354E+02 -0.10056192666E+01  0.41669421973E+02  0.53162499070E+02  0.00000000000E+00 0.  1.
         13    1    4    4    0    0 -0.17813142658E+02  0.30932728103E+02 -0.18933586371E+02  0.40405722517E+02  0.00000000000E+00 0. -1.
        -13    1    3    3    0    0 -0.43030135762E+02  0.20070825629E+01  0.36468857562E+02  0.56441106793E+02  0.00000000000E+00 0.  1.
         13    1    3    3    0    0  0.40686150820E+02  0.11030757471E+02  0.60673713972E+01  0.42589358702E+02  0.00000000000E+00 0. -1.
         21    1    1    2  502  501  0.10470261160E+02 -0.19619397832E+02  0.59979304130E+02  0.63969243110E+02  0.00000000000E+00 0.  1.
         21    1    1    2  503  502 -0.23311607914E+02 -0.23345551038E+02 -0.17753997731E+02  0.37465320661E+02  0.00000000000E+00 0.  1.
<scales pt_clust_5="13000.00000" pt_clust_6="13000.00000" pt_clust_7="13000.00000" pt_clust_8="13000.00000" pt_clust_9="22.23842" pt_clust_10="33.48619"></scales>
<clustering>
<clus scale="   22.238">  1  9  2 -1</clus>
<clus scale="   33.486">  2 10  1 -1</clus>
<clus scale="   84.332">  5  6 -1 -1</clus>
<clus scale="   85.032">  2  5  1 -1</clus>
<clus scale="   88.443">  7  8 -1 -1</clus>
<clus scale="   33.486">  2  5  1 -1</clus>
</clustering>
</event>
<event>
10    2  0.1133532E-006  0.1045391E+03  0.7546771E-02  0.1271288E+00
         -1   -1    0    0    0  501 -0.00000000000E+00  0.00000000000E+00  0.44023718459E+02  0.44023718459E+02  0.00000000000E+00 0.  1.
          1   -1    0    0  503    0  0.00000000000E+00 -0.00000000000E+00 -0.51159825812E+03  0.51159825812E+03  0.00000000000E+00 0. -1.
         23    2    1    2    0    0 -0.27061785161E+01  0.78635590410E+02 -0.12087095540E+03  0.17056207352E+03  0.91053575338E+02 0.  0.
         23    2    1    2    0    0  0.13300342549E+02 -0.25645467107E+02 -0.18943202735E+03  0.21241025272E+03  0.91646240391E+02 0.  0.
        -11    1    4    4    0    0  0.26921473177E+02  0.27032855448E+02 -0.51170048816E+02  0.63827226851E+02  0.00000000000E+00 0.  1.
         11    1    4    4    0    0 -0.13621130628E+02 -0.52678322556E+02 -0.13826197853E+03  0.14858302587E+03  0.00000000000E+00 0. -1.
        -11    1    3    3    0    0 -0.26851650658E+02  0.89040916821E+02 -0.10298419214E+03  0.13876253040E+03  0.00000000000E+00 0. -1.
         11    1    3    3    0    0  0.24145472142E+02 -0.10405326411E+02 -0.17886763257E+02  0.31799543118E+02  0.00000000000E+00 0.  1.
         21    1    1    2  502  501 -0.17923708573E+02 -0.30973660242E+02 -0.42517737219E+02  0.55573239388E+02  0.00000000000E+00 0. -1.
         21    1    1    2  503  502  0.73295445407E+01 -0.22016463061E+02 -0.11475381970E+03  0.11707641096E+03  0.00000000000E+00 0. -1.
<scales pt_clust_5="13000.00000" pt_clust_6="13000.00000" pt_clust_7="13000.00000" pt_clust_8="13000.00000" pt_clust_9="37.75426" pt_clust_10="23.20446"></scales>
<clustering>
<clus scale="   23.204">  2 10  1 -1</clus>
<clus scale="   37.754">  1  9  2 -1</clus>
<clus scale="   91.054">  7  8 -1 -1</clus>
<clus scale="   91.646">  5  6 -1 -1</clus>
<clus scale="  104.020">  1  7  2 -1</clus>
<clus scale="   23.204">  2  5  1 -1</clus>
</clustering>
</event>
<event>
10    2  0.1133532E-006  0.1826066E+03  0.7546771E-02  0.1165371E+00
         -2   -1    0    0    0  501 -0.00000000000E+00  0.00000000000E+00  0.46736446769E+02  0.46736446769E+02  0.00000000000E+00 0.  1.
          2   -1    0    0  502    0  0.00000000000E+00 -0.00000000000E+00 -0.12523829397E+04  0.12523829397E+04  0.00000000000E+00 0. -1.
         23    2    1    2    0    0  0.16485811063E+02 -0.14884260104E+03 -0.29882356057E+03  0.34613152229E+03  0.89920011770E+02 0.  0.
         23    2    1    2    0    0 -0.95651086721E+02  0.15871253629E+03 -0.57868424520E+03  0.61433123084E+03  0.90490916490E+02 0.  0.
        -11    1    3    3    0    0 -0.10524196334E+02 -0.11172383649E+03 -0.26878748676E+03  0.29127253112E+03  0.00000000000E+00 0.  1.
         11    1    3    3    0    0  0.27010007397E+02 -0.37118764556E+02 -0.30036073815E+02  0.54858991168E+02  0.00000000000E+00 0. -1.
        -13    1    4    4    0    0 -0.84670721632E+02  0.77889550882E+02 -0.24269055947E+03  0.26857889138E+03  0.00000000000E+00 0.  1.
         13    1    4    4    0    0 -0.10980365089E+02  0.80822985413E+02 -0.33599368573E+03  0.34575233945E+03  0.00000000000E+00 0. -1.
         21    1    1    2  502  503  0.44012746140E+02 -0.18181014201E+02 -0.18819729891E+03  0.19412855127E+03  0.00000000000E+00 0. -1.
         21    1    1    2  503  501  0.35152529518E+02  0.83110789490E+01 -0.13994138827E+03  0.14452808210E+03  0.00000000000E+00 0. -1.
<scales pt_clust_5="13000.00000" pt_clust_6="13000.00000" pt_clust_7="13000.00000" pt_clust_8="13000.00000" pt_clust_9="83.74555" pt_clust_10="22.18355"></scales>
<clustering>
<clus scale="   22.184">  9 10 -1 -1</clus>
<clus scale="   83.746">  2  9  1 -1</clus>
<clus scale="   89.920">  5  6 -1 -1</clus>
<clus scale="   90.491">  7  8 -1 -1</clus>
<clus scale="  182.324">  1  5  2 -1</clus>
<clus scale="   83.746">  2  5  1 -1</clus>
</clustering>
</event>
<event>
10    2  0.1133532E-006  0.1263410E+03  0.7546771E-02  0.1238160E+00
         -1   -1    0    0    0  501 -0.00000000000E+00  0.00000000000E+00  0.26196145213E+03  0.26196145213E+03  0.00000000000E+00 0.  1.
          1   -1    0    0  503    0  0.00000000000E+00 -0.00000000000E+00 -0.28402405404E+03  0.28402405404E+03  0.00000000000E+00 0. -1.
         23    2    1    2    0    0 -0.31020626347E+02  0.43577028780E+02  0.18009856974E+03  0.21579035711E+03  0.10615435319E+03 0.  0.
         23    2    1    2    0    0  0.13148879940E+02 -0.10104818537E+03 -0.19404895109E+03  0.23719788650E+03  0.90687447489E+02 0.  0.
        -11    1    3    3    0    0  0.36225936784E+02  0.23470658236E+02  0.38890160857E+02  0.58100214332E+02  0.00000000000E+00 0. -1.
         11    1    3    3    0    0 -0.67246563131E+02  0.20106370544E+02  0.14120840888E+03  0.15769014278E+03  0.00000000000E+00 0.  1.
        -13    1    4    4    0    0  0.19619290554E+02  0.93253950459E+01 -0.57709978129E+02  0.61662964008E+02  0.00000000000E+00 0.  1.
         13    1    4    4    0    0 -0.64704106145E+01 -0.11037358041E+03 -0.13633897296E+03  0.17553492249E+03  0.00000000000E+00 0. -1.
         21    1    1    2  502  501  0.69471649293E+01  0.19399124367E+02  0.31070806676E+02  0.37282491256E+02  0.00000000000E+00 0.  1.
         21    1    1    2  503  502  0.10924581478E+02  0.38072032221E+02 -0.39183027241E+02  0.55714771306E+02  0.00000000000E+00 0. -1.
<scales pt_clust_5="13000.00000" pt_clust_6="13000.00000" pt_clust_7="13000.00000" pt_clust_8="13000.00000" pt_clust_9="20.60556" pt_clust_10="40.35462"></scales>
<clustering>
<clus scale="   20.606">  1  9  2 -1</clus>
<clus scale="   40.355">  2 10  1 -1</clus>
<clus scale="   90.687">  7  8 -1 -1</clus>
<clus scale="  106.154">  5  6 -1 -1</clus>
<clus scale="  113.655">  2  7  1 -1</clus>
<clus scale="   40.355">  2  5  1 -1</clus>
</clustering>
</event>
<event>
10    2  0.1133532E-006  0.1897565E+03  0.7546771E-02  0.1158711E+00
         -2   -1    0    0    0  501 -0.00000000000E+00  0.00000000000E+00  0.36731619780E+03  0.36731619780E+03  0.00000000000E+00 0.  1.
          2   -1    0    0  503    0  0.00000000000E+00 -0.00000000000E+00 -0.61176864041E+03  0.61176864041E+03  0.00000000000E+00 0. -1.
         23    2    1    2    0    0 -0.55907818298E+02  0.65118941782E+02  0.22607788743E+03  0.25847228748E+03  0.91271854846E+02 0.  0.
         23    2    1    2    0    0  0.13786934311E+03 -0.41949890097E+02 -0.25932007416E+03  0.31031334436E+03  0.90992976546E+02 0.  0.
        -13    1    3    3    0    0 -0.47301765699E+02  0.84021742973E+02  0.21331436774E+03  0.23409427548E+03  0.00000000000E+00 0.  1.
         13    1    3    3    0    0 -0.86060525992E+01 -0.18902801191E+02  0.12763519692E+02  0.24378012001E+02  0.00000000000E+00 0. -1.
        -13    1    4    4    0    0  0.66555300686E+02 -0.64386964857E+02 -0.11383430900E+03  0.14674310614E+03  0.00000000000E+00 0.  1.
         13    1    4    4    0    0  0.71314042423E+02  0.22437074760E+02 -0.14548576516E+03  0.16357023823E+03  0.00000000000E+00 0. -1.
         21    1    1    2  502  501 -0.12234539057E+03 -0.27504943308E+01  0.59330298421E+02  0.13600016222E+03  0.00000000000E+00 0.  1.
         21    1    1    2  503  502  0.40383865757E+02 -0.20418557354E+02 -0.27054055430E+03  0.27429904414E+03  0.00000000000E+00 0. -1.
<scales pt_clust_5="13000.00000" pt_clust_6="13000.00000" pt_clust_7="13000.00000" pt_clust_8="13000.00000" pt_clust_9="117.89190" pt_clust_10="45.25234"></scales>
<clustering>
<clus scale="   45.252">  2 10  1 -1</clus>
<clus scale="   90.993">  7  8 -1 -1</clus>
<clus scale="   91.272">  5  6 -1 -1</clus>
<clus scale="  117.892">  1  9  2 -1</clus>
<clus scale="  189.622">  2  7  1 -1</clus>
<clus scale="   45.252">  2  5  1 -1</clus>
</clustering>
</event>
<event>
10    2  0.1133532E-006  0.1082466E+03  0.7546771E-02  0.1265178E+00
          2   -1    0    0  503    0  0.00000000000E+00  0.00000000000E+00  0.24999959703E+03  0.24999959703E+03  0.00000000000E+00 0. -1.
         -2   -1    0    0    0  501 -0.00000000000E+00 -0.00000000000E+00 -0.93629215511E+02  0.93629215511E+02  0.00000000000E+00 0.  1.
         23    2    1    2    0    0  0.81317161319E+02 -0.11790571479E+02  0.32048746028E+02  0.12645095247E+03  0.90615798611E+02 0.  0.
         23    2    1    2    0    0 -0.36042700242E+02  0.18690395194E+02  0.39932261946E+02  0.10422631695E+03  0.87293370244E+02 0.  0.
        -13    1    4    4    0    0 -0.95180429461E+01  0.23994303465E+02  0.63375898228E+02  0.68431164074E+02  0.00000000000E+00 0. -1.
         13    1    4    4    0    0 -0.26524657296E+02 -0.53039082716E+01 -0.23443636282E+02  0.35795152880E+02  0.00000000000E+00 0.  1.
        -13    1    3    3    0    0  0.73804603343E+02 -0.46059208149E+02  0.19210837884E+02  0.89093357901E+02  0.00000000000E+00 0.  1.
         13    1    3    3    0    0  0.75125579758E+01  0.34268636669E+02  0.12837908144E+02  0.37357594569E+02  0.00000000000E+00 0. -1.
         21    1    1    2  502  501 -0.20170048835E+02  0.48146387034E+01 -0.32932959647E+01  0.20996604824E+02  0.00000000000E+00 0. -1.
         21    1    1    2  503  502 -0.25104412243E+02 -0.11714462418E+02  0.87682669513E+02  0.91954938294E+02  0.00000000000E+00 0. -1.
<scales pt_clust_5="13000.00000" pt_clust_6="13000.00000" pt_clust_7="13000.00000" pt_clust_8="13000.00000" pt_clust_9="20.73672" pt_clust_10="28.13089"></scales>
<clustering>
<clus scale="   20.737">  2  9  1 -1</clus>
<clus scale="   28.131">  1 10  2 -1</clus>
<clus scale="   87.293">  5  6 -1 -1</clus>
<clus scale="   90.616">  7  8 -1 -1</clus>
<clus scale="  105.481">  1  5  2 -1</clus>
<clus scale="   28.131">  1  5  2 -1</clus>
</clustering>
</event>
<event>
10    2  0.1133532E-006  0.1199128E+03  0.7546771E-02  0.1244428E+00
         -2   -1    0    0    0  501 -0.00000000000E+00  0.00000000000E+00  0.15575454740E+03  0.15575454740E+03  0.00000000000E+00 0.  1.
          2   -1    0    0  503    0  0.00000000000E+00 -0.00000000000E+00 -0.15358223022E+03  0.15358223022E+03  0.00000000000E+00 0. -1.
         23    2    1    2    0    0  0.44503453693E+02 -0.57420630155E+02  0.14341309760E+02  0.11697346597E+03  0.90550717372E+02 0.  0.
         23    2    1    2    0    0 -0.54043224763E+02  0.53662196413E+02  0.14672070657E+02  0.12201557793E+03  0.94192516331E+02 0.  0.
        -11    1    4    4    0    0  0.10997202778E+02  0.54620360471E+02  0.20458068626E+01  0.55753991540E+02  0.00000000000E+00 0.  1.
         11    1    4    4    0    0 -0.65040427541E+02 -0.95816405773E+00  0.12626263795E+02  0.66261586387E+02  0.00000000000E+00 0. -1.
        -11    1    3    3    0    0 -0.11042462536E+02 -0.58374583780E+02  0.15531985263E+02  0.61406600431E+02  0.00000000000E+00 0. -1.
         11    1    3    3    0    0  0.55545916229E+02  0.95395362439E+00 -0.11906755035E+01  0.55566865535E+02  0.00000000000E+00 0.  1.
         21    1    1    2  502  501  0.24257397664E+02  0.19947871257E+02  0.49107019827E+01  0.31787637582E+02  0.00000000000E+00 0.  1.
         21    1    1    2  503  502 -0.14717626594E+02 -0.16189437515E+02 -0.31751765221E+02  0.38560096139E+02  0.00000000000E+00 0. -1.
<scales pt_clust_5="13000.00000" pt_clust_6="13000.00000" pt_clust_7="13000.00000" pt_clust_8="13000.00000" pt_clust_9="28.95145" pt_clust_10="21.87936"></scales>
<clustering>
<clus scale="   21.879">  2 10  1 -1</clus>
<clus scale="   28.951">  2  9  1 -1</clus>
<clus scale="   90.551">  7  8 -1 -1</clus>
<clus scale="   94.193">  5  6 -1 -1</clus>
<clus scale="  117.074">  1  7  2 -1</clus>
<clus scale="   21.879">  2  5  1 -1</clus>
</clustering>
</event>
<event>
10    2  0.1133532E-006  0.1280462E+03  0.7546771E-02  0.1235145E+00
         -1   -1    0    0    0  501 -0.00000000000E+00  0.00000000000E+00  0.27953569741E+03  0.27953569741E+03  0.00000000000E+00 0. -1.
          1   -1    0    0  503    0  0.00000000000E+00 -0.00000000000E+00 -0.31962690142E+03  0.31962690142E+03  0.00000000000E+00 0.  1.
         23    2    1    2    0    0 -0.92016148322E+02  0.72071557678E+02  0.11159651486E+03  0.18577455016E+03  0.91635802933E+02 0.  0.
         23    2    1    2    0    0  0.62990664373E+02 -0.34579163681E+02 -0.13420858126E+03  0.18570760844E+03  0.10635708809E+03 0.  0.
        -11    1    3    3    0    0  0.10621172103E+02  0.38815187475E+02  0.24477053887E+02  0.47101531212E+02  0.00000000000E+00 0.  1.
         11    1    3    3    0    0 -0.10263732043E+03  0.33256370204E+02  0.87119460976E+02  0.13867301895E+03  0.00000000000E+00 0. -1.
        -11    1    4    4    0    0  0.79394977748E+02  0.81243332277E+01 -0.10312417207E+03  0.13040000823E+03  0.00000000000E+00 0. -1.
         11    1    4    4    0    0 -0.16404313375E+02 -0.42703496908E+02 -0.31084409193E+02  0.55307600204E+02  0.00000000000E+00 0.  1.
         21    1    1    2  502  501  0.59756489678E+02 -0.17946378093E+02  0.92641638069E+02  0.11169325696E+03  0.00000000000E+00 0. -1.
         21    1    1    2  503  502 -0.30731005730E+02 -0.19546015905E+02 -0.11012077567E+03  0.11598718328E+03  0.00000000000E+00 0.  1.
<scales pt_clust_5="13000.00000" pt_clust_6="13000.00000" pt_clust_7="13000.00000" pt_clust_8="13000.00000" pt_clust_9="61.30839" pt_clust_10="36.42034"></scales>
<clustering>
<clus scale="   36.420">  2 10  1 -1</clus>
<clus scale="   61.308">  1  9  2 -1</clus>
<clus scale="   91.636">  5  6 -1 -1</clus>
<clus scale="  106.357">  7  8 -1 -1</clus>
<clus scale="  116.108">  1  5  2 -1</clus>
<clus scale="   36.420">  2  5  1 -1</clus>
</clustering>
</event>
<event>
10    2  0.1133532E-006  0.9574966E+02  0.7546771E-02  0.1289873E+00
         -1   -1    0    0    0  501 -0.00000000000E+00  0.00000000000E+00  0.32323059689E+03  0.32323059689E+03  0.00000000000E+00 0.  1.
          1   -1    0    0  503    0  0.00000000000E+00 -0.00000000000E+00 -0.49875456103E+02  0.49875456103E+02  0.00000000000E+00 0. -1.
         23    2    1    2    0    0  0.20797065427E+02 -0.21145135022E+02  0.14393959516E+03  0.17286317716E+03  0.91013385258E+02 0.  0.
         23    2    1    2    0    0  0.62907081487E+01  0.38731264660E+02  0.78914881902E+02  0.12618323550E+03  0.90304852934E+02 0.  0.
        -11    1    4    4    0    0 -0.28930630653E+02  0.48588418638E+02  0.26963528820E+02  0.62648604950E+02  0.00000000000E+00 0. -1.
         11    1    4    4    0    0  0.35221338802E+02 -0.98571539775E+01  0.51951353082E+02  0.63534630546E+02  0.00000000000E+00 0.  1.
        -13    1    3    3    0    0  0.23180332259E+02 -0.54961137317E+02  0.10853295053E+03  0.12384448219E+03  0.00000000000E+00 0.  1.
         13    1    3    3    0    0 -0.23832668319E+01  0.33816002295E+02  0.35406644633E+02  0.49018694966E+02  0.00000000000E+00 0. -1.
         21    1    1    2  502  501 -0.30253368341E+02  0.56022308087E+01  0.28703400289E+02  0.42077743216E+02  0.00000000000E+00 0.  1.
         21    1    1    2  503  502  0.31655947653E+01 -0.23188360447E+02  0.21797263431E+02  0.31981897122E+02  0.00000000000E+00 0.  1.
<scales pt_clust_5="13000.00000" pt_clust_6="13000.00000" pt_clust_7="13000.00000" pt_clust_8="13000.00000" pt_clust_9="29.85744" pt_clust_10="23.40344"></scales>
<clustering>
<clus scale="   23.403">  2 10  1 -1</clus>
<clus scale="   29.857">  2  9  1 -1</clus>
<clus scale="   90.305">  5  6 -1 -1</clus>
<clus scale="   91.013">  7  8 -1 -1</clus>
<clus scale="   95.076">  2  5  1 -1</clus>
<clus scale="   23.403">  2  5  1 -1</clus>
</clustering>
</event>
<event>
10    2  0.1133532E-006  0.1094719E+03  0.7546771E-02  0.1265748E+00
          1   -1    0    0  503    0  0.00000000000E+00  0.00000000000E+00  0.46711518434E+03  0.46711518434E+03  0.00000000000E+00 0. -1.
         -1   -1    0    0    0  501 -0.00000000000E+00 -0.00000000000E+00 -0.37222457285E+03  0.37222457285E+03  0.00000000000E+00 0.  1.
         23    2    1    2    0    0  0.27448460135E+02  0.18233527924E+02 -0.21920293910E+03  0.24271069269E+03  0.98856827439E+02 0.  0.
         23    2    1    2    0    0 -0.89375376220E+01 -0.74406496165E+01  0.39608509570E+03  0.40617552459E+03  0.89218332742E+02 0.  0.
        -11    1    3    3    0    0  0.19248025651E+02  0.41793166757E+02 -0.21172626861E+03  0.21666833663E+03  0.00000000000E+00 0.  1.
         11    1    3    3    0    0  0.82004344844E+01 -0.23559638833E+02 -0.74766704968E+01  0.26042356065E+02  0.00000000000E+00 0. -1.
        -13    1    4    4    0    0  0.25219822930E+02 -0.34738028817E+02  0.14168944333E+03  0.14804954734E+03  0.00000000000E+00 0.  1.
         13    1    4    4    0    0 -0.34157360552E+02  0.27297379200E+02  0.25439565237E+03  0.25812597726E+03  0.00000000000E+00 0. -1.
         21    1    1    2  502  501  0.31176185148E+01  0.20279154988E+02 -0.12870223564E+03  0.13032739210E+03  0.00000000000E+00 0.  1.
         21    1    1    2  503  502 -0.21628541028E+02 -0.31072033295E+02  0.46710690534E+02  0.60126147808E+02  0.00000000000E+00 0.  1.
<scales pt_clust_5="13000.00000" pt_clust_6="13000.00000" pt_clust_7="13000.00000" pt_clust_8="13000.00000" pt_clust_9="20.51740" pt_clust_10="37.35011"></scales>
<clustering>
<clus scale="   20.517">  2  9  1 -1</clus>
<clus scale="   37.350">  1 10  2 -1</clus>
<clus scale="   89.218">  7  8 -1 -1</clus>
<clus scale="   98.857">  5  6 -1 -1</clus>
<clus scale="  100.853">  1  7  2 -1</clus>
<clus scale="   37.350">  1  5  2 -1</clus>
</clustering>
</event>
<event>
10    2  0.1133532E-006  0.1393109E+03  0.7546771E-02  0.1217244E+00
          1   -1    0    0  503    0  0.00000000000E+00  0.00000000000E+00  0.12957916855E+04  0.12957916855E+04  0.00000000000E+00 0. -1.
         -1   -1    0    0    0  501 -0.00000000000E+00 -0.00000000000E+00 -0.46818077010E+02  0.46818077010E+02  0.00000000000E+00 0.  1.
         23    2    1    2    0    0  0.13068674663E+03 -0.10403619828E+03  0.41134895825E+03  0.45339933095E+03  0.91980604239E+02 0.  0.
         23    2    1    2    0    0 -0.86140378949E+02  0.28529651238E+02  0.67674330961E+03  0.68729513011E+03  0.78479187590E+02 0.  0.
        -11    1    3    3    0    0  0.13000361469E+03 -0.66530278745E+02  0.26781406881E+03  0.30504359242E+03  0.00000000000E+00 0.  1.
         11    1    3    3    0    0  0.68313194019E+00 -0.37505919537E+02  0.14353488943E+03  0.14835573853E+03  0.00000000000E+00 0. -1.
        -11    1    4    4    0    0 -0.45186606810E+02 -0.25534765950E+02  0.27183074083E+03  0.27674140522E+03  0.00000000000E+00 0.  1.
         11    1    4    4    0    0 -0.40953772140E+02  0.54064417188E+02  0.40491256879E+03  0.41055372489E+03  0.00000000000E+00 0. -1.
         21    1    1    2  502  501 -0.15870117844E+02  0.20135494489E+02 -0.37128391631E+01  0.25905288135E+02  0.00000000000E+00 0. -1.
         21    1    1    2  503  502 -0.28676249838E+02  0.55371052554E+02  0.16459417982E+03  0.17601001334E+03  0.00000000000E+00 0. -1.
<scales pt_clust_5="13000.00000" pt_clust_6="13000.00000" pt_clust_7="13000.00000" pt_clust_8="13000.00000" pt_clust_9="25.63784" pt_clust_10="66.85148"></scales>
<clustering>
<clus scale="   25.638">  2  9  1 -1</clus>
<clus scale="   66.851">  2 10  1 -1</clus>
<clus scale="   78.479">  7  8 -1 -1</clus>
<clus scale="   91.981">  5  6 -1 -1</clus>
<clus scale="  130.790">  1  7  2 -1</clus>
<clus scale="  130.790">  1  5  2 -1</clus>
</clustering>
</event>
<event>
10    2  0.1133532E-006  0.1288568E+03  0.7546771E-02  0.1229587E+00
         -2   -1    0    0    0  501 -0.00000000000E+00  0.00000000000E+00  0.92158869936E+02  0.92158869936E+02  0.00000000000E+00 0.  1.
          2   -1    0    0  503    0  0.00000000000E+00 -0.00000000000E+00 -0.43787684834E+03  0.43787684834E+03  0.00000000000E+00 0. -1.
         23    2    1    2    0    0 -0.20751564921E+02 -0.67914678750E+02 -0.15943371671E+02  0.12090409250E+03  0.96543137747E+02 0.  0.
         23    2    1    2    0    0  0.62057485488E+02  0.66056631387E+02 -0.30395110846E+03  0.33110791212E+03  0.95034536219E+02 0.  0.
        -11    1    4    4    0    0  0.69203754879E+02  0.20631681865E+02 -0.10860007406E+03  0.13041779814E+03  0.00000000000E+00 0.  1.
         11    1    4    4    0    0 -0.71462693903E+01  0.45424949521E+02 -0.19535103440E+03  0.20069011397E+03  0.00000000000E+00 0. -1.
        -11    1    3    3    0    0  0.38375390594E+02 -0.17638474887E+02 -0.58448633048E+01  0.42637411116E+02  0.00000000000E+00 0.  1.
         11    1    3    3    0    0 -0.59126955515E+02 -0.50276203862E+02 -0.10098508366E+02  0.78266681382E+02  0.00000000000E+00 0. -1.
         21    1    1    2  502  501  0.63620348669E+00 -0.20843108879E+02  0.47325818872E+01  0.21383107210E+02  0.00000000000E+00 0.  1.
         21    1    1    2  503  502 -0.41942124054E+02  0.22701156242E+02 -0.30556080157E+02  0.56640606454E+02  0.00000000000E+00 0.  1.
<scales pt_clust_5="13000.00000" pt_clust_6="13000.00000" pt_clust_7="13000.00000" pt_clust_8="13000.00000" pt_clust_9="20.85282" pt_clust_10="46.05948"></scales>
<clustering>
<clus scale="   20.853">  1  9  2 -1</clus>
<clus scale="   46.059">  1 10  2 -1</clus>
<clus scale="   95.035">  5  6 -1 -1</clus>
<clus scale="   96.543">  7  8 -1 -1</clus>
<clus scale="  127.730">  2  5  1 -1</clus>
<clus scale="  127.730">  2  5  1 -1</clus>
</clustering>
</event>
<event>
10    2  0.1133532E-006  0.1399809E+03  0.7546771E-02  0.1213636E+00
         -1   -1    0    0    0  501 -0.00000000000E+00  0.00000000000E+00  0.23555692245E+03  0.23555692245E+03  0.00000000000E+00 0.  1.
          1   -1    0    0  503    0  0.00000000000E+00 -0.00000000000E+00 -0.16859505342E+03  0.16859505342E+03  0.00000000000E+00 0. -1.
         23    2    1    2    0    0 -0.90225342208E+02  0.21168249309E+02  0.25569886939E+02  0.13166296448E+03  0.89958934748E+02 0.  0.
         23    2    1    2    0    0  0.12548526178E+03  0.29591031643E+00 -0.21880371725E+01  0.15516770377E+03  0.91244672721E+02 0.  0.
        -11    1    3    3    0    0 -0.79295831766E+02 -0.22314345703E+02  0.27336281118E+02  0.86793036731E+02  0.00000000000E+00 0. -1.
         11    1    3    3    0    0 -0.10929510443E+02  0.43482595011E+02 -0.17663941790E+01  0.44869927745E+02  0.00000000000E+00 0.  1.
        -11    1    4    4    0    0  0.36198752115E+02  0.24660049753E+01  0.42016526215E+02  0.55514136131E+02  0.00000000000E+00 0.  1.
         11    1    4    4    0    0  0.89286509669E+02 -0.21700946589E+01 -0.44204563387E+02  0.99653567643E+02  0.00000000000E+00 0. -1.
         21    1    1    2  502  501 -0.75093665723E+01 -0.18859425923E+02  0.73605241261E+02  0.76353127464E+02  0.00000000000E+00 0. -1.
         21    1    1    2  503  502 -0.27750553004E+02 -0.26047337021E+01 -0.30025222000E+02  0.40968180162E+02  0.00000000000E+00 0.  1.
<scales pt_clust_5="13000.00000" pt_clust_6="13000.00000" pt_clust_7="13000.00000" pt_clust_8="13000.00000" pt_clust_9="20.29947" pt_clust_10="28.19406"></scales>
<clustering>
<clus scale="   20.299">  1  9  2 -1</clus>
<clus scale="   28.194">  2 10  1 -1</clus>
<clus scale="   89.959">  5  6 -1 -1</clus>
<clus scale="   91.245">  7  8 -1 -1</clus>
<clus scale="  139.146">  1  5  2 -1</clus>
<clus scale="   28.194">  2  5  1 -1</clus>
</clustering>
</event>
<event>
10    2  0.1133532E-006  0.1725769E+03  0.7546771E-02  0.1193394E+00
         -1   -1    0    0    0  501 -0.00000000000E+00  0.00000000000E+00  0.10616700220E+03  0.10616700220E+03  0.00000000000E+00 0.  1.
          1   -1    0    0  503    0  0.00000000000E+00 -0.00000000000E+00 -0.10509766671E+04  0.10509766671E+04  0.00000000000E+00 0. -1.
         23    2    1    2    0    0 -0.67171479477E+02  0.26583105502E+02 -0.27024756083E+02  0.11877494759E+03  0.90324313335E+02 0.  0.
         23    2    1    2    0    0  0.66585235972E+02 -0.11438906778E+03 -0.63225760198E+03  0.65240771334E+03  0.91475115131E+02 0.  0.
        -13    1    4    4    0    0  0.38029054022E+02 -0.10767923407E+03 -0.59010305234E+03  0.60105127799E+03  0.00000000000E+00 0. -1.
         13    1    4    4    0    0  0.28556181950E+02 -0.67098337013E+01 -0.42154549643E+02  0.51356435346E+02  0.00000000000E+00 0.  1.
        -13    1    3    3    0    0  0.13177450846E+02 -0.19093529066E+02 -0.66097993654E+01  0.24122551910E+02  0.00000000000E+00 0.  1.
         13    1    3    3    0    0 -0.80348930323E+02  0.45676634568E+02 -0.20414956718E+02  0.94652395677E+02  0.00000000000E+00 0. -1.
         21    1    1    2  502  501  0.39462948664E+00  0.12243901934E+03 -0.27331969747E+02  0.12545320147E+03  0.00000000000E+00 0.  1.
         21    1    1    2  503  502  0.19161401884E+00 -0.34633057064E+02 -0.25819533705E+03  0.26050780686E+03  0.00000000000E+00 0.  1.
<scales pt_clust_5="13000.00000" pt_clust_6="13000.00000" pt_clust_7="13000.00000" pt_clust_8="13000.00000" pt_clust_9="146.33899" pt_clust_10="34.63359"></scales>
<clustering>
<clus scale="   34.634">  2 10  1 -1</clus>
<clus scale="   90.324">  7  8 -1 -1</clus>
<clus scale="   91.475">  5  6 -1 -1</clus>
<clus scale="  114.958">  1  7  2 -1</clus>
<clus scale="  146.339">  1  9  2 -1</clus>
<clus scale="   34.634">  2  5  1 -1</clus>
</clustering>
</event>
<event>
10    2  0.1133532E-006  0.9132849E+02  0.7546771E-02  0.1302453E+00
          2   -1    0    0  503    0  0.00000000000E+00  0.00000000000E+00  0.77970787595E+02  0.77970787595E+02  0.00000000000E+00 0. -1.
         -2   -1    0    0    0  501 -0.00000000000E+00 -0.00000000000E+00 -0.27400642108E+03  0.27400642108E+03  0.00000000000E+00 0.  1.
         23    2    1    2    0    0  0.11798023657E+02  0.12483525495E+02 -0.73170913371E+02  0.11776155952E+03  0.90657435255E+02 0.  0.
         23    2    1    2    0    0  0.32286547434E+02 -0.65135945992E+01 -0.49168605525E+02  0.10444105976E+03  0.86055418971E+02 0.  0.
        -13    1    4    4    0    0  0.20806744249E+02  0.25187882155E+02 -0.60595251625E+02  0.68841372249E+02  0.00000000000E+00 0.  1.
         13    1    4    4    0    0  0.11479803185E+02 -0.31701476755E+02  0.11426646100E+02  0.35599687508E+02  0.00000000000E+00 0. -1.
        -13    1    3    3    0    0  0.31941750061E+02 -0.30611696441E+02 -0.41125436478E+02  0.60404080007E+02  0.00000000000E+00 0.  1.
         13    1    3    3    0    0 -0.20143726404E+02  0.43095221937E+02 -0.32045476893E+02  0.57357479517E+02  0.00000000000E+00 0. -1.
         21    1    1    2  502  501 -0.60272146029E+01 -0.27038900749E+02 -0.81053277965E+02  0.85656659627E+02  0.00000000000E+00 0. -1.
         21    1    1    2  503  502 -0.38057356488E+02  0.21068969853E+02  0.73571633794E+01  0.44117929762E+02  0.00000000000E+00 0. -1.
<scales pt_clust_5="13000.00000" pt_clust_6="13000.00000" pt_clust_7="13000.00000" pt_clust_8="13000.00000" pt_clust_9="27.70252" pt_clust_10="42.82267"></scales>
<clustering>
<clus scale="   27.703">  2  9  1 -1</clus>
<clus scale="   42.823">  1 10  2 -1</clus>
<clus scale="   86.055">  5  6 -1 -1</clus>
<clus scale="   86.762">  1  5  2 -1</clus>
<clus scale="   90.657">  7  8 -1 -1</clus>
<clus scale="   42.823">  1  5  2 -1</clus>
</clustering>
</event>
<event>
10    2  0.1133532E-006  0.1732369E+03  0.7546771E-02  0.1174681E+00
          3   -1    0    0  503    0  0.00000000000E+00  0.00000000000E+00  0.48054935497E+03  0.48054935497E+03  0.00000000000E+00 0. -1.
         -3   -1    0    0    0  501 -0.00000000000E+00 -0.00000000000E+00 -0.20906729681E+03  0.20906729681E+03  0.00000000000E+00 0.  1.
         23    2    1    2    0    0  0.59270527204E+02  0.12097360773E+03  0.17833186494E+02  0.16375407681E+03  0.91377053837E+02 0.  0.
         23    2    1    2    0    0 -0.50769803225E+02 -0.12428301043E+03  0.33783197832E+03  0.37514128423E+03  0.92610463538E+02 0.  0.
        -13    1    4    4    0    0 -0.45942718538E+02 -0.63200771833E+02  0.28067693564E+03  0.29134964072E+03  0.00000000000E+00 0. -1.
         13    1    4    4    0    0 -0.48270846869E+01 -0.61082238593E+02  0.57155042679E+02  0.83791643508E+02  0.00000000000E+00 0.  1.
        -13    1    3    3    0    0  0.17899217979E+02  0.10772192278E+03 -0.13727009832E+02  0.11005828207E+03  0.00000000000E+00 0.  1.
         13    1    3    3    0    0  0.41371309225E+02  0.13251684951E+02  0.31560196326E+02  0.53695794744E+02  0.00000000000E+00 0. -1.
         21    1    1    2  502  501 -0.36727555221E+01  0.26115278728E+02 -0.11163460566E+03  0.11470737595E+03  0.00000000000E+00 0.  1.
         21    1    1    2  503  502 -0.48279684566E+01 -0.22805876036E+02  0.27451498999E+02  0.36013914790E+02  0.00000000000E+00 0. -1.
<scales pt_clust_5="13000.00000" pt_clust_6="13000.00000" pt_clust_7="13000.00000" pt_clust_8="13000.00000" pt_clust_9="26.29728" pt_clust_10="23.31131"></scales>
<clustering>
<clus scale="   23.311">  1 10  2 -1</clus>
<clus scale="   26.297">  2  9  1 -1</clus>
<clus scale="   91.377">  7  8 -1 -1</clus>
<clus scale="   92.610">  5  6 -1 -1</clus>
<clus scale="  172.581">  2  7  1 -1</clus>
<clus scale="   23.311">  1  5  2 -1</clus>
</clustering>
</event>
<event>
10    2  0.1133532E-006  0.1433481E+03  0.7546771E-02  0.1209295E+00
         -1   -1    0    0    0  501 -0.00000000000E+00  0.00000000000E+00  0.91860163781E+02  0.91860163781E+02  0.00000000000E+00 0.  1.
          1   -1    0    0  503    0  0.00000000000E+00 -0.00000000000E+00 -0.54212488431E+03  0.54212488431E+03  0.00000000000E+00 0. -1.
         23    2    1    2    0    0 -0.12600572939E+03 -0.53470401601E+01 -0.13605920527E+03  0.20620482266E+03  0.90012703951E+02 0.  0.
         23    2    1    2    0    0  0.90469351590E+02  0.24876875473E+02 -0.23715788554E+03  0.27110849936E+03  0.91936898153E+02 0.  0.
        -11    1    3    3    0    0 -0.36346149647E+01 -0.21650039990E+02 -0.53123775465E+02  0.57481041894E+02  0.00000000000E+00 0. -1.
         11    1    3    3    0    0 -0.12237111442E+03  0.16302999830E+02 -0.82935429801E+02  0.14872378076E+03  0.00000000000E+00 0.  1.
        -13    1    4    4    0    0  0.44142654392E+02  0.35344264836E+02 -0.20760794899E+03  0.21517167908E+03  0.00000000000E+00 0. -1.
         13    1    4    4    0    0  0.46326697198E+02 -0.10467389363E+02 -0.29549936551E+02  0.55936820284E+02  0.00000000000E+00 0.  1.
         21    1    1    2  502  501  0.19701609920E+02 -0.50063565669E+02  0.17087945924E+02  0.56449197840E+02  0.00000000000E+00 0. -1.
         21    1    1    2  503  502  0.15834767875E+02  0.30533730356E+02 -0.94135575644E+02  0.10022252823E+03  0.00000000000E+00 0.  1.
<scales pt_clust_5="13000.00000" pt_clust_6="13000.00000" pt_clust_7="13000.00000" pt_clust_8="13000.00000" pt_clust_9="52.81287" pt_clust_10="34.39547"></scales>
<clustering>
<clus scale="   34.395">  2 10  1 -1</clus>
<clus scale="   52.813">  1  9  2 -1</clus>
<clus scale="   90.013">  5  6 -1 -1</clus>
<clus scale="   91.937">  7  8 -1 -1</clus>
<clus scale="  142.122">  1  5  2 -1</clus>
<clus scale="   34.395">  2  5  1 -1</clus>
</clustering>
</event>
<event>
10    2  0.1133532E-006  0.1067528E+03  0.7546771E-02  0.1266753E+00
         -1   -1    0    0    0  501 -0.00000000000E+00  0.00000000000E+00  0.61870978828E+03  0.61870978828E+03  0.00000000000E+00 0.  1.
          1   -1    0    0  503    0  0.00000000000E+00 -0.00000000000E+00 -0.11957773959E+03  0.11957773959E+03  0.00000000000E+00 0. -1.
         23    2    1    2    0    0  0.35716102727E+02  0.67363998757E+02  0.85961387258E+02  0.14680556474E+03  0.91372673254E+02 0.  0.
         23    2    1    2    0    0  0.76910250403E+02 -0.39675268404E+02  0.25219063580E+02  0.12843703040E+03  0.91491836083E+02 0.  0.
        -13    1    4    4    0    0  0.26943662195E+02  0.12253157315E+02 -0.26505081410E+02  0.39731852930E+02  0.00000000000E+00 0. -1.
         13    1    4    4    0    0  0.49966588208E+02 -0.51928425720E+02  0.51724144991E+02  0.88705177470E+02  0.00000000000E+00 0.  1.
        -13    1    3    3    0    0  0.28088560051E+02  0.24346722343E+02 -0.12394286300E+02  0.39183522398E+02  0.00000000000E+00 0. -1.
         13    1    3    3    0    0  0.76275426760E+01  0.43017276414E+02  0.98355673559E+02  0.10762204234E+03  0.00000000000E+00 0.  1.
         21    1    1    2  502  501 -0.75752838723E+02 -0.33799040002E+02  0.41089768360E+03  0.41918703948E+03  0.00000000000E+00 0.  1.
         21    1    1    2  503  502 -0.36873514408E+02  0.61103096493E+01 -0.22946085748E+02  0.43857893246E+02  0.00000000000E+00 0.  1.
<scales pt_clust_5="13000.00000" pt_clust_6="13000.00000" pt_clust_7="13000.00000" pt_clust_8="13000.00000" pt_clust_9="84.45663" pt_clust_10="37.37636"></scales>
<clustering>
<clus scale="   37.376">  2 10  1 -1</clus>
<clus scale="   84.457">  1  9  2 -1</clus>
<clus scale="   91.373">  7  8 -1 -1</clus>
<clus scale="   91.492">  5  6 -1 -1</clus>
<clus scale="  106.651">  1  7  2 -1</clus>
<clus scale="   37.376">  2  5  1 -1</clus>
</clustering>
</event>
<event>
10    2  0.1133532E-006  0.1219051E+03  0.7546771E-02  0.1240525E+00
          1   -1    0    0  503    0  0.00000000000E+00  0.00000000000E+00  0.25038997529E+03  0.25038997529E+03  0.00000000000E+00 0. -1.
         -1   -1    0    0    0  501 -0.00000000000E+00 -0.00000000000E+00 -0.24539647083E+03  0.24539647083E+03  0.00000000000E+00 0.  1.
         23    2    1    2    0    0  0.48333710228E+02  0.25960429759E+02 -0.15964982770E+03  0.19142082127E+03  0.90242849428E+02 0.  0.
         23    2    1    2    0    0 -0.92960941190E+02 -0.60536924313E+02  0.92596451960E+02  0.16942061220E+03  0.88446509996E+02 0.  0.
        -11    1    3    3    0    0  0.77581458997E+01  0.23824346788E+02 -0.14662810260E+03  0.14875344971E+03  0.00000000000E+00 0.  1.
         11    1    3    3    0    0  0.40575564328E+02  0.21360829708E+01 -0.13021725093E+02  0.42667371555E+02  0.00000000000E+00 0. -1.
        -13    1    4    4    0    0 -0.15252281716E+02  0.20299410907E+02  0.35346707187E+02  0.43521120042E+02  0.00000000000E+00 0.  1.
         13    1    4    4    0    0 -0.77708659474E+02 -0.80836335220E+02  0.57249744772E+02  0.12589949216E+03  0.00000000000E+00 0. -1.
         21    1    1    2  502  501  0.15722684596E+02  0.25295639566E+02 -0.21410383506E+02  0.36680740366E+02  0.00000000000E+00 0.  1.
         21    1    1    2  503  502  0.28904546365E+02  0.92808549884E+01  0.93457263699E+02  0.98264272287E+02  0.00000000000E+00 0.  1.
<scales pt_clust_5="13000.00000" pt_clust_6="13000.00000" pt_clust_7="13000.00000" pt_clust_8="13000.00000" pt_clust_9="29.78376" pt_clust_10="30.61095"></scales>
<clustering>
<clus scale="   29.784">  2  9  1 -1</clus>
<clus scale="   30.611">  1 10  2 -1</clus>
<clus scale="   88.447">  7  8 -1 -1</clus>
<clus scale="   90.243">  5  6 -1 -1</clus>
<clus scale="  120.581">  1  7  2 -1</clus>
<clus scale="   30.611">  1  5  2 -1</clus>
</clustering>
</event>
<event>
10    2  0.1133532E-006  0.9833348E+02  0.7546771E-02  0.1302033E+00
          1   -1    0    0  503    0  0.00000000000E+00  0.00000000000E+00  0.52482674301E+03  0.52482674301E+03  0.00000000000E+00 0. -1.
         -1   -1    0    0    0  501 -0.00000000000E+00 -0.00000000000E+00 -0.81097733464E+02  0.81097733464E+02  0.00000000000E+00 0.  1.
         23    2    1    2    0    0 -0.31072648258E+01 -0.20342993012E+02  0.88628758326E+02  0.13049432834E+03  0.93542613112E+02 0.  0.
         23    2    1    2    0    0  0.55500691170E+02 -0.17647041954E+02  0.14789330676E+03  0.17103114359E+03  0.63146473255E+02 0.  0.
        -13    1    3    3    0    0  0.26335777894E+02 -0.47937615049E+02  0.42943445757E+02  0.69539396513E+02  0.00000000000E+00 0. -1.
         13    1    3    3    0    0 -0.29443042719E+02  0.27594622037E+02  0.45685312569E+02  0.60954931830E+02  0.00000000000E+00 0.  1.
        -13    1    4    4    0    0  0.22519016299E+02 -0.10491254251E+02  0.65185695215E+01  0.25683929984E+02  0.00000000000E+00 0.  1.
         13    1    4    4    0    0  0.32981674872E+02 -0.71557877028E+01  0.14137473724E+03  0.14534721361E+03  0.00000000000E+00 0. -1.
         21    1    1    2  502  501 -0.18442858683E+02  0.31999598904E+02 -0.40206289285E+02  0.54595412486E+02  0.00000000000E+00 0.  1.
         21    1    1    2  503  502 -0.33950567661E+02  0.59904360616E+01  0.24741323375E+03  0.24980359205E+03  0.00000000000E+00 0. -1.
<scales pt_clust_5="13000.00000" pt_clust_6="13000.00000" pt_clust_7="13000.00000" pt_clust_8="13000.00000" pt_clust_9="37.51698" pt_clust_10="34.47501"></scales>
<clustering>
<clus scale="   34.475">  1 10  2 -1</clus>
<clus scale="   37.517">  2  9  1 -1</clus>
<clus scale="   63.146">  7  8 -1 -1</clus>
<clus scale="   70.048">  1  7  2 -1</clus>
<clus scale="   93.543">  5  6 -1 -1</clus>
<clus scale="   34.475">  1  5  2 -1</clus>
</clustering>
</event>
<event>
10    2  0.1133532E-006  0.1191297E+03  0.7546771E-02  0.1245017E+00
          1   -1    0    0  503    0  0.00000000000E+00  0.00000000000E+00  0.82600463840E+03  0.82600463840E+03  0.00000000000E+00 0. -1.
         -1   -1    0    0    0  501 -0.00000000000E+00 -0.00000000000E+00 -0.31274530850E+02  0.31274530850E+02  0.00000000000E+00 0.  1.
         23    2    1    2    0    0 -0.14407055522E+02 -0.81681011376E+02  0.28903217103E+03  0.31397339951E+03  0.90334649163E+02 0.  0.
         23    2    1    2    0    0 -0.11197520470E+02  0.70386475447E+02  0.32291148723E+03  0.34319441163E+03  0.91820124130E+02 0.  0.
        -11    1    4    4    0    0 -0.49221146457E+02  0.46597202962E+02  0.23387844364E+03  0.24350184184E+03  0.00000000000E+00 0.  1.
         11    1    4    4    0    0  0.38023625987E+02  0.23789272486E+02  0.89033043597E+02  0.99692569787E+02  0.00000000000E+00 0. -1.
        -11    1    3    3    0    0 -0.45684380726E+02 -0.47836023435E+02  0.10372029906E+03  0.12301726797E+03  0.00000000000E+00 0.  1.
         11    1    3    3    0    0  0.31277325205E+02 -0.33844987941E+02  0.18531187197E+03  0.19095613154E+03  0.00000000000E+00 0. -1.
         21    1    1    2  502  501  0.52636290124E+02  0.64181039449E+01  0.10524502263E+03  0.11784857184E+03  0.00000000000E+00 0.  1.
         21    1    1    2  503  502 -0.27031714133E+02  0.48764319843E+01  0.77541426654E+02  0.82262786273E+02  0.00000000000E+00 0. -1.
<scales pt_clust_5="13000.00000" pt_clust_6="13000.00000" pt_clust_7="13000.00000" pt_clust_8="13000.00000" pt_clust_9="49.11766" pt_clust_10="27.46804"></scales>
<clustering>
<clus scale="   27.468">  1 10  2 -1</clus>
<clus scale="   49.118">  2  9  1 -1</clus>
<clus scale="   90.335">  7  8 -1 -1</clus>
<clus scale="   91.820">  5  6 -1 -1</clus>
<clus scale="  117.989">  2  7  1 -1</clus>
<clus scale="   27.468">  1  5  2 -1</clus>
</clustering>
</event>
<event>
10    2  0.1133532E-006  0.1441693E+03  0.7546771E-02  0.1208199E+00
         -2   -1    0    0    0  501 -0.00000000000E+00  0.00000000000E+00  0.43627804179E+03  0.43627804179E+03  0.00000000000E+00 0.  1.
          2   -1    0    0  503    0  0.00000000000E+00 -0.00000000000E+00 -0.25144559643E+03  0.25144559643E+03  0.00000000000E+00 0. -1.
         23    2    1    2    0    0  0.50842353136E+02 -0.98616369454E+02  0.30441519706E+03  0.33643867061E+03  0.90621375424E+02 0.  0.
         23    2    1    2    0    0 -0.77137671115E+02  0.56620597713E+02 -0.26918354084E+01  0.13306068924E+03  0.92421797498E+02 0.  0.
        -11    1    3    3    0    0  0.71982244481E+02 -0.48483392669E+02  0.21381113823E+03  0.23075373392E+03  0.00000000000E+00 0.  1.
         11    1    3    3    0    0 -0.21139891345E+02 -0.50132976784E+02  0.90604058830E+02  0.10568493669E+03  0.00000000000E+00 0. -1.
        -13    1    4    4    0    0 -0.20426119006E+02  0.44158136556E+02 -0.40893098778E+02  0.63556375678E+02  0.00000000000E+00 0. -1.
         13    1    4    4    0    0 -0.56711552109E+02  0.12462461157E+02  0.38201263369E+02  0.69504313562E+02  0.00000000000E+00 0.  1.
         21    1    1    2  502  501  0.28360251908E+02  0.10429188918E+02  0.44484903433E+02  0.53777118770E+02  0.00000000000E+00 0.  1.
         21    1    1    2  503  502 -0.20649339292E+01  0.31566582823E+02 -0.16137581974E+03  0.16444715959E+03  0.00000000000E+00 0. -1.
<scales pt_clust_5="13000.00000" pt_clust_6="13000.00000" pt_clust_7="13000.00000" pt_clust_8="13000.00000" pt_clust_9="30.21708" pt_clust_10="31.66820"></scales>
<clustering>
<clus scale="   30.217">  1  9  2 -1</clus>
<clus scale="   31.668">  2 10  1 -1</clus>
<clus scale="   90.621">  5  6 -1 -1</clus>
<clus scale="   92.422">  7  8 -1 -1</clus>
<clus scale="  143.022">  1  5  2 -1</clus>
<clus scale="   31.668">  2  5  1 -1</clus>
</clustering>
</event>
<event>
10    2  0.1133532E-006  0.1021237E+03  0.7546771E-02  0.1278926E+00
          1   -1    0    0  503    0  0.00000000000E+00  0.00000000000E+00  0.67500803285E+03  0.67500803285E+03  0.00000000000E+00 0. -1.
         -1   -1    0    0    0  501 -0.00000000000E+00 -0.00000000000E+00 -0.56799259969E+02  0.56799259969E+02  0.00000000000E+00 0.  1.
         23    2    1    2    0    0 -0.16545920071E+02 -0.21238063764E+02  0.21071603626E+03  0.23069441762E+03  0.89965791044E+02 0.  0.
         23    2    1    2    0    0 -0.43179785224E+02  0.74520021865E+02  0.21081721931E+03  0.24251557073E+03  0.83379701235E+02 0.  0.
        -11    1    3    3    0    0  0.11634832463E+02  0.23199513224E+02  0.19756225011E+02  0.32617405889E+02  0.00000000000E+00 0. -1.
         11    1    3    3    0    0 -0.28180752533E+02 -0.44437576988E+02  0.19095981125E+03  0.19807701173E+03  0.00000000000E+00 0.  1.
        -13    1    4    4    0    0 -0.64328973945E+02  0.73575964178E+02  0.18404235990E+03  0.20838241200E+03  0.00000000000E+00 0.  1.
         13    1    4    4    0    0  0.21149188721E+02  0.94405768749E+00  0.26774859414E+02  0.34133158733E+02  0.00000000000E+00 0. -1.
         21    1    1    2  502  501  0.18551062679E+02  0.29724626074E+02 -0.61825208875E+01  0.35579753881E+02  0.00000000000E+00 0. -1.
         21    1    1    2  503  502  0.41174642616E+02 -0.83006584174E+02  0.20285803819E+03  0.22301755058E+03  0.00000000000E+00 0. -1.
<scales pt_clust_5="13000.00000" pt_clust_6="13000.00000" pt_clust_7="13000.00000" pt_clust_8="13000.00000" pt_clust_9="35.03848" pt_clust_10="87.89775"></scales>
<clustering>
<clus scale="   35.038">  2  9  1 -1</clus>
<clus scale="   83.380">  7  8 -1 -1</clus>
<clus scale="   87.898">  1 10  2 -1</clus>
<clus scale="   89.966">  5  6 -1 -1</clus>
<clus scale="   96.372">  1  7  2 -1</clus>
<clus scale="   87.898">  1  5  2 -1</clus>
</clustering>
</event>
<event>
10    2  0.1133532E-006  0.1016487E+03  0.7546771E-02  0.1277842E+00
         -1   -1    0    0    0  501 -0.00000000000E+00  0.00000000000E+00  0.28794586317E+03  0.28794586317E+03  0.00000000000E+00 0.  1.
          1   -1    0    0  503    0  0.00000000000E+00 -0.00000000000E+00 -0.10162045142E+03  0.10162045142E+03  0.00000000000E+00 0. -1.
         23    2    1    2    0    0 -0.29845573643E+02 -0.83449967377E+01  0.11233846331E+03  0.14751655986E+03  0.90447818427E+02 0.  0.
         23    2    1    2    0    0  0.45920664549E+02  0.21882466435E+02 -0.33522757716E+02  0.10730428689E+03  0.88333939851E+02 0.  0.
        -11    1    3    3    0    0  0.55950786756E+01  0.34681008355E+02  0.67049189055E+02  0.75694590288E+02  0.00000000000E+00 0. -1.
         11    1    3    3    0    0 -0.35440652318E+02 -0.43026005093E+02  0.45289274252E+02  0.71821969573E+02  0.00000000000E+00 0.  1.
        -11    1    4    4    0    0  0.38553153580E+02  0.53255276890E+02 -0.80703009666E+01  0.66238960780E+02  0.00000000000E+00 0. -1.
         11    1    4    4    0    0  0.73675109696E+01 -0.31372810455E+02 -0.25452456749E+02  0.41065326107E+02  0.00000000000E+00 0.  1.
         21    1    1    2  502  501  0.14212179951E+02 -0.25126848463E+02  0.96141126298E+02  0.10038157569E+03  0.00000000000E+00 0.  1.
         21    1    1    2  503  502 -0.30287270858E+02  0.11589378766E+02  0.11368579858E+02  0.34363892157E+02  0.00000000000E+00 0. -1.
<scales pt_clust_5="13000.00000" pt_clust_6="13000.00000" pt_clust_7="13000.00000" pt_clust_8="13000.00000" pt_clust_9="28.86771" pt_clust_10="29.82874"></scales>
<clustering>
<clus scale="   28.868">  1  9  2 -1</clus>
<clus scale="   29.829">  1 10  2 -1</clus>
<clus scale="   88.334">  7  8 -1 -1</clus>
<clus scale="   90.448">  5  6 -1 -1</clus>
<clus scale="   99.772">  2  7  1 -1</clus>
<clus scale="   99.772">  2  5  1 -1</clus>
</clustering>
</event>
<event>
10    2  0.1133532E-006  0.3018881E+03  0.7546771E-02  0.1084447E+00
          2   -1    0    0  503    0  0.00000000000E+00  0.00000000000E+00  0.13423193869E+04  0.13423193869E+04  0.00000000000E+00 0. -1.
         -2   -1    0    0    0  501 -0.00000000000E+00 -0.00000000000E+00 -0.84972764041E+02  0.84972764041E+02  0.00000000000E+00 0.  1.
         23    2    1    2    0    0 -0.26301559055E+03 -0.13515154287E+03  0.44874669032E+03  0.54575062550E+03  0.95010592833E+02 0.  0.
         23    2    1    2    0    0  0.23136099685E+03  0.14919881334E+03  0.62056276739E+03  0.68498348883E+03  0.91192296437E+02 0.  0.
        -11    1    4    4    0    0  0.58722846636E+02 -0.44303145559E+01  0.12276940581E+03  0.13616287088E+03  0.00000000000E+00 0.  1.
         11    1    4    4    0    0  0.17263815021E+03  0.15362912790E+03  0.49779336158E+03  0.54882061795E+03  0.00000000000E+00 0. -1.
        -11    1    3    3    0    0 -0.49283133897E+02 -0.51147450293E+01  0.13912350214E+03  0.14768323111E+03  0.00000000000E+00 0. -1.
         11    1    3    3    0    0 -0.21373245666E+03 -0.13003679784E+03  0.30962318818E+03  0.39806739439E+03  0.00000000000E+00 0.  1.
         21    1    1    2  502  501  0.17883907580E+02 -0.30579085805E+02  0.12657135166E+03  0.13143523767E+03  0.00000000000E+00 0. -1.
         21    1    1    2  503  502  0.13770686124E+02  0.16531815331E+02  0.61465813478E+02  0.65122798934E+02  0.00000000000E+00 0.  1.
<scales pt_clust_5="13000.00000" pt_clust_6="13000.00000" pt_clust_7="13000.00000" pt_clust_8="13000.00000" pt_clust_9="34.74661" pt_clust_10="21.51587"></scales>
<clustering>
<clus scale="   21.516">  1 10  2 -1</clus>
<clus scale="   34.747">  1  9  2 -1</clus>
<clus scale="   91.192">  5  6 -1 -1</clus>
<clus scale="   95.011">  7  8 -1 -1</clus>
<clus scale="  300.708">  1  5  2 -1</clus>
<clus scale="   21.516">  1  5  2 -1</clus>
</clustering>
</event>
<event>
10    2  0.1133532E-006  0.1093631E+03  0.7546771E-02  0.1264673E+00
          1   -1    0    0  502    0  0.00000000000E+00  0.00000000000E+00  0.36644587308E+03  0.36644587308E+03  0.00000000000E+00 0. -1.
         -1   -1    0    0    0  501 -0.00000000000E+00 -0.00000000000E+00 -0.20430201215E+03  0.20430201215E+03  0.00000000000E+00 0.  1.
         23    2    1    2    0    0  0.14845723187E+02  0.23630783234E+02 -0.57901429755E+02  0.10859093607E+03  0.87524890267E+02 0.  0.
         23    2    1    2    0    0 -0.59371567425E+02  0.60779189956E+01  0.31686254196E+03  0.33602780559E+03  0.94609151320E+02 0.  0.
        -13    1    3    3    0    0 -0.16360504408E+01 -0.32025489959E+02 -0.31047435525E+02  0.44634649330E+02  0.00000000000E+00 0.  1.
         13    1    3    3    0    0  0.16481773628E+02  0.55656273194E+02 -0.26853994230E+02  0.63956286742E+02  0.00000000000E+00 0. -1.
        -13    1    4    4    0    0 -0.79362353119E+02 -0.95866807384E+01  0.28053958361E+03  0.29170660862E+03  0.00000000000E+00 0. -1.
         13    1    4    4    0    0  0.19990785694E+02  0.15664599734E+02  0.36322958350E+02  0.44321196969E+02  0.00000000000E+00 0.  1.
         21    1    1    2  502  503  0.24778526764E+02 -0.35519734252E+02 -0.96240984937E+02  0.10553650597E+03  0.00000000000E+00 0.  1.
         21    1    1    2  503  501  0.19747317473E+02  0.58110320221E+01 -0.57626633576E+00  0.20592637603E+02  0.00000000000E+00 0.  1.
<scales pt_clust_5="13000.00000" pt_clust_6="13000.00000" pt_clust_7="13000.00000" pt_clust_8="13000.00000" pt_clust_9="47.80408" pt_clust_10="20.58457"></scales>
<clustering>
<clus scale="   20.585">  2 10  1 -1</clus>
<clus scale="   47.804">  2  9  1 -1</clus>
<clus scale="   87.525">  5  6 -1 -1</clus>
<clus scale="   94.609">  7  8 -1 -1</clus>
<clus scale="  103.296">  2  5  1 -1</clus>
<clus scale="  109.363">  1  5  2 -1</clus>
</clustering>
</event>
<event>
10    2  0.1133532E-006  0.1597864E+03  0.7546771E-02  0.1214363E+00
         -2   -1    0    0    0  501 -0.00000000000E+00  0.00000000000E+00  0.25851886199E+03  0.25851886199E+03  0.00000000000E+00 0.  1.
          2   -1    0    0  503    0  0.00000000000E+00 -0.00000000000E+00 -0.32202966448E+03  0.32202966448E+03  0.00000000000E+00 0. -1.
         23    2    1    2    0    0 -0.14581688563E+03  0.16781180304E+02  0.14250643194E+03  0.22381020216E+03  0.90767567446E+02 0.  0.
         23    2    1    2    0    0 -0.98689629528E+01 -0.63918056558E+01 -0.58947879538E+02  0.10955897266E+03  0.91597294605E+02 0.  0.
        -11    1    3    3    0    0 -0.11282738062E+03  0.44615385006E+02  0.13219484276E+03  0.17943251336E+03  0.00000000000E+00 0.  1.
         11    1    3    3    0    0 -0.32989505004E+02 -0.27834204702E+02  0.10311589176E+02  0.44377688799E+02  0.00000000000E+00 0. -1.
        -13    1    4    4    0    0 -0.16479952038E+00  0.42382576110E+02 -0.23236836750E+02  0.48334878698E+02  0.00000000000E+00 0. -1.
         13    1    4    4    0    0 -0.97041634324E+01 -0.48774381765E+02 -0.35711042788E+02  0.61224093962E+02  0.00000000000E+00 0.  1.
         21    1    1    2  502  501  0.21060057512E+02  0.13705382708E+01  0.22167457341E+02  0.30607197888E+02  0.00000000000E+00 0.  1.
         21    1    1    2  503  502  0.13462579107E+03 -0.11759912919E+02 -0.16923681223E+03  0.21657215377E+03  0.00000000000E+00 0. -1.
<scales pt_clust_5="13000.00000" pt_clust_6="13000.00000" pt_clust_7="13000.00000" pt_clust_8="13000.00000" pt_clust_9="21.10461" pt_clust_10="131.50258"></scales>
<clustering>
<clus scale="   21.105">  1  9  2 -1</clus>
<clus scale="   90.768">  5  6 -1 -1</clus>
<clus scale="   91.597">  7  8 -1 -1</clus>
<clus scale="   92.122">  2  7  1 -1</clus>
<clus scale="  131.503">  2 10  1 -1</clus>
<clus scale="   92.122">  2  5  1 -1</clus>
</clustering>
</event>
<event>
10    2  0.1133532E-006  0.9782277E+02  0.7546771E-02  0.1285418E+00
         -2   -1    0    0    0  501 -0.00000000000E+00  0.00000000000E+00  0.10908088726E+03  0.10908088726E+03  0.00000000000E+00 0.  1.
          2   -1    0    0  503    0  0.00000000000E+00 -0.00000000000E+00 -0.35974694795E+03  0.35974694795E+03  0.00000000000E+00 0. -1.
         23    2    1    2    0    0 -0.16385606977E+02 -0.74491051836E+02 -0.79905556725E+01  0.11924294183E+03  0.91310597828E+02 0.  0.
         23    2    1    2    0    0  0.45417850637E+02 -0.27581783984E+02 -0.15061371478E+03  0.18350800822E+03  0.90372352164E+02 0.  0.
        -13    1    4    4    0    0  0.45744675747E+02 -0.50844860054E+02 -0.63452590411E+02  0.93295264526E+02  0.00000000000E+00 0.  1.
         13    1    4    4    0    0 -0.32682510930E+00  0.23263076071E+02 -0.87161124369E+02  0.90212743691E+02  0.00000000000E+00 0. -1.
        -13    1    3    3    0    0  0.36937401352E+02 -0.20442755165E+02 -0.96262815324E+01  0.43300613777E+02  0.00000000000E+00 0.  1.
         13    1    3    3    0    0 -0.53323008329E+02 -0.54048296671E+02  0.16357258599E+01  0.75942328048E+02  0.00000000000E+00 0. -1.
         21    1    1    2  502  501 -0.18330452329E+02  0.73963573522E+02 -0.77898447283E+01  0.76598285697E+02  0.00000000000E+00 0. -1.
         21    1    1    2  503  502 -0.10701791331E+02  0.28109262298E+02 -0.84271945510E+02  0.89478599479E+02  0.00000000000E+00 0.  1.
<scales pt_clust_5="13000.00000" pt_clust_6="13000.00000" pt_clust_7="13000.00000" pt_clust_8="13000.00000" pt_clust_9="80.82006" pt_clust_10="30.07755"></scales>
<clustering>
<clus scale="   30.078">  2 10  1 -1</clus>
<clus scale="   80.820">  1  9  2 -1</clus>
<clus scale="   90.372">  5  6 -1 -1</clus>
<clus scale="   91.311">  7  8 -1 -1</clus>
<clus scale="   96.948">  2  5  1 -1</clus>
<clus scale="   30.078">  2  5  1 -1</clus>
</clustering>
</event>
<event>
10    2  0.1133532E-006  0.9598200E+02  0.7546771E-02  0.1289865E+00
         -1   -1    0    0    0  501 -0.00000000000E+00  0.00000000000E+00  0.23490371611E+03  0.23490371611E+03  0.00000000000E+00 0.  1.
          1   -1    0    0  503    0  0.00000000000E+00 -0.00000000000E+00 -0.37082517390E+03  0.37082517390E+03  0.00000000000E+00 0. -1.
         23    2    1    2    0    0 -0.43151977359E+02 -0.25787274223E+02 -0.44778169897E+02  0.11568608266E+03  0.94080330354E+02 0.  0.
         23    2    1    2    0    0 -0.17936801469E+02 -0.52284458832E+02 -0.42256784601E+02  0.11603700362E+03  0.92863108291E+02 0.  0.
        -11    1    4    4    0    0 -0.50576699540E+02 -0.55396230981E+02 -0.33133400276E+02  0.82003458203E+02  0.00000000000E+00 0.  1.
         11    1    4    4    0    0  0.32639898071E+02  0.31117721489E+01 -0.91233843248E+01  0.34033545415E+02  0.00000000000E+00 0. -1.
        -13    1    3    3    0    0 -0.41684101801E+02  0.11954942880E+02  0.14217063597E+02  0.45635620950E+02  0.00000000000E+00 0.  1.
         13    1    3    3    0    0 -0.14678755581E+01 -0.37742217103E+02 -0.58995233494E+02  0.70050461708E+02  0.00000000000E+00 0. -1.
         21    1    1    2  502  501  0.97776211969E+02  0.10771745901E+02  0.13945899810E+03  0.17066057040E+03  0.00000000000E+00 0.  1.
         21    1    1    2  503  502 -0.36687433141E+02  0.67299987155E+02 -0.18834550140E+03  0.20334523333E+03  0.00000000000E+00 0.  1.
<scales pt_clust_5="13000.00000" pt_clust_6="13000.00000" pt_clust_7="13000.00000" pt_clust_8="13000.00000" pt_clust_9="95.98200" pt_clust_10="76.65022"></scales>
<clustering>
<clus scale="   76.650">  2 10  1 -1</clus>
<clus scale="   92.863">  5  6 -1 -1</clus>
<clus scale="   94.080">  7  8 -1 -1</clus>
<clus scale="   95.982">  1  9  2 -1</clus>
<clus scale="   94.401">  2  5  1 -1</clus>
<clus scale="   76.650">  2  5  1 -1</clus>
</clustering>
</event>
<event>
10    2  0.1133532E-006  0.2107229E+03  0.7546771E-02  0.1173353E+00
          2   -1    0    0  503    0  0.00000000000E+00  0.00000000000E+00  0.11862419501E+04  0.11862419501E+04  0.00000000000E+00 0. -1.
         -2   -1    0    0    0  501 -0.00000000000E+00 -0.00000000000E+00 -0.13723943833E+03  0.13723943833E+03  0.00000000000E+00 0.  1.
         23    2    1    2    0    0 -0.26535687900E+01 -0.40843239924E+02  0.12116648421E+03  0.15496849121E+03  0.87514025720E+02 0.  0.
         23    2    1    2    0    0 -0.23235781480E+02 -0.11944681860E+03 -0.21584285222E+02  0.15361488495E+03  0.91237094951E+02 0.  0.
        -13    1    4    4    0    0 -0.14642235416E+02 -0.54869965093E+02  0.35520447973E+02  0.66983657347E+02  0.00000000000E+00 0. -1.
         13    1    4    4    0    0 -0.85935460641E+01 -0.64576853511E+02 -0.57104733196E+02  0.86631227607E+02  0.00000000000E+00 0.  1.
        -13    1    3    3    0    0  0.67566246301E+01  0.26702407273E+02  0.25906633976E+02  0.37813016469E+02  0.00000000000E+00 0. -1.
         13    1    3    3    0    0 -0.94101934202E+01 -0.67545647197E+02  0.95259850235E+02  0.11715547474E+03  0.00000000000E+00 0.  1.
         21    1    1    2  502  501 -0.20719728483E+02 -0.31996376478E+02 -0.65411007340E+01  0.38676365586E+02  0.00000000000E+00 0. -1.
         21    1    1    2  503  502  0.46609078753E+02  0.19228643501E+03  0.95596141348E+03  0.97622164664E+03  0.00000000000E+00 0. -1.
<scales pt_clust_5="13000.00000" pt_clust_6="13000.00000" pt_clust_7="13000.00000" pt_clust_8="13000.00000" pt_clust_9="38.11922" pt_clust_10="189.94717"></scales>
<clustering>
<clus scale="   38.119">  2  9  1 -1</clus>
<clus scale="   87.514">  7  8 -1 -1</clus>
<clus scale="   91.237">  5  6 -1 -1</clus>
<clus scale="   98.829">  2  7  1 -1</clus>
<clus scale="  189.947">  1 10  2 -1</clus>
<clus scale="  189.947">  1  5  2 -1</clus>
</clustering>
</event>
<event>
10    2  0.1133532E-006  0.9450856E+02  0.7546771E-02  0.1293646E+00
          1   -1    0    0  503    0  0.00000000000E+00  0.00000000000E+00  0.13636015232E+03  0.13636015232E+03  0.00000000000E+00 0. -1.
         -1   -1    0    0    0  501 -0.00000000000E+00 -0.00000000000E+00 -0.28442585206E+03  0.28442585206E+03  0.00000000000E+00 0.  1.
         23    2    1    2    0    0  0.10647617183E+02  0.51042295223E+01 -0.16900799204E+03  0.19341566029E+03  0.93308581391E+02 0.  0.
         23    2    1    2    0    0  0.19231100385E+02  0.53918594254E+01 -0.43899478646E+01  0.93184161140E+02  0.90912644198E+02 0.  0.
        -11    1    3    3    0    0  0.21907635156E+02  0.40000428091E+02 -0.44883353658E+02  0.63988234552E+02  0.00000000000E+00 0.  1.
         11    1    3    3    0    0 -0.11260017973E+02 -0.34896198569E+02 -0.12412463839E+03  0.12942742574E+03  0.00000000000E+00 0. -1.
        -13    1    4    4    0    0 -0.69725774970E+01  0.30598455848E+02 -0.34017233691E+02  0.46282334916E+02  0.00000000000E+00 0.  1.
         13    1    4    4    0    0  0.26203677882E+02 -0.25206596422E+02  0.29627285827E+02  0.46901826224E+02  0.00000000000E+00 0. -1.
         21    1    1    2  502  501  0.25160083920E+01  0.22920863035E+02 -0.44585069494E+02  0.50194867091E+02  0.00000000000E+00 0. -1.
         21    1    1    2  503  502 -0.32394725960E+02 -0.33416951983E+02  0.69917309659E+02  0.83991315859E+02  0.00000000000E+00 0. -1.
<scales pt_clust_5="13000.00000" pt_clust_6="13000.00000" pt_clust_7="13000.00000" pt_clust_8="13000.00000" pt_clust_9="23.05854" pt_clust_10="46.00285"></scales>
<clustering>
<clus scale="   23.059">  2  9  1 -1</clus>
<clus scale="   46.003">  1 10  2 -1</clus>
<clus scale="   90.913">  7  8 -1 -1</clus>
<clus scale="   92.144">  1  7  2 -1</clus>
<clus scale="   93.309">  5  6 -1 -1</clus>
<clus scale="   46.003">  1  5  2 -1</clus>
</clustering>
</event>
<event>
10    2  0.1133532E-006  0.1076070E+03  0.7546771E-02  0.1266650E+00
          1   -1    0    0  503    0  0.00000000000E+00  0.00000000000E+00  0.18993766134E+03  0.18993766134E+03  0.00000000000E+00 0. -1.
         -1   -1    0    0    0  501 -0.00000000000E+00 -0.00000000000E+00 -0.11258555476E+03  0.11258555476E+03  0.00000000000E+00 0.  1.
         23    2    1    2    0    0 -0.37843312949E+02  0.73845027110E+01 -0.33561354396E+02  0.10620921935E+03  0.93098799939E+02 0.  0.
         23    2    1    2    0    0  0.49653129710E+02 -0.39222669853E+02  0.80379922092E+02  0.13579389303E+03  0.89303966250E+02 0.  0.
        -11    1    3    3    0    0 -0.66871724505E+00 -0.25589364262E+02  0.20488940909E+02  0.32788099147E+02  0.00000000000E+00 0. -1.
         11    1    3    3    0    0 -0.37174595704E+02  0.32973866973E+02 -0.54050295305E+02  0.73421120200E+02  0.00000000000E+00 0.  1.
        -13    1    4    4    0    0  0.20990759864E+02 -0.30717789009E+02 -0.11684604190E+02  0.38996468254E+02  0.00000000000E+00 0.  1.
         13    1    4    4    0    0  0.28662369846E+02 -0.85048808440E+01  0.92064526282E+02  0.96797424774E+02  0.00000000000E+00 0. -1.
         21    1    1    2  502  501 -0.20842191708E+02  0.10025063271E+02  0.16094423707E+01  0.23183812316E+02  0.00000000000E+00 0. -1.
         21    1    1    2  503  502  0.90323749468E+01  0.21813103871E+02  0.28924096509E+02  0.37336291414E+02  0.00000000000E+00 0. -1.
<scales pt_clust_5="13000.00000" pt_clust_6="13000.00000" pt_clust_7="13000.00000" pt_clust_8="13000.00000" pt_clust_9="23.12788" pt_clust_10="23.68169"></scales>
<clustering>
<clus scale="   23.128">  2  9  1 -1</clus>
<clus scale="   23.682">  1 10  2 -1</clus>
<clus scale="   89.304">  7  8 -1 -1</clus>
<clus scale="   93.099">  5  6 -1 -1</clus>
<clus scale="  104.341">  1  7  2 -1</clus>
<clus scale="   23.682">  1  5  2 -1</clus>
</clustering>
</event>
<event>
10    2  0.1133532E-006  0.1275690E+03  0.7546771E-02  0.1231159E+00
          1   -1    0    0  503    0  0.00000000000E+00  0.00000000000E+00  0.65606150662E+03  0.65606150662E+03  0.00000000000E+00 0. -1.
         -1   -1    0    0    0  501 -0.00000000000E+00 -0.00000000000E+00 -0.79095000711E+02  0.79095000711E+02  0.00000000000E+00 0.  1.
         23    2    1    2    0    0 -0.82464025025E+02 -0.18870996026E+02  0.11886881925E+03  0.17174598891E+03  0.90611580951E+02 0.  0.
         23    2    1    2    0    0  0.11167922041E+03 -0.44369490152E+01  0.40335073237E+03  0.42828554804E+03  0.90800674950E+02 0.  0.
        -11    1    3    3    0    0 -0.41544214596E+02 -0.54645274648E+02  0.76862429445E+02  0.10305270917E+03  0.00000000000E+00 0. -1.
         11    1    3    3    0    0 -0.40919810429E+02  0.35774278622E+02  0.42006389800E+02  0.68693279734E+02  0.00000000000E+00 0.  1.
        -11    1    4    4    0    0  0.73531497512E+02 -0.17859939153E+02  0.36427367846E+03  0.37204995817E+03  0.00000000000E+00 0. -1.
         11    1    4    4    0    0  0.38147722893E+02  0.13422990138E+02  0.39077053904E+02  0.56235589870E+02  0.00000000000E+00 0.  1.
         21    1    1    2  502  501  0.12554547999E+01  0.20054601677E+02 -0.34962859240E+02  0.40325732993E+02  0.00000000000E+00 0.  1.
         21    1    1    2  503  502 -0.30470650180E+02  0.32533433647E+01  0.89709813538E+02  0.94799237394E+02  0.00000000000E+00 0.  1.
<scales pt_clust_5="13000.00000" pt_clust_6="13000.00000" pt_clust_7="13000.00000" pt_clust_8="13000.00000" pt_clust_9="20.09386" pt_clust_10="30.72264"></scales>
<clustering>
<clus scale="   20.094">  2  9  1 -1</clus>
<clus scale="   30.723">  1 10  2 -1</clus>
<clus scale="   90.612">  5  6 -1 -1</clus>
<clus scale="   90.801">  7  8 -1 -1</clus>
<clus scale="  127.434">  2  5  1 -1</clus>
<clus scale="   30.723">  1  5  2 -1</clus>
</clustering>
</event>
<event>
10    2  0.1133532E-006  0.1228514E+03  0.7546771E-02  0.1240040E+00
          1   -1    0    0  503    0  0.00000000000E+00  0.00000000000E+00  0.34971899262E+03  0.34971899262E+03  0.00000000000E+00 0. -1.
         -1   -1    0    0    0  501 -0.00000000000E+00 -0.00000000000E+00 -0.99813932824E+02  0.99813932824E+02  0.00000000000E+00 0.  1.
         23    2    1    2    0    0  0.66257090182E+02 -0.32012802205E+02 -0.61292036588E+01  0.11475717162E+03  0.87845431278E+02 0.  0.
         23    2    1    2    0    0 -0.57408685308E+02  0.47675285493E+02  0.16042485703E+03  0.19989435003E+03  0.93021107421E+02 0.  0.
        -11    1    3    3    0    0  0.80337069533E+02 -0.93110828594E+00 -0.67880652940E+01  0.80628714080E+02  0.00000000000E+00 0.  1.
         11    1    3    3    0    0 -0.14079979351E+02 -0.31081693919E+02  0.65886163520E+00  0.34128457540E+02  0.00000000000E+00 0. -1.
        -11    1    4    4    0    0 -0.68369527401E+02  0.67387445578E+02  0.12078456786E+03  0.15428665507E+03  0.00000000000E+00 0. -1.
         11    1    4    4    0    0  0.10960842093E+02 -0.19712160085E+02  0.39640289165E+02  0.45607694961E+02  0.00000000000E+00 0.  1.
         21    1    1    2  502  501  0.19594865483E+02  0.59418019767E+01 -0.10436242560E+02  0.22982143564E+02  0.00000000000E+00 0.  1.
         21    1    1    2  503  502 -0.28443270357E+02 -0.21604285265E+02  0.10604564899E+03  0.11189926023E+03  0.00000000000E+00 0. -1.
<scales pt_clust_5="13000.00000" pt_clust_6="13000.00000" pt_clust_7="13000.00000" pt_clust_8="13000.00000" pt_clust_9="20.47593" pt_clust_10="35.04263"></scales>
<clustering>
<clus scale="   20.476">  2  9  1 -1</clus>
<clus scale="   35.043">  1 10  2 -1</clus>
<clus scale="   87.845">  5  6 -1 -1</clus>
<clus scale="   93.021">  7  8 -1 -1</clus>
<clus scale="  118.980">  2  5  1 -1</clus>
<clus scale="   35.043">  1  5  2 -1</clus>
</clustering>
</event>
<event>
10    2  0.1133532E-006  0.1687124E+03  0.7546771E-02  0.1181880E+00
         -1   -1    0    0    0  501 -0.00000000000E+00  0.00000000000E+00  0.17845856766E+03  0.17845856766E+03  0.00000000000E+00 0.  1.
          1   -1    0    0  503    0  0.00000000000E+00 -0.00000000000E+00 -0.47231357849E+03  0.47231357849E+03  0.00000000000E+00 0. -1.
         23    2    1    2    0    0  0.55194028083E+02  0.15777031409E+03 -0.17210656666E+03  0.26259851628E+03  0.10676824302E+03 0.  0.
         23    2    1    2    0    0 -0.90840895352E+01 -0.10101993899E+03 -0.18354634840E+03  0.22835354494E+03  0.90379924309E+02 0.  0.
        -13    1    4    4    0    0 -0.32963038514E+02 -0.10082826826E+02 -0.20400507415E+02  0.40055037232E+02  0.00000000000E+00 0.  1.
         13    1    4    4    0    0  0.23878948979E+02 -0.90937112168E+02 -0.16314584099E+03  0.18829850771E+03  0.00000000000E+00 0. -1.
        -13    1    3    3    0    0 -0.43663748027E+01  0.12794317542E+03 -0.88172240472E+02  0.15544409077E+03  0.00000000000E+00 0.  1.
         13    1    3    3    0    0  0.59560402886E+02  0.29827138675E+02 -0.83934326192E+02  0.10715442551E+03  0.00000000000E+00 0. -1.
         21    1    1    2  502  501 -0.41073532395E+02 -0.20835120661E+02  0.98182468127E+02  0.10844784167E+03  0.00000000000E+00 0.  1.
         21    1    1    2  503  502 -0.50364061532E+01 -0.35915254436E+02 -0.36384563885E+02  0.51372243256E+02  0.00000000000E+00 0.  1.
<scales pt_clust_5="13000.00000" pt_clust_6="13000.00000" pt_clust_7="13000.00000" pt_clust_8="13000.00000" pt_clust_9="46.30564" pt_clust_10="36.26666"></scales>
<clustering>
<clus scale="   36.267">  2 10  1 -1</clus>
<clus scale="   46.306">  1  9  2 -1</clus>
<clus scale="   90.380">  5  6 -1 -1</clus>
<clus scale="  106.768">  7  8 -1 -1</clus>
<clus scale="  158.849">  2  5  1 -1</clus>
<clus scale="   36.267">  2  5  1 -1</clus>
</clustering>
</event>
<event>
10    2  0.1133532E-006  0.2385737E+03  0.7546771E-02  0.1121376E+00
          1   -1    0    0  503    0  0.00000000000E+00  0.00000000000E+00  0.39095914175E+03  0.39095914175E+03  0.00000000000E+00 0. -1.
         -1   -1    0    0    0  501 -0.00000000000E+00 -0.00000000000E+00 -0.35189259349E+03  0.35189259349E+03  0.00000000000E+00 0.  1.
         23    2    1    2    0    0 -0.53152862292E+02  0.16684994055E+03 -0.15279790608E+03  0.24621089388E+03  0.81292525694E+02 0.  0.
         23    2    1    2    0    0  0.13663484898E+03 -0.22684212054E+03  0.18400188536E+03  0.33518765858E+03  0.91474821887E+02 0.  0.
        -11    1    3    3    0    0 -0.41156988055E+02  0.36725717295E+02 -0.16929880832E+02  0.57700059286E+02  0.00000000000E+00 0. -1.
         11    1    3    3    0    0 -0.11995874236E+02  0.13012422325E+03 -0.13586802525E+03  0.18851083460E+03  0.00000000000E+00 0.  1.
        -13    1    4    4    0    0  0.33563006944E+02 -0.58035291797E+02  0.99791700990E+02  0.12022043967E+03  0.00000000000E+00 0.  1.
         13    1    4    4    0    0  0.10307184203E+03 -0.16880682875E+03  0.84210184372E+02  0.21496721891E+03  0.00000000000E+00 0. -1.
         21    1    1    2  502  501 -0.74617869920E+01  0.55981291725E+02 -0.42060341914E+02  0.70417722558E+02  0.00000000000E+00 0.  1.
         21    1    1    2  503  502 -0.76020199695E+02  0.40108882690E+01  0.49922910887E+02  0.91035460222E+02  0.00000000000E+00 0.  1.
<scales pt_clust_5="13000.00000" pt_clust_6="13000.00000" pt_clust_7="13000.00000" pt_clust_8="13000.00000" pt_clust_9="56.47640" pt_clust_10="76.94595"></scales>
<clustering>
<clus scale="   56.476">  2  9  1 -1</clus>
<clus scale="   76.946">  1 10  2 -1</clus>
<clus scale="   81.293">  5  6 -1 -1</clus>
<clus scale="   91.475">  7  8 -1 -1</clus>
<clus scale="  234.858">  2  5  1 -1</clus>
<clus scale="   76.946">  1  5  2 -1</clus>
</clustering>
</event>
<event>
10    2  0.1133532E-006  0.1122680E+03  0.7546771E-02  0.1261901E+00
         -2   -1    0    0    0  501 -0.00000000000E+00  0.00000000000E+00  0.31435221600E+03  0.31435221600E+03  0.00000000000E+00 0.  1.
          2   -1    0    0  503    0  0.00000000000E+00 -0.00000000000E+00 -0.76979473731E+02  0.76979473731E+02  0.00000000000E+00 0. -1.
         23    2    1    2    0    0  0.23862874104E+02 -0.12935015893E+02  0.11047023817E+03  0.15372395251E+03  0.10339549630E+03 0.  0.
         23    2    1    2    0    0 -0.58608812720E+02 -0.41757531296E+02  0.72045283283E+02  0.13644229156E+03  0.90814600883E+02 0.  0.
        -11    1    4    4    0    0  0.97022630420E+01 -0.36634630523E+02  0.12324622813E+01  0.37917661122E+02  0.00000000000E+00 0. -1.
         11    1    4    4    0    0 -0.68311075762E+02 -0.51229007735E+01  0.70812821002E+02  0.98524630435E+02  0.00000000000E+00 0.  1.
        -13    1    3    3    0    0  0.28742949760E+02 -0.38292493015E+02  0.11756778225E+03  0.12694351345E+03  0.00000000000E+00 0.  1.
         13    1    3    3    0    0 -0.48800756566E+01  0.25357477122E+02 -0.70975440778E+01  0.26780439062E+02  0.00000000000E+00 0. -1.
         21    1    1    2  502  501  0.10796924021E+02  0.38098616912E+02  0.59690417325E+02  0.71631167094E+02  0.00000000000E+00 0. -1.
         21    1    1    2  503  502  0.23949014596E+02  0.16593930277E+02 -0.48331965140E+01  0.29534278571E+02  0.00000000000E+00 0. -1.
<scales pt_clust_5="13000.00000" pt_clust_6="13000.00000" pt_clust_7="13000.00000" pt_clust_8="13000.00000" pt_clust_9="41.88584" pt_clust_10="29.13613"></scales>
<clustering>
<clus scale="   29.136">  2 10  1 -1</clus>
<clus scale="   41.886">  1  9  2 -1</clus>
<clus scale="   90.815">  5  6 -1 -1</clus>
<clus scale="  100.801">  2  5  1 -1</clus>
<clus scale="  103.395">  7  8 -1 -1</clus>
<clus scale="   29.136">  2  5  1 -1</clus>
</clustering>
</event>
<event>
10    2  0.1133532E-006  0.9536147E+02  0.7546771E-02  0.1290637E+00
         -1   -1    0    0    0  501 -0.00000000000E+00  0.00000000000E+00  0.10703853614E+03  0.10703853614E+03  0.00000000000E+00 0.  1.
          1   -1    0    0  503    0  0.00000000000E+00 -0.00000000000E+00 -0.11807042044E+04  0.11807042044E+04  0.00000000000E+00 0. -1.
         23    2    1    2    0    0 -0.24543290246E+02 -0.34816247109E+02 -0.19480946987E+03  0.21887506747E+03  0.90227609150E+02 0.  0.
         23    2    1    2    0    0  0.61087265630E+02  0.26057872473E+02 -0.38530589541E+03  0.40114825958E+03  0.89714137033E+02 0.  0.
        -13    1    4    4    0    0  0.43080653639E+02  0.57247240881E+02 -0.30215629915E+03  0.31053440779E+03  0.00000000000E+00 0.  1.
         13    1    4    4    0    0  0.18006611991E+02 -0.31189368408E+02 -0.83149596261E+02  0.90613851786E+02  0.00000000000E+00 0. -1.
        -13    1    3    3    0    0 -0.37605802275E+01 -0.52396221023E+02 -0.53539932673E+02  0.75006868564E+02  0.00000000000E+00 0.  1.
         13    1    3    3    0    0 -0.20782710018E+02  0.17579973914E+02 -0.14126953719E+03  0.14386819891E+03  0.00000000000E+00 0. -1.
         21    1    1    2  502  501  0.38832718361E+02  0.50592757841E+02  0.71683935550E+02  0.95948912329E+02  0.00000000000E+00 0.  1.
         21    1    1    2  503  502 -0.75376693745E+02 -0.41834383205E+02 -0.56523423855E+03  0.57177050117E+03  0.00000000000E+00 0. -1.
<scales pt_clust_5="13000.00000" pt_clust_6="13000.00000" pt_clust_7="13000.00000" pt_clust_8="13000.00000" pt_clust_9="63.77780" pt_clust_10="78.05586"></scales>
<clustering>
<clus scale="   63.778">  1  9  2 -1</clus>
<clus scale="   78.056">  2 10  1 -1</clus>
<clus scale="   89.714">  5  6 -1 -1</clus>
<clus scale="   90.228">  7  8 -1 -1</clus>
<clus scale="   94.876">  2  5  1 -1</clus>
<clus scale="   78.056">  2  5  1 -1</clus>
</clustering>
</event>
<event>
10    2  0.1133532E-006  0.1229929E+03  0.7546771E-02  0.1251385E+00
          1   -1    0    0  503    0  0.00000000000E+00  0.00000000000E+00  0.64220723011E+03  0.64220723011E+03  0.00000000000E+00 0. -1.
         -1   -1    0    0    0  501 -0.00000000000E+00 -0.00000000000E+00 -0.10475669315E+03  0.10475669315E+03  0.00000000000E+00 0.  1.
         23    2    1    2    0    0  0.50634018730E+02  0.48329622548E+02  0.71069618285E+01  0.11415310383E+03  0.89893636811E+02 0.  0.
         23    2    1    2    0    0  0.43827212003E+02 -0.38593339701E+02  0.17220870361E+03  0.20262609663E+03  0.89393663407E+02 0.  0.
        -11    1    4    4    0    0  0.71164201112E+02 -0.21045769661E+02  0.11605993866E+03  0.13775767602E+03  0.00000000000E+00 0.  1.
         11    1    4    4    0    0 -0.27336989108E+02 -0.17547570040E+02  0.56148764950E+02  0.64868420616E+02  0.00000000000E+00 0. -1.
        -13    1    3    3    0    0  0.11225069197E+01  0.62435061855E+02  0.44235342097E+01  0.62601634368E+02  0.00000000000E+00 0. -1.
         13    1    3    3    0    0  0.49511511810E+02 -0.14105439308E+02  0.26834276187E+01  0.51551469461E+02  0.00000000000E+00 0.  1.
         21    1    1    2  502  501 -0.70445360640E+02 -0.75160213848E+02  0.50445265653E+02  0.11470105234E+03  0.00000000000E+00 0.  1.
         21    1    1    2  503  502 -0.24015870093E+02  0.65423931002E+02  0.30768960587E+03  0.31548367046E+03  0.00000000000E+00 0. -1.
<scales pt_clust_5="13000.00000" pt_clust_6="13000.00000" pt_clust_7="13000.00000" pt_clust_8="13000.00000" pt_clust_9="83.94276" pt_clust_10="69.69256"></scales>
<clustering>
<clus scale="   69.693">  1 10  2 -1</clus>
<clus scale="   89.394">  5  6 -1 -1</clus>
<clus scale="   89.894">  7  8 -1 -1</clus>
<clus scale="   94.373">  1  5  2 -1</clus>
<clus scale="   83.943">  1  9  2 -1</clus>
<clus scale="   69.693">  1  5  2 -1</clus>
</clustering>
</event>
<event>
10    2  0.1133532E-006  0.2077192E+03  0.7546771E-02  0.1143457E+00
          2   -1    0    0  503    0  0.00000000000E+00  0.00000000000E+00  0.35110159462E+03  0.35110159462E+03  0.00000000000E+00 0. -1.
         -2   -1    0    0    0  501 -0.00000000000E+00 -0.00000000000E+00 -0.57667530300E+03  0.57667530300E+03  0.00000000000E+00 0.  1.
         23    2    1    2    0    0 -0.52010417868E+02  0.19760856408E+03 -0.45260945928E+03  0.50550673626E+03  0.94485499478E+02 0.  0.
         23    2    1    2    0    0  0.57244891297E+02 -0.15412016981E+03  0.20570569680E+03  0.27950538261E+03  0.93693227573E+02 0.  0.
        -11    1    4    4    0    0  0.62011001320E+02 -0.76005213040E+02  0.62503143553E+02  0.11631336831E+03  0.00000000000E+00 0.  1.
         11    1    4    4    0    0 -0.47661100231E+01 -0.78114956767E+02  0.14320255325E+03  0.16319201430E+03  0.00000000000E+00 0. -1.
        -13    1    3    3    0    0  0.15598319681E+02  0.76170409740E+02 -0.23280074266E+03  0.24544128561E+03  0.00000000000E+00 0. -1.
         13    1    3    3    0    0 -0.67608737549E+02  0.12143815434E+03 -0.21980871661E+03  0.26006545065E+03  0.00000000000E+00 0.  1.
         21    1    1    2  502  501  0.26800130991E+02 -0.13249920190E+02 -0.50392774833E+02  0.58593849178E+02  0.00000000000E+00 0.  1.
         21    1    1    2  503  502 -0.32034604420E+02 -0.30238474081E+02  0.71722828935E+02  0.84170929575E+02  0.00000000000E+00 0.  1.
<scales pt_clust_5="13000.00000" pt_clust_6="13000.00000" pt_clust_7="13000.00000" pt_clust_8="13000.00000" pt_clust_9="29.89661" pt_clust_10="43.92941"></scales>
<clustering>
<clus scale="   29.897">  2  9  1 -1</clus>
<clus scale="   43.929">  1 10  2 -1</clus>
<clus scale="   93.693">  5  6 -1 -1</clus>
<clus scale="   94.485">  7  8 -1 -1</clus>
<clus scale="  207.360">  1  5  2 -1</clus>
<clus scale="   43.929">  1  5  2 -1</clus>
</clustering>
</event>
<event>
10    2  0.1133532E-006  0.1380249E+03  0.7546771E-02  0.1216321E+00
         -1   -1    0    0    0  501 -0.00000000000E+00  0.00000000000E+00  0.39230314067E+02  0.39230314067E+02  0.00000000000E+00 0.  1.
          1   -1    0    0  502    0  0.00000000000E+00 -0.00000000000E+00 -0.14203093209E+04  0.14203093209E+04  0.00000000000E+00 0. -1.
         23    2    1    2    0    0  0.74404047430E+02 -0.14176545557E+03 -0.69125676632E+03  0.71524611698E+03  0.90042679937E+02 0.  0.
         23    2    1    2    0    0 -0.47541461759E+02  0.58244120634E+02 -0.56392751028E+03  0.57621343464E+03  0.91406330378E+02 0.  0.
        -11    1    4    4    0    0  0.16213975834E+02 -0.12284819208E+02 -0.58877254652E+02  0.62292382445E+02  0.00000000000E+00 0. -1.
         11    1    4    4    0    0 -0.63755437593E+02  0.70528939843E+02 -0.50505025563E+03  0.51392105219E+03  0.00000000000E+00 0.  1.
        -11    1    3    3    0    0  0.36948523093E+02 -0.49462638890E+02 -0.11578932594E+03  0.13122085964E+03  0.00000000000E+00 0.  1.
         11    1    3    3    0    0  0.37455524337E+02 -0.92302816682E+02 -0.57546744038E+03  0.58402525734E+03  0.00000000000E+00 0. -1.
         21    1    1    2  502  503 -0.87803914358E+01  0.44277894922E+02 -0.12660576069E+02  0.46881952166E+02  0.00000000000E+00 0.  1.
         21    1    1    2  503  501 -0.18082194235E+02  0.39243440015E+02 -0.11323415422E+03  0.12119813123E+03  0.00000000000E+00 0.  1.
<scales pt_clust_5="13000.00000" pt_clust_6="13000.00000" pt_clust_7="13000.00000" pt_clust_8="13000.00000" pt_clust_9="65.71693" pt_clust_10="43.20895"></scales>
<clustering>
<clus scale="   43.209">  1 10  2 -1</clus>
<clus scale="   65.717">  1  9  2 -1</clus>
<clus scale="   90.043">  7  8 -1 -1</clus>
<clus scale="   91.406">  5  6 -1 -1</clus>
<clus scale="  137.126">  1  7  2 -1</clus>
<clus scale="  138.025">  2  5  1 -1</clus>
</clustering>
</event>
<event>
10    2  0.1133532E-006  0.1236428E+03  0.7546771E-02  0.1252604E+00
         -2   -1    0    0    0  501 -0.00000000000E+00  0.00000000000E+00  0.57747569629E+02  0.57747569629E+02  0.00000000000E+00 0.  1.
          2   -1    0    0  503    0  0.00000000000E+00 -0.00000000000E+00 -0.87234894422E+03  0.87234894422E+03  0.00000000000E+00 0. -1.
         23    2    1    2    0    0  0.33065154362E+02  0.29128731686E+02 -0.16584236129E+03  0.19300251254E+03  0.88343045053E+02 0.  0.
         23    2    1    2    0    0  0.62935718710E+02  0.81056054202E+02 -0.25251239727E+03  0.28636558649E+03  0.87816568711E+02 0.  0.
        -13    1    3    3    0    0  0.16455018648E+02  0.47577659180E+02 -0.38806156450E+02  0.63563504231E+02  0.00000000000E+00 0. -1.
         13    1    3    3    0    0  0.16610135714E+02 -0.18448927494E+02 -0.12703620484E+03  0.12943900831E+03  0.00000000000E+00 0.  1.
        -13    1    4    4    0    0  0.21980381371E+02 -0.63256270747E+01 -0.92707466063E+01  0.24679900035E+02  0.00000000000E+00 0.  1.
         13    1    4    4    0    0  0.40955337339E+02  0.87381681277E+02 -0.24324165066E+03  0.26168568646E+03  0.00000000000E+00 0. -1.
         21    1    1    2  502  501 -0.39353236631E+02 -0.49588060319E+02 -0.21418378506E+02  0.66831129702E+02  0.00000000000E+00 0.  1.
         21    1    1    2  503  502 -0.56647636442E+02 -0.60596725569E+02 -0.37482823753E+03  0.38389728511E+03  0.00000000000E+00 0.  1.
<scales pt_clust_5="13000.00000" pt_clust_6="13000.00000" pt_clust_7="13000.00000" pt_clust_8="13000.00000" pt_clust_9="63.30603" pt_clust_10="87.03906"></scales>
<clustering>
<clus scale="   63.306">  1  9  2 -1</clus>
<clus scale="   87.817">  7  8 -1 -1</clus>
<clus scale="   88.343">  5  6 -1 -1</clus>
<clus scale="   90.665">  1  5  2 -1</clus>
<clus scale="   87.039">  2 10  1 -1</clus>
<clus scale="   87.039">  2  5  1 -1</clus>
</clustering>
</event>
<event>
10    2  0.1133532E-006  0.1206563E+03  0.7546771E-02  0.1242164E+00
          1   -1    0    0  503    0  0.00000000000E+00  0.00000000000E+00  0.17679064524E+03  0.17679064524E+03  0.00000000000E+00 0. -1.
         -1   -1    0    0    0  501 -0.00000000000E+00 -0.00000000000E+00 -0.31536811313E+03  0.31536811313E+03  0.00000000000E+00 0.  1.
         23    2    1    2    0    0 -0.11707246988E+03 -0.71728638932E+01 -0.17396399871E+03  0.22777020704E+03  0.88647510892E+02 0.  0.
         23    2    1    2    0    0  0.55775700192E+02  0.41288842321E+02  0.82285293689E+02  0.13975186149E+03  0.89129209587E+02 0.  0.
        -13    1    4    4    0    0  0.21500024464E+02  0.44946687401E+02  0.91398894121E+02  0.10409713544E+03  0.00000000000E+00 0. -1.
         13    1    4    4    0    0  0.34275675727E+02 -0.36578450799E+01 -0.91136004318E+01  0.35654726055E+02  0.00000000000E+00 0.  1.
        -13    1    3    3    0    0 -0.27040446038E+02 -0.41027778842E+02 -0.43112440370E+02  0.65369311403E+02  0.00000000000E+00 0. -1.
         13    1    3    3    0    0 -0.90032023845E+02  0.33854914949E+02 -0.13085155834E+03  0.16240089564E+03  0.00000000000E+00 0.  1.
         21    1    1    2  502  501  0.39138333696E+02  0.12375845395E+02 -0.58863680140E+02  0.71762828494E+02  0.00000000000E+00 0. -1.
         21    1    1    2  503  502  0.22158435995E+02 -0.46491823823E+02  0.11964917269E+02  0.52873861344E+02  0.00000000000E+00 0.  1.
<scales pt_clust_5="13000.00000" pt_clust_6="13000.00000" pt_clust_7="13000.00000" pt_clust_8="13000.00000" pt_clust_9="41.04839" pt_clust_10="52.07216"></scales>
<clustering>
<clus scale="   41.048">  2  9  1 -1</clus>
<clus scale="   52.072">  1 10  2 -1</clus>
<clus scale="   88.648">  7  8 -1 -1</clus>
<clus scale="   89.129">  5  6 -1 -1</clus>
<clus scale="  120.301">  2  7  1 -1</clus>
<clus scale="   52.072">  1  5  2 -1</clus>
</clustering>
</event>
<event>
10    2  0.1133532E-006  0.1107401E+03  0.7546771E-02  0.1260717E+00
         -1   -1    0    0    0  501 -0.00000000000E+00  0.00000000000E+00  0.18785859598E+03  0.18785859598E+03  0.00000000000E+00 0.  1.
          1   -1    0    0  503    0  0.00000000000E+00 -0.00000000000E+00 -0.45354655937E+03  0.45354655937E+03  0.00000000000E+00 0. -1.
         23    2    1    2    0    0 -0.64059825371E+02 -0.18458754932E+02  0.12318467640E+03  0.16902602059E+03  0.94609430162E+02 0.  0.
         23    2    1    2    0    0  0.26051157417E+02 -0.38038305332E+02 -0.36238635152E+03  0.37642102594E+03  0.90792871544E+02 0.  0.
        -11    1    3    3    0    0  0.51315133159E+01 -0.38626724934E+02  0.21844014083E+02  0.44671212870E+02  0.00000000000E+00 0. -1.
         11    1    3    3    0    0 -0.69191338687E+02  0.20167970002E+02  0.10134066232E+03  0.12435480772E+03  0.00000000000E+00 0.  1.
        -11    1    4    4    0    0  0.14391818308E+02 -0.55771919665E+02 -0.34259028916E+03  0.34739852862E+03  0.00000000000E+00 0. -1.
         11    1    4    4    0    0  0.11659339109E+02  0.17733614332E+02 -0.19796062360E+02  0.29022497320E+02  0.00000000000E+00 0.  1.
         21    1    1    2  502  501  0.48637127805E+01  0.20083828581E+02  0.19625299086E+02  0.28498565520E+02  0.00000000000E+00 0.  1.
         21    1    1    2  503  502  0.33144955174E+02  0.36413231684E+02 -0.46111587349E+02  0.67459543305E+02  0.00000000000E+00 0.  1.
<scales pt_clust_5="13000.00000" pt_clust_6="13000.00000" pt_clust_7="13000.00000" pt_clust_8="13000.00000" pt_clust_9="20.66436" pt_clust_10="50.42469"></scales>
<clustering>
<clus scale="   20.664">  1  9  2 -1</clus>
<clus scale="   50.425">  2 10  1 -1</clus>
<clus scale="   90.793">  7  8 -1 -1</clus>
<clus scale="   94.609">  5  6 -1 -1</clus>
<clus scale="  107.498">  2  7  1 -1</clus>
<clus scale="   50.425">  2  5  1 -1</clus>
</clustering>
</event>
<event>
10    2  0.1133532E-006  0.1213885E+03  0.7546771E-02  0.1240875E+00
         -1   -1    0    0    0  501 -0.00000000000E+00  0.00000000000E+00  0.18722779578E+03  0.18722779578E+03  0.00000000000E+00 0.  1.
          1   -1    0    0  502    0  0.00000000000E+00 -0.00000000000E+00 -0.22513238299E+03  0.22513238299E+03  0.00000000000E+00 0. -1.
         23    2    1    2    0    0  0.58013323584E+02  0.47997096122E+02  0.74878889549E+02  0.13991338119E+03  0.91102355553E+02 0.  0.
         23    2    1    2    0    0 -0.76080013547E+02 -0.29863756776E+02 -0.13860805847E+03  0.18499344179E+03  0.91270845317E+02 0.  0.
        -11    1    3    3    0    0  0.28059988188E+02  0.62744843169E+02  0.80720352141E+02  0.10601911871E+03  0.00000000000E+00 0.  1.
         11    1    3    3    0    0  0.29953335396E+02 -0.14747747047E+02 -0.58414625913E+01  0.33894262487E+02  0.00000000000E+00 0. -1.
        -13    1    4    4    0    0 -0.26192494053E+02 -0.34595251836E+02 -0.67241191086E+01  0.43910044091E+02  0.00000000000E+00 0.  1.
         13    1    4    4    0    0 -0.49887519494E+02  0.47314950601E+01 -0.13188393936E+03  0.14108339770E+03  0.00000000000E+00 0. -1.
         21    1    1    2  502  503  0.14461722868E+02 -0.48428818744E+02  0.26226742903E+02  0.56941495911E+02  0.00000000000E+00 0.  1.
         21    1    1    2  503  501  0.36049670944E+01  0.30295479399E+02 -0.40216119439E+00  0.30511859881E+02  0.00000000000E+00 0. -1.
<scales pt_clust_5="13000.00000" pt_clust_6="13000.00000" pt_clust_7="13000.00000" pt_clust_8="13000.00000" pt_clust_9="43.87772" pt_clust_10="30.50921"></scales>
<clustering>
<clus scale="   30.509">  1 10  2 -1</clus>
<clus scale="   43.878">  1  9  2 -1</clus>
<clus scale="   91.102">  5  6 -1 -1</clus>
<clus scale="   91.271">  7  8 -1 -1</clus>
<clus scale="  121.262">  1  5  2 -1</clus>
<clus scale="  121.389">  2  5  1 -1</clus>
</clustering>
</event>
<event>
10    2  0.1133532E-006  0.1133131E+03  0.7546771E-02  0.1256129E+00
         -2   -1    0    0    0  501 -0.00000000000E+00  0.00000000000E+00  0.84660976930E+02  0.84660976930E+02  0.00000000000E+00 0.  1.
          2   -1    0    0  503    0  0.00000000000E+00 -0.00000000000E+00 -0.74211914398E+03  0.74211914398E+03  0.00000000000E+00 0. -1.
         23    2    1    2    0    0 -0.17329584245E+02 -0.85870922551E+02 -0.55385038930E+02  0.13808169718E+03  0.91241014512E+02 0.  0.
         23    2    1    2    0    0 -0.27036519453E+02  0.20319723730E+02 -0.53358795186E+03  0.54310322781E+03  0.95399943054E+02 0.  0.
        -11    1    4    4    0    0  0.34217679969E+02 -0.48249879681E+01 -0.15949873167E+03  0.16319918975E+03  0.00000000000E+00 0.  1.
         11    1    4    4    0    0 -0.61254199422E+02  0.25144711698E+02 -0.37408922018E+03  0.37990403806E+03  0.00000000000E+00 0. -1.
        -13    1    3    3    0    0 -0.32044988313E+02  0.34783797284E+01 -0.58602632736E+00  0.32238545693E+02  0.00000000000E+00 0. -1.
         13    1    3    3    0    0  0.14715404069E+02 -0.89349302280E+02 -0.54799012603E+02  0.10584315149E+03  0.00000000000E+00 0.  1.
         21    1    1    2  502  501  0.11432621994E+02  0.24130999934E+02  0.26019923850E+02  0.37283326577E+02  0.00000000000E+00 0.  1.
         21    1    1    2  503  502  0.32933481704E+02  0.41420198888E+02 -0.94505100119E+02  0.10831186935E+03  0.00000000000E+00 0.  1.
<scales pt_clust_5="13000.00000" pt_clust_6="13000.00000" pt_clust_7="13000.00000" pt_clust_8="13000.00000" pt_clust_9="26.70225" pt_clust_10="56.30931"></scales>
<clustering>
<clus scale="   26.702">  1  9  2 -1</clus>
<clus scale="   56.309">  2 10  1 -1</clus>
<clus scale="   91.241">  7  8 -1 -1</clus>
<clus scale="   95.400">  5  6 -1 -1</clus>
<clus scale="  109.835">  1  7  2 -1</clus>
<clus scale="   56.309">  2  5  1 -1</clus>
</clustering>
</event>
<event>
10    2  0.1133532E-006  0.1299681E+03  0.7546771E-02  0.1227946E+00
          1   -1    0    0  503    0  0.00000000000E+00  0.00000000000E+00  0.11063796925E+03  0.11063796925E+03  0.00000000000E+00 0. -1.
         -1   -1    0    0    0  501 -0.00000000000E+00 -0.00000000000E+00 -0.32234612627E+03  0.32234612627E+03  0.00000000000E+00 0.  1.
         23    2    1    2    0    0 -0.80345493037E+01  0.10807527744E+03 -0.18161215891E+03  0.23044546243E+03  0.91527675127E+02 0.  0.
         23    2    1    2    0    0  0.37029449622E+02 -0.92533422828E+02 -0.96728950974E+01  0.13452483327E+03  0.89831794966E+02 0.  0.
        -11    1    3    3    0    0 -0.39987923517E+02  0.94426966455E+02 -0.10735233965E+03  0.14845878502E+03  0.00000000000E+00 0.  1.
         11    1    3    3    0    0  0.31953374213E+02  0.13648310986E+02 -0.74259819259E+02  0.81986677410E+02  0.00000000000E+00 0. -1.
        -11    1    4    4    0    0  0.50305909845E+02 -0.12189748386E+02 -0.11695243725E+02  0.53066498442E+02  0.00000000000E+00 0.  1.
         11    1    4    4    0    0 -0.13276460223E+02 -0.80343674442E+02  0.20223486273E+01  0.81458334827E+02  0.00000000000E+00 0. -1.
         21    1    1    2  502  501 -0.67971232830E+01 -0.29853235218E+02 -0.26971367763E+02  0.40802833443E+02  0.00000000000E+00 0. -1.
         21    1    1    2  503  502 -0.22197777035E+02  0.14311380605E+02  0.65482647528E+01  0.27210966381E+02  0.00000000000E+00 0. -1.
<scales pt_clust_5="13000.00000" pt_clust_6="13000.00000" pt_clust_7="13000.00000" pt_clust_8="13000.00000" pt_clust_9="30.00737" pt_clust_10="26.41130"></scales>
<clustering>
<clus scale="   26.411">  1 10  2 -1</clus>
<clus scale="   30.007">  2  9  1 -1</clus>
<clus scale="   89.832">  7  8 -1 -1</clus>
<clus scale="   91.528">  5  6 -1 -1</clus>
<clus scale="  128.779">  1  7  2 -1</clus>
<clus scale="   26.411">  1  5  2 -1</clus>
</clustering>
</event>
<event>
10    2  0.1133532E-006  0.1299935E+03  0.7546771E-02  0.1228518E+00
         -2   -1    0    0    0  501 -0.00000000000E+00  0.00000000000E+00  0.52599710512E+02  0.52599710512E+02  0.00000000000E+00 0.  1.
          2   -1    0    0  503    0  0.00000000000E+00 -0.00000000000E+00 -0.81129379213E+03  0.81129379213E+03  0.00000000000E+00 0. -1.
         23    2    1    2    0    0 -0.84277182646E+01  0.46052894051E+02 -0.10628338627E+03  0.14902684403E+03  0.93386008375E+02 0.  0.
         23    2    1    2    0    0  0.68427782879E+02 -0.88653791929E+02 -0.52569302951E+03  0.54488049279E+03  0.89441231269E+02 0.  0.
        -13    1    4    4    0    0  0.24295051296E+02 -0.95165971199E+02 -0.38179268034E+03  0.39422387340E+03  0.00000000000E+00 0. -1.
         13    1    4    4    0    0  0.44132731583E+02  0.65121792708E+01 -0.14390034917E+03  0.15065661939E+03  0.00000000000E+00 0.  1.
        -13    1    3    3    0    0 -0.28990257175E+02  0.17881251730E+02  0.31147527689E+01  0.34203448062E+02  0.00000000000E+00 0.  1.
         13    1    3    3    0    0  0.20562538910E+02  0.28171642321E+02 -0.10939813904E+03  0.11482339597E+03  0.00000000000E+00 0. -1.
         21    1    1    2  502  501  0.20633923339E+01  0.28786585541E+02 -0.73708829252E+00  0.28869852687E+02  0.00000000000E+00 0. -1.
         21    1    1    2  503  502 -0.62063456949E+02  0.13814312337E+02 -0.12598057755E+03  0.14111631314E+03  0.00000000000E+00 0.  1.
<scales pt_clust_5="13000.00000" pt_clust_6="13000.00000" pt_clust_7="13000.00000" pt_clust_8="13000.00000" pt_clust_9="28.86044" pt_clust_10="64.65861"></scales>
<clustering>
<clus scale="   28.860">  1  9  2 -1</clus>
<clus scale="   64.659">  1 10  2 -1</clus>
<clus scale="   89.441">  5  6 -1 -1</clus>
<clus scale="   93.386">  7  8 -1 -1</clus>
<clus scale="  127.189">  2  5  1 -1</clus>
<clus scale="  127.189">  2  5  1 -1</clus>
</clustering>
</event>
<event>
10    2  0.1133532E-006  0.1089524E+03  0.7546771E-02  0.1262872E+00
         -1   -1    0    0    0  501 -0.00000000000E+00  0.00000000000E+00  0.36148994440E+02  0.36148994440E+02  0.00000000000E+00 0.  1.
          1   -1    0    0  503    0  0.00000000000E+00 -0.00000000000E+00 -0.75872234238E+03  0.75872234238E+03  0.00000000000E+00 0. -1.
         23    2    1    2    0    0 -0.70388272878E+02 -0.10325099293E+02 -0.16121395527E+03  0.19930378792E+03  0.93117903051E+02 0.  0.
         23    2    1    2    0    0  0.39166523268E+02  0.99104416125E+01 -0.32207320986E+03  0.33745082294E+03  0.92247883435E+02 0.  0.
        -11    1    3    3    0    0 -0.36039339817E+02 -0.34125068985E+02 -0.22614263205E+02  0.54541353558E+02  0.00000000000E+00 0.  1.
         11    1    3    3    0    0 -0.34348933061E+02  0.23799969691E+02 -0.13859969207E+03  0.14476243436E+03  0.00000000000E+00 0. -1.
        -11    1    4    4    0    0  0.59431665139E+01 -0.37352335639E+02 -0.18278373194E+03  0.18665586213E+03  0.00000000000E+00 0.  1.
         11    1    4    4    0    0  0.33223356754E+02  0.47262777251E+02 -0.13928947792E+03  0.15079496081E+03  0.00000000000E+00 0. -1.
         21    1    1    2  502  501  0.20191049291E+02 -0.35340036329E+02 -0.46779854623E+02  0.62007672410E+02  0.00000000000E+00 0. -1.
         21    1    1    2  503  502  0.11030700319E+02  0.35754694010E+02 -0.19250632818E+03  0.19610905355E+03  0.00000000000E+00 0. -1.
<scales pt_clust_5="13000.00000" pt_clust_6="13000.00000" pt_clust_7="13000.00000" pt_clust_8="13000.00000" pt_clust_9="38.32730" pt_clust_10="37.41757"></scales>
<clustering>
<clus scale="   37.418">  2 10  1 -1</clus>
<clus scale="   38.327">  1  9  2 -1</clus>
<clus scale="   92.248">  7  8 -1 -1</clus>
<clus scale="   93.118">  5  6 -1 -1</clus>
<clus scale="  108.210">  2  7  1 -1</clus>
<clus scale="   37.418">  2  5  1 -1</clus>
</clustering>
</event>
<event>
10    2  0.1133532E-006  0.1003426E+03  0.7546771E-02  0.1279880E+00
         -1   -1    0    0    0  501 -0.00000000000E+00  0.00000000000E+00  0.39478999200E+03  0.39478999200E+03  0.00000000000E+00 0.  1.
          1   -1    0    0  503    0  0.00000000000E+00 -0.00000000000E+00 -0.13288365926E+03  0.13288365926E+03  0.00000000000E+00 0. -1.
         23    2    1    2    0    0 -0.20086983226E+02 -0.46998517611E+02  0.21017769089E+03  0.23607594025E+03  0.94577165642E+02 0.  0.
         23    2    1    2    0    0  0.10339521550E+01  0.95565755615E+01 -0.57983992848E+02  0.11083376841E+03  0.93965864011E+02 0.  0.
        -13    1    4    4    0    0 -0.16014343297E+02 -0.39123382482E+02 -0.19931537965E+02  0.46737184914E+02  0.00000000000E+00 0.  1.
         13    1    4    4    0    0  0.17048295452E+02  0.48679958043E+02 -0.38052454883E+02  0.64096583494E+02  0.00000000000E+00 0. -1.
        -13    1    3    3    0    0 -0.44479905766E+02  0.75733752475E+01  0.65505393566E+02  0.79541024734E+02  0.00000000000E+00 0. -1.
         13    1    3    3    0    0  0.24392922540E+02 -0.54571892858E+02  0.14467229733E+03  0.15653491551E+03  0.00000000000E+00 0.  1.
         21    1    1    2  502  501  0.16161065012E+02  0.12130620815E+02  0.13984949381E+03  0.14130185032E+03  0.00000000000E+00 0.  1.
         21    1    1    2  503  502  0.28919660588E+01  0.25311321234E+02 -0.30136859121E+02  0.39462092291E+02  0.00000000000E+00 0. -1.
<scales pt_clust_5="13000.00000" pt_clust_6="13000.00000" pt_clust_7="13000.00000" pt_clust_8="13000.00000" pt_clust_9="20.20723" pt_clust_10="25.73211"></scales>
<clustering>
<clus scale="   20.207">  1  9  2 -1</clus>
<clus scale="   25.732">  2 10  1 -1</clus>
<clus scale="   93.966">  5  6 -1 -1</clus>
<clus scale="   94.577">  7  8 -1 -1</clus>
<clus scale="   99.767">  2  5  1 -1</clus>
<clus scale="   25.732">  2  5  1 -1</clus>
</clustering>
</event>
<event>
10    2  0.1133532E-006  0.1076057E+03  0.7546771E-02  0.1272237E+00
         -4   -1    0    0    0  501 -0.00000000000E+00  0.00000000000E+00  0.78937604337E+02  0.78937604337E+02  0.00000000000E+00 0.  1.
          4   -1    0    0  503    0  0.00000000000E+00 -0.00000000000E+00 -0.32804759033E+03  0.32804759033E+03  0.00000000000E+00 0. -1.
         23    2    1    2    0    0 -0.22765390773E+02 -0.85597186462E+01 -0.38174663745E+02  0.10220821686E+03  0.91638871889E+02 0.  0.
         23    2    1    2    0    0  0.82551969377E+01 -0.21155747778E+02 -0.85755053510E+02  0.13811733533E+03  0.10586196283E+03 0.  0.
        -11    1    3    3    0    0  0.86517483100E+01 -0.43469195980E+02 -0.32374301069E+02  0.54886420157E+02  0.00000000000E+00 0. -1.
         11    1    3    3    0    0 -0.31417139083E+02  0.34909477334E+02 -0.58003626766E+01  0.47321796702E+02  0.00000000000E+00 0.  1.
        -13    1    4    4    0    0 -0.23464707152E+02 -0.91008336051E+01  0.16689770909E+02  0.30198776582E+02  0.00000000000E+00 0.  1.
         13    1    4    4    0    0  0.31719904090E+02 -0.12054914173E+02 -0.10244482442E+03  0.10791855874E+03  0.00000000000E+00 0. -1.
         21    1    1    2  502  501 -0.58759877523E+01  0.30080420862E+02  0.82023996839E+01  0.31727563913E+02  0.00000000000E+00 0.  1.
         21    1    1    2  503  502  0.20386181588E+02 -0.36495443793E+00 -0.13338266842E+03  0.13493207856E+03  0.00000000000E+00 0. -1.
<scales pt_clust_5="13000.00000" pt_clust_6="13000.00000" pt_clust_7="13000.00000" pt_clust_8="13000.00000" pt_clust_9="30.41419" pt_clust_10="20.38945"></scales>
<clustering>
<clus scale="   20.389">  2 10  1 -1</clus>
<clus scale="   30.414">  1  9  2 -1</clus>
<clus scale="   91.639">  5  6 -1 -1</clus>
<clus scale="   93.648">  1  5  2 -1</clus>
<clus scale="  105.862">  7  8 -1 -1</clus>
<clus scale="   20.389">  2  5  1 -1</clus>
</clustering>
</event>
<event>
10    2  0.1133532E-006  0.1091684E+03  0.7546771E-02  0.1262940E+00
         -2   -1    0    0    0  501 -0.00000000000E+00  0.00000000000E+00  0.88399729226E+02  0.88399729226E+02  0.00000000000E+00 0.  1.
          2   -1    0    0  503    0  0.00000000000E+00 -0.00000000000E+00 -0.65113995068E+03  0.65113995068E+03  0.00000000000E+00 0. -1.
         23    2    1    2    0    0 -0.40607700369E+02  0.15524029065E+02 -0.49422897249E+02  0.10974113877E+03  0.87809532279E+02 0.  0.
         23    2    1    2    0    0  0.88620241032E+02  0.26724893904E+02 -0.27657575835E+03  0.30520498355E+03  0.89934224884E+02 0.  0.
        -11    1    3    3    0    0  0.17570025837E+02  0.14515992261E+02 -0.46140378060E+02  0.51462164031E+02  0.00000000000E+00 0. -1.
         11    1    3    3    0    0 -0.58177726206E+02  0.10080368044E+01 -0.32825191885E+01  0.58278974742E+02  0.00000000000E+00 0.  1.
        -13    1    4    4    0    0 -0.12743361449E+02  0.22502485836E+02 -0.78663219574E+02  0.82804934899E+02  0.00000000000E+00 0.  1.
         13    1    4    4    0    0  0.10136360248E+03  0.42224080682E+01 -0.19791253877E+03  0.22240004865E+03  0.00000000000E+00 0. -1.
         21    1    1    2  502  501 -0.21403201383E+02 -0.17115473567E+02  0.38317886871E+02  0.47109414337E+02  0.00000000000E+00 0.  1.
         21    1    1    2  503  502 -0.26609339280E+02 -0.25133449402E+02 -0.27505945273E+03  0.27748414324E+03  0.00000000000E+00 0. -1.
<scales pt_clust_5="13000.00000" pt_clust_6="13000.00000" pt_clust_7="13000.00000" pt_clust_8="13000.00000" pt_clust_9="27.40504" pt_clust_10="37.32737"></scales>
<clustering>
<clus scale="   27.405">  1  9  2 -1</clus>
<clus scale="   37.327">  2 10  1 -1</clus>
<clus scale="   87.810">  5  6 -1 -1</clus>
<clus scale="   89.934">  7  8 -1 -1</clus>
<clus scale="  107.425">  1  5  2 -1</clus>
<clus scale="   37.327">  2  5  1 -1</clus>
</clustering>
</event>
<event>
10    2  0.1293258E-006  0.2996004E+03  0.7546771E-02  0.1085794E+00
          1   -1    0    0  503    0  0.00000000000E+00  0.00000000000E+00  0.12633948284E+04  0.12633948284E+04  0.00000000000E+00 0. -1.
         -1   -1    0    0    0  501 -0.00000000000E+00 -0.00000000000E+00 -0.31410876075E+03  0.31410876075E+03  0.00000000000E+00 0.  1.
         23    2    1    2    0    0  0.40622206960E+03  0.33153156884E+01 -0.50623147088E+02  0.41611277303E+03  0.74563903511E+02 0.  0.
         23    2    1    2    0    0 -0.26576691855E+03 -0.79371618880E+02  0.93197373032E+03  0.97608465177E+03  0.85054714977E+02 0.  0.
        -11    1    4    4    0    0 -0.17518598189E+02  0.16413408028E+02  0.80449474550E+02  0.83954864069E+02  0.00000000000E+00 0.  1.
         11    1    4    4    0    0 -0.24824832037E+03 -0.95785026908E+02  0.85152425577E+03  0.89212978770E+03  0.00000000000E+00 0. -1.
        -13    1    3    3    0    0  0.34709984047E+03 -0.68113162403E+01 -0.67785846238E+02  0.35372251022E+03  0.00000000000E+00 0.  1.
         13    1    3    3    0    0  0.59122229131E+02  0.10126631929E+02  0.17162699150E+02  0.62390262812E+02  0.00000000000E+00 0. -1.
         21    1    1    2  502  501 -0.36181744595E+02  0.26952569162E+02 -0.99494834185E+01  0.46201210446E+02  0.00000000000E+00 0.  1.
         21    1    1    2  503  502 -0.10427340645E+03  0.49103734029E+02  0.77884967893E+02  0.13910495395E+03  0.00000000000E+00 0. -1.
<scales pt_clust_5="13000.00000" pt_clust_6="13000.00000" pt_clust_7="13000.00000" pt_clust_8="13000.00000" pt_clust_9="40.60009" pt_clust_10="172.40402"></scales>
<clustering>
<clus scale="   40.600">  9 10 -1 -1</clus>
<clus scale="   74.564">  7  8 -1 -1</clus>
<clus scale="   85.055">  5  6 -1 -1</clus>
<clus scale="  172.404">  2  9  1 -1</clus>
<clus scale="  296.793">  2  7  1 -1</clus>
<clus scale="  299.600">  1  5  2 -1</clus>
</clustering>
</event>
<event>
10    2  0.1133532E-006  0.1003683E+03  0.7546771E-02  0.1279756E+00
         -1   -1    0    0    0  501 -0.00000000000E+00  0.00000000000E+00  0.11021450827E+03  0.11021450827E+03  0.00000000000E+00 0.  1.
          1   -1    0    0  503    0  0.00000000000E+00 -0.00000000000E+00 -0.47169920913E+03  0.47169920913E+03  0.00000000000E+00 0. -1.
         23    2    1    2    0    0 -0.34105206202E+02  0.10793197169E+02  0.46715869146E+02  0.10987144705E+03  0.92788492027E+02 0.  0.
         23    2    1    2    0    0  0.56830186599E+02 -0.22341811542E+02 -0.30979613180E+03  0.32897295298E+03  0.92307821212E+02 0.  0.
        -11    1    4    4    0    0  0.34810524469E+02  0.34901711238E+02 -0.13308893129E+03  0.14192450702E+03  0.00000000000E+00 0. -1.
         11    1    4    4    0    0  0.22019662130E+02 -0.57243522780E+02 -0.17670720052E+03  0.18704844596E+03  0.00000000000E+00 0.  1.
        -13    1    3    3    0    0 -0.33278479835E+02 -0.20788905644E+02  0.63082972497E+02  0.74290626846E+02  0.00000000000E+00 0.  1.
         13    1    3    3    0    0 -0.82672636676E+00  0.31582102813E+02 -0.16367103352E+02  0.35580820209E+02  0.00000000000E+00 0. -1.
         21    1    1    2  502  501 -0.20880551707E+01 -0.20834374843E+02  0.13396595538E+02  0.24857592834E+02  0.00000000000E+00 0. -1.
         21    1    1    2  503  502 -0.20636925227E+02  0.32382989215E+02 -0.11180103374E+03  0.11821172454E+03  0.00000000000E+00 0. -1.
<scales pt_clust_5="13000.00000" pt_clust_6="13000.00000" pt_clust_7="13000.00000" pt_clust_8="13000.00000" pt_clust_9="20.93875" pt_clust_10="37.82371"></scales>
<clustering>
<clus scale="   20.939">  1  9  2 -1</clus>
<clus scale="   37.824">  2 10  1 -1</clus>
<clus scale="   92.308">  5  6 -1 -1</clus>
<clus scale="   92.788">  7  8 -1 -1</clus>
<clus scale="   99.924">  2  5  1 -1</clus>
<clus scale="   37.824">  2  5  1 -1</clus>
</clustering>
</event>
<event>
10    2  0.1133532E-006  0.1606834E+03  0.7546771E-02  0.1190303E+00
          1   -1    0    0  503    0  0.00000000000E+00  0.00000000000E+00  0.26307094019E+03  0.26307094019E+03  0.00000000000E+00 0. -1.
         -1   -1    0    0    0  501 -0.00000000000E+00 -0.00000000000E+00 -0.22297513269E+03  0.22297513269E+03  0.00000000000E+00 0.  1.
         23    2    1    2    0    0 -0.96898392011E+01  0.14919062438E+03 -0.82337187850E+02  0.19661967265E+03  0.97612231733E+02 0.  0.
         23    2    1    2    0    0 -0.16901298251E+02 -0.10200407598E+03  0.11420448697E+03  0.17516901070E+03  0.83372849703E+02 0.  0.
        -13    1    4    4    0    0  0.46315059987E+01 -0.63888082885E+02  0.11471592226E+03  0.13138828259E+03  0.00000000000E+00 0. -1.
         13    1    4    4    0    0 -0.21532804250E+02 -0.38115993092E+02 -0.51143528272E+00  0.43780728115E+02  0.00000000000E+00 0.  1.
        -13    1    3    3    0    0 -0.38068424033E+02  0.14231979967E+03 -0.79174176427E+02  0.16725035276E+03  0.00000000000E+00 0.  1.
         13    1    3    3    0    0  0.28378584832E+02  0.68708247052E+01 -0.31630114229E+01  0.29369319885E+02  0.00000000000E+00 0. -1.
         21    1    1    2  502  501  0.28347725334E+02 -0.17583489257E+02 -0.43387536230E+02  0.54728885666E+02  0.00000000000E+00 0. -1.
         21    1    1    2  503  502 -0.17565878820E+01 -0.29603059143E+02  0.51616044604E+02  0.59528503862E+02  0.00000000000E+00 0. -1.
<scales pt_clust_5="13000.00000" pt_clust_6="13000.00000" pt_clust_7="13000.00000" pt_clust_8="13000.00000" pt_clust_9="33.75142" pt_clust_10="29.65513"></scales>
<clustering>
<clus scale="   29.655">  1 10  2 -1</clus>
<clus scale="   33.751">  2  9  1 -1</clus>
<clus scale="   83.373">  5  6 -1 -1</clus>
<clus scale="   97.612">  7  8 -1 -1</clus>
<clus scale="  152.453">  1  5  2 -1</clus>
<clus scale="   29.655">  1  5  2 -1</clus>
</clustering>
</event>
<event>
10    2  0.1133532E-006  0.1415146E+03  0.7546771E-02  0.1231584E+00
          1   -1    0    0  503    0  0.00000000000E+00  0.00000000000E+00  0.94907899020E+03  0.94907899020E+03  0.00000000000E+00 0. -1.
         -1   -1    0    0    0  501 -0.00000000000E+00 -0.00000000000E+00 -0.30736510257E+03  0.30736510257E+03  0.00000000000E+00 0.  1.
         23    2    1    2    0    0  0.10862068118E+03 -0.24851018168E+02  0.49304766273E+03  0.51373926487E+03  0.91738808898E+02 0.  0.
         23    2    1    2    0    0  0.22657203188E+02  0.18774228335E+00  0.28089945896E+03  0.29633770522E+03  0.91641395624E+02 0.  0.
        -13    1    4    4    0    0 -0.87937204650E+01 -0.39909374922E+02  0.16000952605E+03  0.16514580271E+03  0.00000000000E+00 0.  1.
         13    1    4    4    0    0  0.31450923653E+02  0.40097117205E+02  0.12088993290E+03  0.13119190251E+03  0.00000000000E+00 0. -1.
        -13    1    3    3    0    0  0.35039849969E+02  0.34226443102E+02  0.19803351000E+03  0.20400125386E+03  0.00000000000E+00 0. -1.
         13    1    3    3    0    0  0.73580831207E+02 -0.59077461269E+02  0.29501415273E+03  0.30973801100E+03  0.00000000000E+00 0.  1.
         21    1    1    2  502  501 -0.42137324023E+02 -0.90085727322E+01 -0.27300101580E+03  0.27638064890E+03  0.00000000000E+00 0.  1.
         21    1    1    2  503  502 -0.89140560341E+02  0.33671848616E+02  0.14076778175E+03  0.16998647377E+03  0.00000000000E+00 0. -1.
<scales pt_clust_5="13000.00000" pt_clust_6="13000.00000" pt_clust_7="13000.00000" pt_clust_8="13000.00000" pt_clust_9="43.08954" pt_clust_10="107.75143"></scales>
<clustering>
<clus scale="   43.090">  2  9  1 -1</clus>
<clus scale="   91.641">  5  6 -1 -1</clus>
<clus scale="   91.739">  7  8 -1 -1</clus>
<clus scale="   92.538">  1  5  2 -1</clus>
<clus scale="  107.751">  2 10  1 -1</clus>
<clus scale="   92.538">  1  5  2 -1</clus>
</clustering>
</event>
<event>
10    2  0.1133532E-006  0.9190409E+02  0.7546771E-02  0.1298406E+00
         -1   -1    0    0    0  501 -0.00000000000E+00  0.00000000000E+00  0.23505427900E+03  0.23505427900E+03  0.00000000000E+00 0.  1.
          1   -1    0    0  503    0  0.00000000000E+00 -0.00000000000E+00 -0.38474629004E+03  0.38474629004E+03  0.00000000000E+00 0. -1.
         23    2    1    2    0    0 -0.31675439422E+01  0.43480297426E+02  0.65743404737E+02  0.11992108364E+03  0.90323316121E+02 0.  0.
         23    2    1    2    0    0 -0.53718285930E+01 -0.42606818658E+01 -0.35551022937E+02  0.97148037409E+02  0.90149076469E+02 0.  0.
        -11    1    3    3    0    0  0.28506810492E+02 -0.77766435479E+01 -0.15563843690E+01  0.29589470451E+02  0.00000000000E+00 0. -1.
         11    1    3    3    0    0 -0.31674354434E+02  0.51256940974E+02  0.67299789106E+02  0.90331613184E+02  0.00000000000E+00 0.  1.
        -11    1    4    4    0    0 -0.27458891945E+02 -0.38505366639E+02 -0.80164912002E+01  0.47967886528E+02  0.00000000000E+00 0.  1.
         11    1    4    4    0    0  0.22087063352E+02  0.34244684773E+02 -0.27534531737E+02  0.49180150881E+02  0.00000000000E+00 0. -1.
         21    1    1    2  502  501 -0.48127962956E+02 -0.77403516450E+02  0.87744140417E+02  0.12651734804E+03  0.00000000000E+00 0.  1.
         21    1    1    2  503  502  0.56667335491E+02  0.38183900890E+02 -0.26762853326E+03  0.27621409995E+03  0.00000000000E+00 0. -1.
<scales pt_clust_5="13000.00000" pt_clust_6="13000.00000" pt_clust_7="13000.00000" pt_clust_8="13000.00000" pt_clust_9="80.57609" pt_clust_10="68.33152"></scales>
<clustering>
<clus scale="   68.332">  2 10  1 -1</clus>
<clus scale="   80.576">  1  9  2 -1</clus>
<clus scale="   90.149">  7  8 -1 -1</clus>
<clus scale="   90.323">  5  6 -1 -1</clus>
<clus scale="   91.733">  2  7  1 -1</clus>
<clus scale="   68.332">  2  5  1 -1</clus>
</clustering>
</event>
<event>
10    2  0.1133532E-006  0.3026805E+03  0.7546771E-02  0.1126597E+00
         -3   -1    0    0    0  501 -0.00000000000E+00  0.00000000000E+00  0.30061744203E+03  0.30061744203E+03  0.00000000000E+00 0.  1.
          3   -1    0    0  503    0  0.00000000000E+00 -0.00000000000E+00 -0.72563337637E+03  0.72563337637E+03  0.00000000000E+00 0. -1.
         23    2    1    2    0    0 -0.23011899379E+03  0.14371905158E+03 -0.34619358856E+03  0.44918087874E+03  0.91123783805E+02 0.  0.
         23    2    1    2    0    0 -0.42137154323E+02  0.27246644261E+02 -0.67384354313E+02  0.12324204770E+03  0.90166688510E+02 0.  0.
        -11    1    4    4    0    0 -0.52345344423E+02  0.51405812494E+02 -0.34203482135E+02  0.80947333688E+02  0.00000000000E+00 0. -1.
         11    1    4    4    0    0  0.10208190100E+02 -0.24159168232E+02 -0.33180872178E+02  0.42294714011E+02  0.00000000000E+00 0.  1.
        -13    1    3    3    0    0 -0.11708989171E+03  0.21635334599E+02 -0.12843141751E+03  0.17513640241E+03  0.00000000000E+00 0.  1.
         13    1    3    3    0    0 -0.11302910208E+03  0.12208371698E+03 -0.21776217105E+03  0.27404447634E+03  0.00000000000E+00 0. -1.
         21    1    1    2  502  501  0.25056137148E+03 -0.15168419688E+03  0.12198492234E+03  0.31728444296E+03  0.00000000000E+00 0.  1.
         21    1    1    2  503  502  0.21694776630E+02 -0.19281498959E+02 -0.13342291381E+03  0.13654344900E+03  0.00000000000E+00 0.  1.
<scales pt_clust_5="13000.00000" pt_clust_6="13000.00000" pt_clust_7="13000.00000" pt_clust_8="13000.00000" pt_clust_9="288.63807" pt_clust_10="29.02481"></scales>
<clustering>
<clus scale="   29.025">  2 10  1 -1</clus>
<clus scale="   90.167">  5  6 -1 -1</clus>
<clus scale="   91.124">  7  8 -1 -1</clus>
<clus scale="  101.021">  2  5  1 -1</clus>
<clus scale="  288.638">  1  9  2 -1</clus>
<clus scale="   29.025">  2  5  1 -1</clus>
</clustering>
</event>
<event>
10    2  0.1133532E-006  0.1794755E+03  0.7546771E-02  0.1168714E+00
         -2   -1    0    0    0  501 -0.00000000000E+00  0.00000000000E+00  0.16615195988E+03  0.16615195988E+03  0.00000000000E+00 0.  1.
          2   -1    0    0  503    0  0.00000000000E+00 -0.00000000000E+00 -0.10804899889E+04  0.10804899889E+04  0.00000000000E+00 0. -1.
         23    2    1    2    0    0 -0.10959657449E+03 -0.10915175828E+03  0.88267921050E+02  0.19967309401E+03  0.90291766560E+02 0.  0.
         23    2    1    2    0    0  0.43330634700E+02  0.14021048535E+03 -0.84308106457E+03  0.86085031365E+03  0.93493619968E+02 0.  0.
        -11    1    4    4    0    0 -0.69823494231E+01  0.11385366694E+03 -0.63462343354E+03  0.64479323281E+03  0.00000000000E+00 0. -1.
         11    1    4    4    0    0  0.50312984123E+02  0.26356818418E+02 -0.20845763102E+03  0.21605708084E+03  0.00000000000E+00 0.  1.
        -11    1    3    3    0    0 -0.42962425066E+02 -0.54774185002E+01  0.58675271364E+02  0.72928455013E+02  0.00000000000E+00 0. -1.
         11    1    3    3    0    0 -0.66634149424E+02 -0.10367433978E+03  0.29592649686E+02  0.12674463900E+03  0.00000000000E+00 0.  1.
         21    1    1    2  502  501  0.59983252409E+02 -0.11699039819E+02 -0.64168282279E+02  0.88613918505E+02  0.00000000000E+00 0. -1.
         21    1    1    2  503  502  0.62826873820E+01 -0.19359687253E+02 -0.95356603264E+02  0.97504622646E+02  0.00000000000E+00 0.  1.
<scales pt_clust_5="13000.00000" pt_clust_6="13000.00000" pt_clust_7="13000.00000" pt_clust_8="13000.00000" pt_clust_9="61.89530" pt_clust_10="20.35362"></scales>
<clustering>
<clus scale="   20.354">  2 10  1 -1</clus>
<clus scale="   61.895">  2  9  1 -1</clus>
<clus scale="   90.292">  7  8 -1 -1</clus>
<clus scale="   93.494">  5  6 -1 -1</clus>
<clus scale="  177.829">  1  7  2 -1</clus>
<clus scale="   20.354">  2  5  1 -1</clus>
</clustering>
</event>
<event>
10    2  0.1133532E-006  0.1771608E+03  0.7546771E-02  0.1185602E+00
         -2   -1    0    0    0  501 -0.00000000000E+00  0.00000000000E+00  0.78323319117E+02  0.78323319117E+02  0.00000000000E+00 0.  1.
          2   -1    0    0  503    0  0.00000000000E+00 -0.00000000000E+00 -0.10912634061E+04  0.10912634061E+04  0.00000000000E+00 0. -1.
         23    2    1    2    0    0 -0.10157210316E+03  0.64108182252E+02 -0.12652251137E+03  0.19788562315E+03  0.93402477452E+02 0.  0.
         23    2    1    2    0    0 -0.79987546006E+02 -0.18802385384E+02 -0.33814990560E+03  0.36119488286E+03  0.96772142363E+02 0.  0.
        -11    1    3    3    0    0 -0.19868690017E+02  0.60143685981E+02 -0.26465737449E+02  0.68647382070E+02  0.00000000000E+00 0.  1.
         11    1    3    3    0    0 -0.81703413143E+02  0.39644962713E+01 -0.10005677392E+03  0.12923824108E+03  0.00000000000E+00 0. -1.
        -13    1    4    4    0    0 -0.12487211183E+02  0.34173193843E+02 -0.15084969149E+03  0.15517527845E+03  0.00000000000E+00 0.  1.
         13    1    4    4    0    0 -0.67500334823E+02 -0.52975579227E+02 -0.18730021411E+03  0.20601960441E+03  0.00000000000E+00 0. -1.
         21    1    1    2  502  501 -0.14678740308E+01  0.41334624035E+02 -0.22486970960E+02  0.47078335371E+02  0.00000000000E+00 0. -1.
         21    1    1    2  503  502  0.18302752320E+03 -0.86640420904E+02 -0.52578069904E+03  0.56342788382E+03  0.00000000000E+00 0. -1.
<scales pt_clust_5="13000.00000" pt_clust_6="13000.00000" pt_clust_7="13000.00000" pt_clust_8="13000.00000" pt_clust_9="41.36068" pt_clust_10="150.53879"></scales>
<clustering>
<clus scale="   41.361">  1  9  2 -1</clus>
<clus scale="   93.402">  5  6 -1 -1</clus>
<clus scale="   96.772">  7  8 -1 -1</clus>
<clus scale="  126.247">  2  7  1 -1</clus>
<clus scale="  150.539">  2 10  1 -1</clus>
<clus scale="  126.247">  2  5  1 -1</clus>
</clustering>
</event>
<event>
10    2  0.1133532E-006  0.1069186E+03  0.7546771E-02  0.1270810E+00
         -1   -1    0    0    0  501 -0.00000000000E+00  0.00000000000E+00  0.62107356432E+02  0.62107356432E+02  0.00000000000E+00 0.  1.
          1   -1    0    0  503    0  0.00000000000E+00 -0.00000000000E+00 -0.47402966923E+03  0.47402966923E+03  0.00000000000E+00 0. -1.
         23    2    1    2    0    0 -0.10934173254E+02  0.10286971526E+02 -0.63287552821E+02  0.11439117882E+03  0.94099147297E+02 0.  0.
         23    2    1    2    0    0  0.17194955939E+02 -0.27485328335E+02 -0.32262251570E+03  0.34028352459E+03  0.10323022661E+03 0.  0.
        -11    1    4    4    0    0  0.53066621666E+02  0.12083409611E+02 -0.14879738270E+03  0.15843843038E+03  0.00000000000E+00 0.  1.
         11    1    4    4    0    0 -0.35871665727E+02 -0.39568737946E+02 -0.17382513300E+03  0.18184509421E+03  0.00000000000E+00 0. -1.
        -13    1    3    3    0    0  0.17545370333E+02 -0.18564393066E+02  0.12503035015E+02  0.28439454893E+02  0.00000000000E+00 0.  1.
         13    1    3    3    0    0 -0.28479543587E+02  0.28851364592E+02 -0.75790587836E+02  0.85951723928E+02  0.00000000000E+00 0. -1.
         21    1    1    2  502  501 -0.15164720175E+02 -0.13258078442E+02  0.18128665009E+02  0.27099702526E+02  0.00000000000E+00 0. -1.
         21    1    1    2  503  502  0.89039374906E+01  0.30456435252E+02 -0.44140909283E+02  0.54362619726E+02  0.00000000000E+00 0.  1.
<scales pt_clust_5="13000.00000" pt_clust_6="13000.00000" pt_clust_7="13000.00000" pt_clust_8="13000.00000" pt_clust_9="20.14312" pt_clust_10="29.56706"></scales>
<clustering>
<clus scale="   20.143">  1  9  2 -1</clus>
<clus scale="   29.567">  1 10  2 -1</clus>
<clus scale="   94.099">  7  8 -1 -1</clus>
<clus scale="   98.131">  1  7  2 -1</clus>
<clus scale="  103.230">  5  6 -1 -1</clus>
<clus scale="  106.919">  2  5  1 -1</clus>
</clustering>
</event>
<event>
10    2  0.1133532E-006  0.1813271E+03  0.7546771E-02  0.1166890E+00
         -2   -1    0    0    0  501 -0.00000000000E+00  0.00000000000E+00  0.15355566322E+03  0.15355566322E+03  0.00000000000E+00 0.  1.
          2   -1    0    0  503    0  0.00000000000E+00 -0.00000000000E+00 -0.43546712437E+03  0.43546712437E+03  0.00000000000E+00 0. -1.
         23    2    1    2    0    0 -0.11921573034E+02  0.16930129368E+03 -0.21565224560E+02  0.19386679691E+03  0.91182367203E+02 0.  0.
         23    2    1    2    0    0 -0.19230842809E+01 -0.13607767985E+03 -0.98171800184E+02  0.19240676222E+03  0.94137275249E+02 0.  0.
        -13    1    3    3    0    0 -0.19803509885E+02  0.39796900457E+02  0.30666508236E+02  0.54003768546E+02  0.00000000000E+00 0. -1.
         13    1    3    3    0    0  0.78819368519E+01  0.12950439322E+03 -0.52231732795E+02  0.13986302836E+03  0.00000000000E+00 0.  1.
        -13    1    4    4    0    0  0.21936053208E+02  0.20874908984E+01 -0.14718342097E+01  0.22084255581E+02  0.00000000000E+00 0.  1.
         13    1    4    4    0    0 -0.23859137489E+02 -0.13816517075E+03 -0.96699965974E+02  0.17032250664E+03  0.00000000000E+00 0. -1.
         21    1    1    2  502  501  0.31968528627E+02  0.49097147262E+00  0.40016012739E+01  0.32221742478E+02  0.00000000000E+00 0. -1.
         21    1    1    2  503  502 -0.18123871313E+02 -0.33714585300E+02 -0.16617603769E+03  0.17052748598E+03  0.00000000000E+00 0. -1.
<scales pt_clust_5="13000.00000" pt_clust_6="13000.00000" pt_clust_7="13000.00000" pt_clust_8="13000.00000" pt_clust_9="31.97230" pt_clust_10="38.02980"></scales>
<clustering>
<clus scale="   31.972">  1  9  2 -1</clus>
<clus scale="   38.030">  2 10  1 -1</clus>
<clus scale="   91.182">  5  6 -1 -1</clus>
<clus scale="   94.137">  7  8 -1 -1</clus>
<clus scale="  179.811">  1  5  2 -1</clus>
<clus scale="   38.030">  2  5  1 -1</clus>
</clustering>
</event>
<event>
10    2  0.1133532E-006  0.1880782E+03  0.7546771E-02  0.1160456E+00
         -1   -1    0    0    0  501 -0.00000000000E+00  0.00000000000E+00  0.47030807056E+03  0.47030807056E+03  0.00000000000E+00 0.  1.
          1   -1    0    0  503    0  0.00000000000E+00 -0.00000000000E+00 -0.19789817350E+03  0.19789817350E+03  0.00000000000E+00 0. -1.
         23    2    1    2    0    0 -0.99732521906E+02 -0.14842305043E+03  0.34489143679E+03  0.39910712785E+03  0.91435324140E+02 0.  0.
         23    2    1    2    0    0  0.74275792023E+02  0.86557577406E+02 -0.47461329814E+02  0.15501747885E+03  0.93641515554E+02 0.  0.
        -11    1    4    4    0    0  0.29789655463E+02 -0.96362319237E+01 -0.37076089112E+02  0.48527486254E+02  0.00000000000E+00 0.  1.
         11    1    4    4    0    0  0.44486136560E+02  0.96193809330E+02 -0.10385240702E+02  0.10648999260E+03  0.00000000000E+00 0. -1.
        -11    1    3    3    0    0 -0.69174277705E+02 -0.64220809361E+02  0.25627285695E+03  0.27310285656E+03  0.00000000000E+00 0. -1.
         11    1    3    3    0    0 -0.30558244201E+02 -0.84202241071E+02  0.88618579846E+02  0.12600427129E+03  0.00000000000E+00 0.  1.
         21    1    1    2  502  501 -0.19182819444E+02  0.15653655358E+02  0.23058330054E+02  0.33833475623E+02  0.00000000000E+00 0. -1.
         21    1    1    2  503  502  0.44639549327E+02  0.46211817669E+02 -0.48078539965E+02  0.80248161733E+02  0.00000000000E+00 0. -1.
<scales pt_clust_5="13000.00000" pt_clust_6="13000.00000" pt_clust_7="13000.00000" pt_clust_8="13000.00000" pt_clust_9="24.75919" pt_clust_10="64.18221"></scales>
<clustering>
<clus scale="   24.759">  1  9  2 -1</clus>
<clus scale="   64.182">  2 10  1 -1</clus>
<clus scale="   91.435">  7  8 -1 -1</clus>
<clus scale="   93.642">  5  6 -1 -1</clus>
<clus scale="  186.990">  1  7  2 -1</clus>
<clus scale="   64.182">  2  5  1 -1</clus>
</clustering>
</event>
<event>
10    2  0.1133532E-006  0.9421501E+02  0.7546771E-02  0.1293437E+00
         -1   -1    0    0    0  501 -0.00000000000E+00  0.00000000000E+00  0.12622440070E+03  0.12622440070E+03  0.00000000000E+00 0.  1.
          1   -1    0    0  503    0  0.00000000000E+00 -0.00000000000E+00 -0.16548314650E+03  0.16548314650E+03  0.00000000000E+00 0. -1.
         23    2    1    2    0    0  0.77793559588E+01  0.43302344731E+02  0.56840598508E+01  0.10239029049E+03  0.92281371965E+02 0.  0.
         23    2    1    2    0    0 -0.12104762639E+02  0.15466643386E+02 -0.31099515409E+02  0.98540928227E+02  0.91418774554E+02 0.  0.
        -13    1    4    4    0    0  0.38320752565E+02  0.17694273864E+02 -0.76962577752E+01  0.42904542749E+02  0.00000000000E+00 0.  1.
         13    1    4    4    0    0 -0.50425515205E+02 -0.22276304785E+01 -0.23403257634E+02  0.55636385478E+02  0.00000000000E+00 0. -1.
        -13    1    3    3    0    0 -0.15328033761E+02  0.36479439435E+02 -0.36485696022E+02  0.53822896008E+02  0.00000000000E+00 0. -1.
         13    1    3    3    0    0  0.23107389720E+02  0.68229052964E+01  0.42169755873E+02  0.48567394481E+02  0.00000000000E+00 0.  1.
         21    1    1    2  502  501  0.18805919642E+02 -0.23269015388E+02  0.22897012440E+02  0.37674698000E+02  0.00000000000E+00 0.  1.
         21    1    1    2  503  502 -0.14480512962E+02 -0.35499972729E+02 -0.36740302683E+02  0.53101630490E+02  0.00000000000E+00 0.  1.
<scales pt_clust_5="13000.00000" pt_clust_6="13000.00000" pt_clust_7="13000.00000" pt_clust_8="13000.00000" pt_clust_9="29.91838" pt_clust_10="39.63426"></scales>
<clustering>
<clus scale="   29.918">  1  9  2 -1</clus>
<clus scale="   39.634">  2 10  1 -1</clus>
<clus scale="   91.419">  5  6 -1 -1</clus>
<clus scale="   92.281">  7  8 -1 -1</clus>
<clus scale="   93.370">  2  5  1 -1</clus>
<clus scale="   39.634">  2  5  1 -1</clus>
</clustering>
</event>
<event>
10    2  0.1176863E-006  0.9690841E+02  0.7546771E-02  0.1291126E+00
          2   -1    0    0  503    0  0.00000000000E+00  0.00000000000E+00  0.31132413838E+03  0.31132413838E+03  0.00000000000E+00 0. -1.
         -2   -1    0    0    0  501 -0.00000000000E+00 -0.00000000000E+00 -0.14771304724E+03  0.14771304724E+03  0.00000000000E+00 0.  1.
         23    2    1    2    0    0  0.29341040125E+02  0.16636274550E+02 -0.56749555959E+02  0.10861849575E+03  0.86254294100E+02 0.  0.
         23    2    1    2    0    0 -0.22095232110E+02 -0.45822403491E+00  0.24112647407E+03  0.25968551894E+03  0.93841264888E+02 0.  0.
        -11    1    3    3    0    0  0.30045961003E+02  0.40012449372E+02 -0.66548851672E+02  0.83261669070E+02  0.00000000000E+00 0.  1.
         11    1    3    3    0    0 -0.70492087850E+00 -0.23376174822E+02  0.97992957130E+01  0.25356826679E+02  0.00000000000E+00 0. -1.
        -13    1    4    4    0    0  0.18227070890E+02 -0.35895917785E+02  0.13311564002E+03  0.13907018604E+03  0.00000000000E+00 0.  1.
         13    1    4    4    0    0 -0.40322303000E+02  0.35437693751E+02  0.10801083406E+03  0.12061533290E+03  0.00000000000E+00 0. -1.
         21    1    1    2  502  501 -0.21476518807E+02  0.75590713485E+01 -0.47235805907E+02  0.52436645387E+02  0.00000000000E+00 0.  1.
         21    1    1    2  503  502  0.14230710792E+02 -0.23737121863E+02  0.26469978941E+02  0.38296525549E+02  0.00000000000E+00 0. -1.
<scales pt_clust_5="13000.00000" pt_clust_6="13000.00000" pt_clust_7="13000.00000" pt_clust_8="13000.00000" pt_clust_9="22.76797" pt_clust_10="26.63168"></scales>
<clustering>
<clus scale="   22.768">  2  9  1 -1</clus>
<clus scale="   26.632">  1 10  2 -1</clus>
<clus scale="   86.254">  5  6 -1 -1</clus>
<clus scale="   89.582">  2  5  1 -1</clus>
<clus scale="   93.841">  7  8 -1 -1</clus>
<clus scale="   26.632">  1  5  2 -1</clus>
</clustering>
</event>
<event>
10    2  0.1133532E-006  0.9355100E+02  0.7546771E-02  0.1295350E+00
         -2   -1    0    0    0  501 -0.00000000000E+00  0.00000000000E+00  0.31823255598E+03  0.31823255598E+03  0.00000000000E+00 0.  1.
          2   -1    0    0  503    0  0.00000000000E+00 -0.00000000000E+00 -0.92855335232E+02  0.92855335232E+02  0.00000000000E+00 0. -1.
         23    2    1    2    0    0  0.54516623187E+01 -0.29128650387E+01  0.19548249384E+03  0.21676651761E+03  0.93467172598E+02 0.  0.
         23    2    1    2    0    0 -0.30914570496E+02 -0.16048822031E+00  0.40828756843E+02  0.10525294474E+03  0.91953567448E+02 0.  0.
        -11    1    4    4    0    0  0.19260245403E+02 -0.31785291143E+02  0.21160266372E+02  0.42767027708E+02  0.00000000000E+00 0.  1.
         11    1    4    4    0    0 -0.50174815899E+02  0.31624802923E+02  0.19668490471E+02  0.62485917036E+02  0.00000000000E+00 0. -1.
        -11    1    3    3    0    0  0.35934103492E+02  0.10806298076E+02  0.17167395051E+03  0.17572700748E+03  0.00000000000E+00 0.  1.
         11    1    3    3    0    0 -0.30482441173E+02 -0.13719163114E+02  0.23808543323E+02  0.41039510129E+02  0.00000000000E+00 0. -1.
         21    1    1    2  502  501 -0.20459915108E+02  0.19660306650E+01  0.23823259443E+02  0.31464600638E+02  0.00000000000E+00 0.  1.
         21    1    1    2  503  502  0.45922823285E+02  0.11073225941E+01 -0.34757289373E+02  0.57603828226E+02  0.00000000000E+00 0. -1.
<scales pt_clust_5="13000.00000" pt_clust_6="13000.00000" pt_clust_7="13000.00000" pt_clust_8="13000.00000" pt_clust_9="20.55416" pt_clust_10="45.13408"></scales>
<clustering>
<clus scale="   20.554">  1  9  2 -1</clus>
<clus scale="   45.134">  2 10  1 -1</clus>
<clus scale="   91.954">  5  6 -1 -1</clus>
<clus scale="   92.039">  2  5  1 -1</clus>
<clus scale="   93.467">  7  8 -1 -1</clus>
<clus scale="   45.134">  2  5  1 -1</clus>
</clustering>
</event>
<event>
10    2  0.1133532E-006  0.1002064E+03  0.7546771E-02  0.1281635E+00
          1   -1    0    0  503    0  0.00000000000E+00  0.00000000000E+00  0.14115381161E+03  0.14115381161E+03  0.00000000000E+00 0. -1.
         -1   -1    0    0    0  501 -0.00000000000E+00 -0.00000000000E+00 -0.26726327059E+03  0.26726327059E+03  0.00000000000E+00 0.  1.
         23    2    1    2    0    0  0.90774703644E+01  0.14121817539E+02 -0.10577912136E+03  0.14142757805E+03  0.92361848821E+02 0.  0.
         23    2    1    2    0    0 -0.50945805091E+02 -0.40767388215E+02  0.42662509236E+02  0.11812612069E+03  0.88748158838E+02 0.  0.
        -11    1    4    4    0    0 -0.24441308832E+02 -0.39570180220E+01 -0.25955475372E+02  0.35870911207E+02  0.00000000000E+00 0.  1.
         11    1    4    4    0    0 -0.26504496259E+02 -0.36810370193E+02  0.68617984607E+02  0.82255209484E+02  0.00000000000E+00 0. -1.
        -13    1    3    3    0    0  0.39523590532E+02  0.11676785123E+01 -0.10040011931E+03  0.10790579984E+03  0.00000000000E+00 0.  1.
         13    1    3    3    0    0 -0.30446120168E+02  0.12954139026E+02 -0.53790020520E+01  0.33521778209E+02  0.00000000000E+00 0. -1.
         21    1    1    2  502  501  0.14086714167E+02  0.17539571481E+02 -0.99546225397E+02  0.10205647003E+03  0.00000000000E+00 0. -1.
         21    1    1    2  503  502  0.27781620560E+02  0.91059991951E+01  0.36553378538E+02  0.46806913429E+02  0.00000000000E+00 0. -1.
<scales pt_clust_5="13000.00000" pt_clust_6="13000.00000" pt_clust_7="13000.00000" pt_clust_8="13000.00000" pt_clust_9="22.49605" pt_clust_10="29.81881"></scales>
<clustering>
<clus scale="   22.496">  2  9  1 -1</clus>
<clus scale="   29.819">  1 10  2 -1</clus>
<clus scale="   88.748">  5  6 -1 -1</clus>
<clus scale="   92.362">  7  8 -1 -1</clus>
<clus scale="   96.886">  1  5  2 -1</clus>
<clus scale="   29.819">  1  5  2 -1</clus>
</clustering>
</event>
<event>
10    2  0.1133532E-006  0.2928210E+03  0.7546771E-02  0.1113368E+00
          3   -1    0    0  503    0  0.00000000000E+00  0.00000000000E+00  0.83092755921E+03  0.83092755921E+03  0.00000000000E+00 0. -1.
         -3   -1    0    0    0  501 -0.00000000000E+00 -0.00000000000E+00 -0.44858358143E+03  0.44858358143E+03  0.00000000000E+00 0.  1.
         23    2    1    2    0    0  0.28918286251E+03 -0.75934285116E+02 -0.32273810777E+03  0.44955439848E+03  0.92447430242E+02 0.  0.
         23    2    1    2    0    0 -0.49417375347E+02  0.99461618090E+02  0.35021825682E+03  0.37856258813E+03  0.91225628322E+02 0.  0.
        -11    1    4    4    0    0 -0.22457291296E+02  0.10392861762E+03  0.20647066444E+03  0.23224044172E+03  0.00000000000E+00 0. -1.
         11    1    4    4    0    0 -0.26960084051E+02 -0.44669995335E+01  0.14374759237E+03  0.14632214641E+03  0.00000000000E+00 0.  1.
        -13    1    3    3    0    0  0.25326440884E+03 -0.33338922766E+02 -0.28222670950E+03  0.38066554889E+03  0.00000000000E+00 0.  1.
         13    1    3    3    0    0  0.35918453672E+02 -0.42595362350E+02 -0.40511398268E+02  0.68888849588E+02  0.00000000000E+00 0. -1.
         21    1    1    2  502  501 -0.20987375327E+03 -0.37861631799E+02  0.19780019122E+03  0.29087009320E+03  0.00000000000E+00 0. -1.
         21    1    1    2  503  502 -0.29891733902E+02  0.14334298825E+02  0.15706363751E+03  0.16052406083E+03  0.00000000000E+00 0. -1.
<scales pt_clust_5="13000.00000" pt_clust_6="13000.00000" pt_clust_7="13000.00000" pt_clust_8="13000.00000" pt_clust_9="277.84456" pt_clust_10="33.15099"></scales>
<clustering>
<clus scale="   33.151">  1 10  2 -1</clus>
<clus scale="   91.226">  5  6 -1 -1</clus>
<clus scale="   92.447">  7  8 -1 -1</clus>
<clus scale="  155.330">  1  5  2 -1</clus>
<clus scale="  277.845">  1  9  2 -1</clus>
<clus scale="   33.151">  1  5  2 -1</clus>
</clustering>
</event>
<event>
10    2  0.1133532E-006  0.9144674E+02  0.7546771E-02  0.1300262E+00
          1   -1    0    0  503    0  0.00000000000E+00  0.00000000000E+00  0.27295950396E+03  0.27295950396E+03  0.00000000000E+00 0. -1.
         -1   -1    0    0    0  501 -0.00000000000E+00 -0.00000000000E+00 -0.22219564246E+03  0.22219564246E+03  0.00000000000E+00 0.  1.
         23    2    1    2    0    0  0.18091681577E+02 -0.39071916228E+02 -0.15814952551E+03  0.18658499883E+03  0.89155851137E+02 0.  0.
         23    2    1    2    0    0  0.20787317882E+02  0.56739971868E+01  0.83198897367E+02  0.12490497437E+03  0.90636026340E+02 0.  0.
        -11    1    3    3    0    0 -0.79169595488E+01  0.26884272863E+02 -0.48321147016E+02  0.55860322455E+02  0.00000000000E+00 0.  1.
         11    1    3    3    0    0  0.26008641126E+02 -0.65956189090E+02 -0.10982837849E+03  0.13072467638E+03  0.00000000000E+00 0. -1.
        -13    1    4    4    0    0 -0.12916572623E+02  0.15382882092E+02  0.87309699081E+02  0.89590481991E+02  0.00000000000E+00 0.  1.
         13    1    4    4    0    0  0.33703890505E+02 -0.97088849052E+01 -0.41108017142E+01  0.35314492380E+02  0.00000000000E+00 0. -1.
         21    1    1    2  502  501 -0.15254009532E+02  0.29573660278E+02 -0.18095168549E+02  0.37877715267E+02  0.00000000000E+00 0.  1.
         21    1    1    2  503  502 -0.23624989928E+02  0.38242587630E+01  0.14380965819E+03  0.14578745794E+03  0.00000000000E+00 0.  1.
<scales pt_clust_5="13000.00000" pt_clust_6="13000.00000" pt_clust_7="13000.00000" pt_clust_8="13000.00000" pt_clust_9="34.40613" pt_clust_10="23.93251"></scales>
<clustering>
<clus scale="   23.933">  1 10  2 -1</clus>
<clus scale="   34.406">  2  9  1 -1</clus>
<clus scale="   89.156">  5  6 -1 -1</clus>
<clus scale="   89.980">  2  5  1 -1</clus>
<clus scale="   90.636">  7  8 -1 -1</clus>
<clus scale="   23.933">  1  5  2 -1</clus>
</clustering>
</event>
<event>
10    2  0.1133532E-006  0.1977814E+03  0.7546771E-02  0.1176399E+00
          1   -1    0    0  503    0  0.00000000000E+00  0.00000000000E+00  0.15239210021E+04  0.15239210021E+04  0.00000000000E+00 0. -1.
         -1   -1    0    0    0  501 -0.00000000000E+00 -0.00000000000E+00 -0.56711999527E+02  0.56711999527E+02  0.00000000000E+00 0.  1.
         23    2    1    2    0    0  0.42927336763E+02  0.36667841315E+02  0.29142378550E+03  0.31119635474E+03  0.93424095491E+02 0.  0.
         23    2    1    2    0    0 -0.12685938963E+03 -0.18216871407E+03  0.58337362193E+03  0.63402456666E+03  0.11128172915E+03 0.  0.
        -11    1    4    4    0    0 -0.31215500011E+02  0.28897742088E+01  0.32854488365E+02  0.45411184103E+02  0.00000000000E+00 0.  1.
         11    1    4    4    0    0 -0.95643889614E+02 -0.18505848828E+03  0.55051913356E+03  0.58861338255E+03  0.00000000000E+00 0. -1.
        -11    1    3    3    0    0  0.66862755212E+02  0.43218348672E+02  0.25486759090E+03  0.26701300078E+03  0.00000000000E+00 0. -1.
         11    1    3    3    0    0 -0.23935418449E+02 -0.65505073571E+01  0.36556194603E+02  0.44183353956E+02  0.00000000000E+00 0.  1.
         21    1    1    2  502  501  0.95866690895E+00  0.28288150851E+02  0.26618942680E+01  0.28429284231E+02  0.00000000000E+00 0.  1.
         21    1    1    2  503  502  0.82973385954E+02  0.11721272191E+03  0.58974970089E+03  0.60698279601E+03  0.00000000000E+00 0.  1.
<scales pt_clust_5="13000.00000" pt_clust_6="13000.00000" pt_clust_7="13000.00000" pt_clust_8="13000.00000" pt_clust_9="28.30439" pt_clust_10="163.50494"></scales>
<clustering>
<clus scale="   28.304">  2  9  1 -1</clus>
<clus scale="   93.424">  7  8 -1 -1</clus>
<clus scale="  111.282">  5  6 -1 -1</clus>
<clus scale="  111.547">  2  7  1 -1</clus>
<clus scale="  163.505">  1 10  2 -1</clus>
<clus scale="  163.505">  1  5  2 -1</clus>
</clustering>
</event>
<event>
10    2  0.1133532E-006  0.1123914E+03  0.7546771E-02  0.1257610E+00
          2   -1    0    0  502    0  0.00000000000E+00  0.00000000000E+00  0.12898817606E+04  0.12898817606E+04  0.00000000000E+00 0. -1.
         -2   -1    0    0    0  501 -0.00000000000E+00 -0.00000000000E+00 -0.96953143823E+02  0.96953143823E+02  0.00000000000E+00 0.  1.
         23    2    1    2    0    0 -0.28610124298E+02 -0.83399013619E+02  0.15210681757E+02  0.12745564173E+03  0.90772468752E+02 0.  0.
         23    2    1    2    0    0  0.23869909478E+02  0.11403252177E+02  0.85524761324E+02  0.13013898991E+03  0.94455625333E+02 0.  0.
        -11    1    4    4    0    0 -0.30671721343E+02  0.23104422514E+02  0.53380946774E+02  0.65757845983E+02  0.00000000000E+00 0.  1.
         11    1    4    4    0    0  0.54541630820E+02 -0.11701170337E+02  0.32143814550E+02  0.64381143929E+02  0.00000000000E+00 0. -1.
        -13    1    3    3    0    0 -0.59817869580E+02 -0.71270217661E+02  0.10273568417E+02  0.93611792284E+02  0.00000000000E+00 0.  1.
         13    1    3    3    0    0  0.31207745282E+02 -0.12128795958E+02  0.49371133397E+01  0.33843849443E+02  0.00000000000E+00 0. -1.
         21    1    1    2  502  503  0.38757910283E+02 -0.85985064636E+02  0.67984769704E+03  0.68635886978E+03  0.00000000000E+00 0.  1.
         21    1    1    2  503  501 -0.34017695463E+02  0.15798082608E+03  0.41234547667E+03  0.44288140302E+03  0.00000000000E+00 0. -1.
<scales pt_clust_5="13000.00000" pt_clust_6="13000.00000" pt_clust_7="13000.00000" pt_clust_8="13000.00000" pt_clust_9="94.31653" pt_clust_10="97.61527"></scales>
<clustering>
<clus scale="   90.772">  7  8 -1 -1</clus>
<clus scale="   94.317">  1  9  2 -1</clus>
<clus scale="   94.456">  5  6 -1 -1</clus>
<clus scale="   97.615">  1 10  2 -1</clus>
<clus scale="  109.314">  2  7  1 -1</clus>
<clus scale="   94.317">  1  5  2 -1</clus>
</clustering>
</event>
<event>
10    2  0.1133532E-006  0.1408858E+03  0.7546771E-02  0.1212257E+00
         -2   -1    0    0    0  501 -0.00000000000E+00  0.00000000000E+00  0.15535346954E+03  0.15535346954E+03  0.00000000000E+00 0.  1.
          2   -1    0    0  503    0  0.00000000000E+00 -0.00000000000E+00 -0.45579168894E+03  0.45579168894E+03  0.00000000000E+00 0. -1.
         23    2    1    2    0    0  0.35564328981E+02 -0.11583944706E+03  0.36521702147E+02  0.15549043309E+03  0.90331838593E+02 0.  0.
         23    2    1    2    0    0  0.55437254568E+01  0.12225949135E+03 -0.29378085927E+03  0.33097096860E+03  0.90865134487E+02 0.  0.
        -11    1    4    4    0    0 -0.17668165494E+02  0.12707194784E+03 -0.23836890775E+03  0.27070127480E+03  0.00000000000E+00 0. -1.
         11    1    4    4    0    0  0.23211890951E+02 -0.48124564850E+01 -0.55411951526E+02  0.60269693801E+02  0.00000000000E+00 0.  1.
        -13    1    3    3    0    0  0.29520883742E+02 -0.45457957863E+02  0.60182368504E+02  0.80992752693E+02  0.00000000000E+00 0. -1.
         13    1    3    3    0    0  0.60434452392E+01 -0.70381489200E+02 -0.23660666357E+02  0.74497680399E+02  0.00000000000E+00 0.  1.
         21    1    1    2  502  501 -0.37749842323E+02  0.13852321574E+02  0.29038197984E+02  0.49599943050E+02  0.00000000000E+00 0. -1.
         21    1    1    2  503  502 -0.33582121146E+01 -0.20272365864E+02 -0.72217260258E+02  0.75083813738E+02  0.00000000000E+00 0.  1.
<scales pt_clust_5="13000.00000" pt_clust_6="13000.00000" pt_clust_7="13000.00000" pt_clust_8="13000.00000" pt_clust_9="40.11177" pt_clust_10="20.54864"></scales>
<clustering>
<clus scale="   20.549">  2 10  1 -1</clus>
<clus scale="   40.112">  1  9  2 -1</clus>
<clus scale="   90.332">  7  8 -1 -1</clus>
<clus scale="   90.865">  5  6 -1 -1</clus>
<clus scale="  140.542">  1  7  2 -1</clus>
<clus scale="   20.549">  2  5  1 -1</clus>
</clustering>
</event>
<event>
10    2  0.1133532E-006  0.1033103E+03  0.7546771E-02  0.1274141E+00
          2   -1    0    0  503    0  0.00000000000E+00  0.00000000000E+00  0.73264974412E+03  0.73264974412E+03  0.00000000000E+00 0. -1.
         -2   -1    0    0    0  501 -0.00000000000E+00 -0.00000000000E+00 -0.84597740886E+02  0.84597740886E+02  0.00000000000E+00 0.  1.
         23    2    1    2    0    0  0.44676000878E+02  0.77746753237E+01  0.47729599980E+02  0.11190298875E+03  0.90486316896E+02 0.  0.
         23    2    1    2    0    0  0.25771253455E+02  0.53075677612E+02  0.55426978260E+03  0.56493350679E+03  0.91943951082E+02 0.  0.
        -11    1    3    3    0    0  0.36083572714E+02 -0.27123419248E+02 -0.77479716862E+01  0.45801038818E+02  0.00000000000E+00 0.  1.
         11    1    3    3    0    0  0.85924281636E+01  0.34898094571E+02  0.55477571666E+02  0.66101949929E+02  0.00000000000E+00 0. -1.
        -13    1    4    4    0    0  0.15324382517E+01 -0.24406631651E+02  0.76456290960E+02  0.80272015441E+02  0.00000000000E+00 0.  1.
         13    1    4    4    0    0  0.24238815204E+02  0.77482309263E+02  0.47781349164E+03  0.48466149135E+03  0.00000000000E+00 0. -1.
         21    1    1    2  502  501 -0.59138145955E+01 -0.29126101415E+02 -0.25357538437E+02  0.39067988716E+02  0.00000000000E+00 0.  1.
         21    1    1    2  503  502 -0.64533439738E+02 -0.31724251521E+02  0.71410159095E+02  0.10134300075E+03  0.00000000000E+00 0.  1.
<scales pt_clust_5="13000.00000" pt_clust_6="13000.00000" pt_clust_7="13000.00000" pt_clust_8="13000.00000" pt_clust_9="29.72041" pt_clust_10="77.38952"></scales>
<clustering>
<clus scale="   29.720">  2  9  1 -1</clus>
<clus scale="   77.390">  2 10  1 -1</clus>
<clus scale="   90.486">  5  6 -1 -1</clus>
<clus scale="   91.944">  7  8 -1 -1</clus>
<clus scale="  102.015">  2  5  1 -1</clus>
<clus scale="  103.310">  1  5  2 -1</clus>
</clustering>
</event>
<event>
10    2  0.1133532E-006  0.1224741E+03  0.7546771E-02  0.1240514E+00
          1   -1    0    0  503    0  0.00000000000E+00  0.00000000000E+00  0.70009635381E+03  0.70009635381E+03  0.00000000000E+00 0. -1.
         -1   -1    0    0    0  501 -0.00000000000E+00 -0.00000000000E+00 -0.90647516475E+02  0.90647516475E+02  0.00000000000E+00 0.  1.
         23    2    1    2    0    0  0.31753506787E+02  0.10427285622E+03  0.18196176162E+02  0.14090057762E+03  0.87411430651E+02 0.  0.
         23    2    1    2    0    0 -0.66444240264E+02  0.32453325066E+01  0.37225471866E+03  0.38702098237E+03  0.82378977829E+02 0.  0.
        -11    1    3    3    0    0  0.28622636127E+02  0.49508209318E+02 -0.32866205044E+02  0.65958362038E+02  0.00000000000E+00 0.  1.
         11    1    3    3    0    0  0.31308706601E+01  0.54764646899E+02  0.51062381207E+02  0.74942215577E+02  0.00000000000E+00 0. -1.
        -13    1    4    4    0    0 -0.12593367345E+02  0.38251893587E+02  0.11418338131E+03  0.12107702025E+03  0.00000000000E+00 0.  1.
         13    1    4    4    0    0 -0.53850872919E+02 -0.35006561081E+02  0.25807133734E+03  0.26594396212E+03  0.00000000000E+00 0. -1.
         21    1    1    2  502  501  0.14680291714E+02 -0.21484701582E+02 -0.70207504583E+00  0.26030679519E+02  0.00000000000E+00 0.  1.
         21    1    1    2  503  502  0.20010441764E+02 -0.86033487142E+02  0.21970001757E+03  0.23679163078E+03  0.00000000000E+00 0. -1.
<scales pt_clust_5="13000.00000" pt_clust_6="13000.00000" pt_clust_7="13000.00000" pt_clust_8="13000.00000" pt_clust_9="26.02121" pt_clust_10="91.01770"></scales>
<clustering>
<clus scale="   26.021">  2  9  1 -1</clus>
<clus scale="   82.379">  7  8 -1 -1</clus>
<clus scale="   87.411">  5  6 -1 -1</clus>
<clus scale="   91.018">  1 10  2 -1</clus>
<clus scale="  118.935">  1  7  2 -1</clus>
<clus scale="   91.018">  1  5  2 -1</clus>
</clustering>
</event>
<event>
10    2  0.1133532E-006  0.1212467E+03  0.7546771E-02  0.1241566E+00
         -2   -1    0    0    0  501 -0.00000000000E+00  0.00000000000E+00  0.86123315209E+02  0.86123315209E+02  0.00000000000E+00 0.  1.
          2   -1    0    0  503    0  0.00000000000E+00 -0.00000000000E+00 -0.66882029820E+03  0.66882029820E+03  0.00000000000E+00 0. -1.
         23    2    1    2    0    0 -0.17272350645E+00 -0.67013677252E+02 -0.76840773680E+00  0.11278073482E+03  0.90708549346E+02 0.  0.
         23    2    1    2    0    0  0.27669323608E+02  0.96337346285E+02 -0.41883055183E+03  0.43976344411E+03  0.89030218846E+02 0.  0.
        -11    1    4    4    0    0  0.12029138967E+02  0.11008869207E+03 -0.31595528510E+03  0.33480137766E+03  0.00000000000E+00 0. -1.
         11    1    4    4    0    0  0.15640184641E+02 -0.13751345781E+02 -0.10287526673E+03  0.10496206644E+03  0.00000000000E+00 0.  1.
        -11    1    3    3    0    0  0.44548055655E+02 -0.24426631941E+02  0.31435171306E+01  0.50902566837E+02  0.00000000000E+00 0. -1.
         11    1    3    3    0    0 -0.44720779161E+02 -0.42587045311E+02 -0.39119248674E+01  0.61878167986E+02  0.00000000000E+00 0.  1.
         21    1    1    2  502  501 -0.28258885553E+02 -0.78978371453E+01  0.76403932581E+01  0.30320225154E+02  0.00000000000E+00 0.  1.
         21    1    1    2  503  502  0.76228545166E+00 -0.21425831888E+02 -0.17073841668E+03  0.17207920932E+03  0.00000000000E+00 0.  1.
<scales pt_clust_5="13000.00000" pt_clust_6="13000.00000" pt_clust_7="13000.00000" pt_clust_8="13000.00000" pt_clust_9="29.46036" pt_clust_10="21.43939"></scales>
<clustering>
<clus scale="   21.439">  2 10  1 -1</clus>
<clus scale="   29.460">  1  9  2 -1</clus>
<clus scale="   89.030">  5  6 -1 -1</clus>
<clus scale="   90.709">  7  8 -1 -1</clus>
<clus scale="  119.996">  2  5  1 -1</clus>
<clus scale="   21.439">  2  5  1 -1</clus>
</clustering>
</event>
<event>
10    2  0.1133532E-006  0.1665796E+03  0.7546771E-02  0.1181613E+00
          2   -1    0    0  503    0  0.00000000000E+00  0.00000000000E+00  0.98091500475E+03  0.98091500475E+03  0.00000000000E+00 0. -1.
         -2   -1    0    0    0  501 -0.00000000000E+00 -0.00000000000E+00 -0.23135143856E+03  0.23135143856E+03  0.00000000000E+00 0.  1.
         23    2    1    2    0    0 -0.79622815703E+02  0.10155533560E+02 -0.85998532958E+02  0.15039354586E+03  0.93699217304E+02 0.  0.
         23    2    1    2    0    0  0.14266281983E+03  0.65924920378E+02  0.81984503681E+03  0.83990290542E+03  0.92694287087E+02 0.  0.
        -11    1    4    4    0    0  0.84594859226E+02  0.86352347431E+02  0.53766886266E+03  0.55109057694E+03  0.00000000000E+00 0.  1.
         11    1    4    4    0    0  0.58067960604E+02 -0.20427427053E+02  0.28217617415E+03  0.28881232848E+03  0.00000000000E+00 0. -1.
        -11    1    3    3    0    0 -0.28480431984E+02 -0.37019096073E+02 -0.60184125287E+02  0.76181870656E+02  0.00000000000E+00 0.  1.
         11    1    3    3    0    0 -0.51142383719E+02  0.47174629633E+02 -0.25814407671E+02  0.74211675206E+02  0.00000000000E+00 0. -1.
         21    1    1    2  502  501 -0.41940987434E+02 -0.85992026192E+02 -0.79218387217E+02  0.12421444308E+03  0.00000000000E+00 0.  1.
         21    1    1    2  503  502 -0.21099016693E+02  0.99115722543E+01  0.94935449547E+02  0.97755548951E+02  0.00000000000E+00 0.  1.
<scales pt_clust_5="13000.00000" pt_clust_6="13000.00000" pt_clust_7="13000.00000" pt_clust_8="13000.00000" pt_clust_9="95.68534" pt_clust_10="23.31111"></scales>
<clustering>
<clus scale="   23.311">  1 10  2 -1</clus>
<clus scale="   92.694">  5  6 -1 -1</clus>
<clus scale="   93.699">  7  8 -1 -1</clus>
<clus scale="   95.685">  2  9  1 -1</clus>
<clus scale="  166.016">  1  5  2 -1</clus>
<clus scale="   23.311">  1  5  2 -1</clus>
</clustering>
</event>
<event>
10    2  0.1133532E-006  0.1455775E+03  0.7546771E-02  0.1206441E+00
         -2   -1    0    0    0  501 -0.00000000000E+00  0.00000000000E+00  0.10335239387E+03  0.10335239387E+03  0.00000000000E+00 0.  1.
          2   -1    0    0  502    0  0.00000000000E+00 -0.00000000000E+00 -0.33252177265E+03  0.33252177265E+03  0.00000000000E+00 0. -1.
         23    2    1    2    0    0  0.60068709226E+02 -0.98681053233E+02 -0.10161612170E+03  0.17842335085E+03  0.90348524308E+02 0.  0.
         23    2    1    2    0    0 -0.57837060597E+02  0.93055311527E+02 -0.10594220086E+03  0.17825550347E+03  0.92449218559E+02 0.  0.
        -11    1    3    3    0    0  0.81723570994E+02 -0.78337075578E+02 -0.62532324481E+02  0.12932799802E+03  0.00000000000E+00 0.  1.
         11    1    3    3    0    0 -0.21654861768E+02 -0.20343977655E+02 -0.39083797216E+02  0.49095352833E+02  0.00000000000E+00 0. -1.
        -13    1    4    4    0    0 -0.25102868370E+02  0.10571697099E+02  0.12735366591E+02  0.30068327891E+02  0.00000000000E+00 0.  1.
         13    1    4    4    0    0 -0.32734192227E+02  0.82483614429E+02 -0.11867756745E+03  0.14818717558E+03  0.00000000000E+00 0. -1.
         21    1    1    2  502  503 -0.37693701475E+02 -0.68180435755E+01 -0.14431404288E+02  0.40933681471E+02  0.00000000000E+00 0. -1.
         21    1    1    2  503  501  0.35462052846E+02  0.12443785281E+02 -0.71796519297E+01  0.38261630728E+02  0.00000000000E+00 0.  1.
<scales pt_clust_5="13000.00000" pt_clust_6="13000.00000" pt_clust_7="13000.00000" pt_clust_8="13000.00000" pt_clust_9="32.71745" pt_clust_10="37.58198"></scales>
<clustering>
<clus scale="   37.582">  1 10  2 -1</clus>
<clus scale="   32.717">  1  9  2 -1</clus>
<clus scale="   90.349">  5  6 -1 -1</clus>
<clus scale="   92.449">  7  8 -1 -1</clus>
<clus scale="  144.253">  1  5  2 -1</clus>
<clus scale="  145.577">  2  5  1 -1</clus>
</clustering>
</event>
<event>
10    2  0.1133532E-006  0.1181547E+03  0.7546771E-02  0.1247062E+00
          1   -1    0    0  503    0  0.00000000000E+00  0.00000000000E+00  0.95122991538E+02  0.95122991538E+02  0.00000000000E+00 0. -1.
         -1   -1    0    0    0  501 -0.00000000000E+00 -0.00000000000E+00 -0.64503223759E+03  0.64503223759E+03  0.00000000000E+00 0.  1.
         23    2    1    2    0    0  0.16349602898E+02  0.76691528049E+01 -0.24544384305E+03  0.26271023723E+03  0.91912258333E+02 0.  0.
         23    2    1    2    0    0 -0.80987112430E+02 -0.10619299263E+03 -0.69618047937E+02  0.17504399145E+03  0.89206851093E+02 0.  0.
        -13    1    4    4    0    0 -0.54989676642E+02 -0.36041014067E+02  0.91814671424E+01  0.66386132370E+02  0.00000000000E+00 0. -1.
         13    1    4    4    0    0 -0.25997435788E+02 -0.70151978563E+02 -0.78799515080E+02  0.10865785908E+03  0.00000000000E+00 0.  1.
        -13    1    3    3    0    0 -0.89400512681E+01  0.42455678593E+02 -0.72425122425E+02  0.84426343754E+02  0.00000000000E+00 0.  1.
         13    1    3    3    0    0  0.25289654166E+02 -0.34786525788E+02 -0.17301872063E+03  0.17828389347E+03  0.00000000000E+00 0. -1.
         21    1    1    2  502  501  0.23729594918E+02  0.66590512411E+02 -0.24005207587E+03  0.25024465858E+03  0.00000000000E+00 0.  1.
         21    1    1    2  503  502  0.40907914614E+02  0.31933327413E+02  0.52047208135E+01  0.52156341862E+02  0.00000000000E+00 0. -1.
<scales pt_clust_5="13000.00000" pt_clust_6="13000.00000" pt_clust_7="13000.00000" pt_clust_8="13000.00000" pt_clust_9="74.08345" pt_clust_10="51.89600"></scales>
<clustering>
<clus scale="   51.896">  1 10  2 -1</clus>
<clus scale="   74.083">  2  9  1 -1</clus>
<clus scale="   89.207">  5  6 -1 -1</clus>
<clus scale="   91.912">  7  8 -1 -1</clus>
<clus scale="  116.063">  1  5  2 -1</clus>
<clus scale="   51.896">  1  5  2 -1</clus>
</clustering>
</event>
<event>
10    2  0.1978580E-006  0.4291757E+03  0.7546771E-02  0.1034146E+00
         -1   -1    0    0    0  501 -0.00000000000E+00  0.00000000000E+00  0.21698451414E+03  0.21698451414E+03  0.00000000000E+00 0.  1.
          1   -1    0    0  503    0  0.00000000000E+00 -0.00000000000E+00 -0.11375001868E+04  0.11375001868E+04  0.00000000000E+00 0. -1.
         23    2    1    2    0    0  0.31028041002E+03  0.31849989009E+03 -0.26873222735E+03  0.52759537118E+03  0.91781004764E+02 0.  0.
         23    2    1    2    0    0 -0.28163717814E+03 -0.28640462279E+03 -0.63469647436E+03  0.75652630307E+03  0.90251452114E+02 0.  0.
        -11    1    4    4    0    0 -0.15159543953E+03 -0.19001602177E+03 -0.31206194810E+03  0.39556279560E+03  0.00000000000E+00 0. -1.
         11    1    4    4    0    0 -0.13004173861E+03 -0.96388601021E+02 -0.32263452626E+03  0.36096350747E+03  0.00000000000E+00 0.  1.
        -13    1    3    3    0    0  0.28012705149E+03  0.25017692603E+03 -0.19728457148E+03  0.42424151311E+03  0.00000000000E+00 0.  1.
         13    1    3    3    0    0  0.30153358529E+02  0.68322964061E+02 -0.71447655870E+02  0.10335385807E+03  0.00000000000E+00 0. -1.
         21    1    1    2  502  501 -0.35413722645E+02 -0.11117899000E+02  0.69349812381E+01  0.37760209143E+02  0.00000000000E+00 0. -1.
         21    1    1    2  503  502  0.67704907605E+01 -0.20977368306E+02 -0.24021952201E+02  0.32602817573E+02  0.00000000000E+00 0.  1.
<scales pt_clust_5="13000.00000" pt_clust_6="13000.00000" pt_clust_7="13000.00000" pt_clust_8="13000.00000" pt_clust_9="37.11673" pt_clust_10="22.04290"></scales>
<clustering>
<clus scale="   22.043">  2 10  1 -1</clus>
<clus scale="   37.117">  1  9  2 -1</clus>
<clus scale="   90.251">  5  6 -1 -1</clus>
<clus scale="   91.781">  7  8 -1 -1</clus>
<clus scale="  428.851">  2  5  1 -1</clus>
<clus scale="   22.043">  2  5  1 -1</clus>
</clustering>
</event>
<event>
10    2  0.1133532E-006  0.1177885E+03  0.7546771E-02  0.1247332E+00
         -1   -1    0    0    0  501 -0.00000000000E+00  0.00000000000E+00  0.89935693623E+02  0.89935693623E+02  0.00000000000E+00 0.  1.
          1   -1    0    0  503    0  0.00000000000E+00 -0.00000000000E+00 -0.88306557838E+03  0.88306557838E+03  0.00000000000E+00 0. -1.
         23    2    1    2    0    0  0.39408465582E+02 -0.14105246352E+02 -0.10330989017E+03  0.14270323109E+03  0.89102713888E+02 0.  0.
         23    2    1    2    0    0 -0.68497144580E+02  0.10386966619E+03 -0.37080695993E+03  0.40151760354E+03  0.90762426396E+02 0.  0.
        -11    1    4    4    0    0 -0.23330350711E+02  0.16042603898E+02 -0.14566909354E+02  0.31841250796E+02  0.00000000000E+00 0.  1.
         11    1    4    4    0    0 -0.45166793870E+02  0.87827062289E+02 -0.35624005058E+03  0.36967635274E+03  0.00000000000E+00 0. -1.
        -11    1    3    3    0    0  0.32519252255E+02 -0.44257731728E+02 -0.96498705778E+02  0.11103264746E+03  0.00000000000E+00 0.  1.
         11    1    3    3    0    0  0.68892133266E+01  0.30152485376E+02 -0.68111843909E+01  0.31670583629E+02  0.00000000000E+00 0. -1.
         21    1    1    2  502  501 -0.15785162921E+01 -0.57306409157E+02  0.38133862976E+02  0.68852797689E+02  0.00000000000E+00 0.  1.
         21    1    1    2  503  502  0.30667195290E+02 -0.32458010680E+02 -0.35714689763E+03  0.35992763968E+03  0.00000000000E+00 0.  1.
<scales pt_clust_5="13000.00000" pt_clust_6="13000.00000" pt_clust_7="13000.00000" pt_clust_8="13000.00000" pt_clust_9="58.26083" pt_clust_10="44.65422"></scales>
<clustering>
<clus scale="   44.654">  2 10  1 -1</clus>
<clus scale="   58.261">  1  9  2 -1</clus>
<clus scale="   89.103">  7  8 -1 -1</clus>
<clus scale="   90.762">  5  6 -1 -1</clus>
<clus scale="  116.514">  1  7  2 -1</clus>
<clus scale="   44.654">  2  5  1 -1</clus>
</clustering>
</event>
<event>
10    2  0.1133532E-006  0.1190575E+03  0.7546771E-02  0.1244702E+00
          1   -1    0    0  503    0  0.00000000000E+00  0.00000000000E+00  0.42030402837E+03  0.42030402837E+03  0.00000000000E+00 0. -1.
         -1   -1    0    0    0  501 -0.00000000000E+00 -0.00000000000E+00 -0.85460324407E+02  0.85460324407E+02  0.00000000000E+00 0.  1.
         23    2    1    2    0    0 -0.21201966890E+02  0.93966723724E+02  0.52619273280E+02  0.14236536824E+03  0.90663342025E+02 0.  0.
         23    2    1    2    0    0  0.57850614389E+02 -0.38495968271E+02  0.10651478710E+03  0.15626218248E+03  0.90795576124E+02 0.  0.
        -13    1    4    4    0    0  0.71497639048E+02 -0.54272067343E+02  0.68551485034E+02  0.11294545490E+03  0.00000000000E+00 0. -1.
         13    1    4    4    0    0 -0.13647024659E+02  0.15776099072E+02  0.37963302069E+02  0.43316727576E+02  0.00000000000E+00 0.  1.
        -13    1    3    3    0    0  0.31061429394E+02  0.60237612078E+02  0.14172894747E+02  0.69240546289E+02  0.00000000000E+00 0.  1.
         13    1    3    3    0    0 -0.52263396284E+02  0.33729111646E+02  0.38446378533E+02  0.73124821955E+02  0.00000000000E+00 0. -1.
         21    1    1    2  502  501 -0.33513841127E+02 -0.32442684691E+02  0.21808749927E+02  0.51491037185E+02  0.00000000000E+00 0.  1.
         21    1    1    2  503  502 -0.31348063724E+01 -0.23028070762E+02  0.15390089366E+03  0.15564576487E+03  0.00000000000E+00 0.  1.
<scales pt_clust_5="13000.00000" pt_clust_6="13000.00000" pt_clust_7="13000.00000" pt_clust_8="13000.00000" pt_clust_9="49.20601" pt_clust_10="23.24046"></scales>
<clustering>
<clus scale="   23.240">  1 10  2 -1</clus>
<clus scale="   49.206">  2  9  1 -1</clus>
<clus scale="   90.663">  7  8 -1 -1</clus>
<clus scale="   90.796">  5  6 -1 -1</clus>
<clus scale="  118.957">  2  7  1 -1</clus>
<clus scale="   23.240">  1  5  2 -1</clus>
</clustering>
</event>
<event>
10    2  0.1133532E-006  0.9173089E+02  0.7546771E-02  0.1300674E+00
         -1   -1    0    0    0  501 -0.00000000000E+00  0.00000000000E+00  0.56898222105E+02  0.56898222105E+02  0.00000000000E+00 0.  1.
          1   -1    0    0  503    0  0.00000000000E+00 -0.00000000000E+00 -0.39109823864E+03  0.39109823864E+03  0.00000000000E+00 0. -1.
         23    2    1    2    0    0  0.43757512354E+01  0.22555181416E+02 -0.22906233054E+02  0.97175808835E+02  0.91599994009E+02 0.  0.
         23    2    1    2    0    0 -0.13465976688E+02  0.10323631692E+02 -0.23405770748E+03  0.25074748488E+03  0.88336746849E+02 0.  0.
        -13    1    3    3    0    0 -0.38096058629E+02 -0.11366731407E+02 -0.57029417478E+01  0.40162617077E+02  0.00000000000E+00 0. -1.
         13    1    3    3    0    0  0.42471809864E+02  0.33921912823E+02 -0.17203291307E+02  0.57013191758E+02  0.00000000000E+00 0.  1.
        -13    1    4    4    0    0  0.86598892742E+00 -0.33725167624E+02 -0.45855605456E+02  0.56928669577E+02  0.00000000000E+00 0.  1.
         13    1    4    4    0    0 -0.14331965616E+02  0.44048799315E+02 -0.18820210203E+03  0.19381881531E+03  0.00000000000E+00 0. -1.
         21    1    1    2  502  501 -0.12046836416E+02 -0.18350661799E+02 -0.37885779536E+01  0.22276139230E+02  0.00000000000E+00 0.  1.
         21    1    1    2  503  502  0.21137061869E+02 -0.14528151308E+02 -0.73447498047E+02  0.77797027798E+02  0.00000000000E+00 0. -1.
<scales pt_clust_5="13000.00000" pt_clust_6="13000.00000" pt_clust_7="13000.00000" pt_clust_8="13000.00000" pt_clust_9="21.95161" pt_clust_10="25.68927"></scales>
<clustering>
<clus scale="   21.952">  1  9  2 -1</clus>
<clus scale="   25.689">  2 10  1 -1</clus>
<clus scale="   88.337">  7  8 -1 -1</clus>
<clus scale="   88.472">  2  7  1 -1</clus>
<clus scale="   91.600">  5  6 -1 -1</clus>
<clus scale="   25.689">  2  5  1 -1</clus>
</clustering>
</event>
<event>
10    2  0.1133532E-006  0.1294503E+03  0.7546771E-02  0.1229529E+00
          1   -1    0    0  503    0  0.00000000000E+00  0.00000000000E+00  0.11677509452E+04  0.11677509452E+04  0.00000000000E+00 0. -1.
         -1   -1    0    0    0  501 -0.00000000000E+00 -0.00000000000E+00 -0.27472253096E+02  0.27472253096E+02  0.00000000000E+00 0.  1.
         23    2    1    2    0    0 -0.89437190185E+02 -0.28898811949E+02  0.33841431679E+03  0.36283851017E+03  0.91068009387E+02 0.  0.
         23    2    1    2    0    0  0.43700266612E+02  0.82748022425E+02  0.40800519793E+03  0.42937952569E+03  0.95611646912E+02 0.  0.
        -13    1    3    3    0    0 -0.42034057382E+02  0.30964702020E+02  0.10521338638E+03  0.11745438019E+03  0.00000000000E+00 0.  1.
         13    1    3    3    0    0 -0.47403132803E+02 -0.59863513969E+02  0.23320093041E+03  0.24538412998E+03  0.00000000000E+00 0. -1.
        -13    1    4    4    0    0 -0.24593854993E+01  0.33422442852E+02  0.28751382254E+02  0.44155976319E+02  0.00000000000E+00 0.  1.
         13    1    4    4    0    0  0.46159652111E+02  0.49325579573E+02  0.37925381568E+03  0.38522354937E+03  0.00000000000E+00 0. -1.
         21    1    1    2  502  501  0.76532046977E+01 -0.19535144852E+02  0.37435574360E+02  0.42914049613E+02  0.00000000000E+00 0. -1.
         21    1    1    2  503  502  0.38083718875E+02 -0.34314065624E+02  0.35642360299E+03  0.36009111279E+03  0.00000000000E+00 0. -1.
<scales pt_clust_5="13000.00000" pt_clust_6="13000.00000" pt_clust_7="13000.00000" pt_clust_8="13000.00000" pt_clust_9="20.98079" pt_clust_10="52.65798"></scales>
<clustering>
<clus scale="   20.981">  2  9  1 -1</clus>
<clus scale="   52.658">  1 10  2 -1</clus>
<clus scale="   91.068">  5  6 -1 -1</clus>
<clus scale="   95.612">  7  8 -1 -1</clus>
<clus scale="  126.132">  2  5  1 -1</clus>
<clus scale="   52.658">  1  5  2 -1</clus>
</clustering>
</event>
<event>
10    2  0.1133532E-006  0.3038460E+03  0.7546771E-02  0.1083365E+00
          2   -1    0    0  502    0  0.00000000000E+00  0.00000000000E+00  0.93049121538E+03  0.93049121538E+03  0.00000000000E+00 0. -1.
         -2   -1    0    0    0  501 -0.00000000000E+00 -0.00000000000E+00 -0.15083018638E+03  0.15083018638E+03  0.00000000000E+00 0.  1.
         23    2    1    2    0    0 -0.27556203353E+03  0.44990012156E+02  0.19272543798E+03  0.35109948027E+03  0.90383710280E+02 0.  0.
         23    2    1    2    0    0  0.29867138399E+03 -0.63809373783E+02  0.32926236935E+03  0.45827011319E+03  0.91222568349E+02 0.  0.
        -11    1    3    3    0    0 -0.12368382122E+03  0.61582127616E+01  0.34924814059E+02  0.12866760996E+03  0.00000000000E+00 0.  1.
         11    1    3    3    0    0 -0.15187821231E+03  0.38831799395E+02  0.15780062392E+03  0.22243187031E+03  0.00000000000E+00 0. -1.
        -11    1    4    4    0    0  0.34892105523E+02 -0.29232192508E+02  0.88244284192E+02  0.99292667399E+02  0.00000000000E+00 0. -1.
         11    1    4    4    0    0  0.26377927847E+03 -0.34577181275E+02  0.24101808516E+03  0.35897744579E+03  0.00000000000E+00 0.  1.
         21    1    1    2  502  503 -0.28120922990E+02 -0.19026978846E+02  0.47781578669E+02  0.58616478007E+02  0.00000000000E+00 0.  1.
         21    1    1    2  503  501  0.50115725349E+01  0.37846340473E+02  0.20989164301E+03  0.21333533029E+03  0.00000000000E+00 0.  1.
<scales pt_clust_5="13000.00000" pt_clust_6="13000.00000" pt_clust_7="13000.00000" pt_clust_8="13000.00000" pt_clust_9="33.95309" pt_clust_10="33.30395"></scales>
<clustering>
<clus scale="   33.953">  1  9  2 -1</clus>
<clus scale="   33.304">  1 10  2 -1</clus>
<clus scale="   90.384">  5  6 -1 -1</clus>
<clus scale="   91.223">  7  8 -1 -1</clus>
<clus scale="  303.595">  2  5  1 -1</clus>
<clus scale="   33.953">  1  5  2 -1</clus>
</clustering>
</event>
<event>
10    2  0.1133532E-006  0.1751461E+03  0.7546771E-02  0.1172620E+00
         -1   -1    0    0    0  501 -0.00000000000E+00  0.00000000000E+00  0.62543349967E+02  0.62543349967E+02  0.00000000000E+00 0.  1.
          1   -1    0    0  503    0  0.00000000000E+00 -0.00000000000E+00 -0.75550346007E+03  0.75550346007E+03  0.00000000000E+00 0. -1.
         23    2    1    2    0    0 -0.14176669929E+03  0.12042898728E+02 -0.22159597930E+03  0.27839961642E+03  0.90325743532E+02 0.  0.
         23    2    1    2    0    0  0.16435430037E+03 -0.90485001565E+01 -0.40980418273E+03  0.45082318475E+03  0.90597264387E+02 0.  0.
        -11    1    4    4    0    0  0.36901386664E+01  0.23111086381E+02 -0.64538090273E+02  0.68650597472E+02  0.00000000000E+00 0.  1.
         11    1    4    4    0    0  0.16066416171E+03 -0.32159586537E+02 -0.34526609246E+03  0.38217258727E+03  0.00000000000E+00 0. -1.
        -13    1    3    3    0    0 -0.47938404428E+02  0.30522202485E+02 -0.29998017819E+02  0.64261781307E+02  0.00000000000E+00 0. -1.
         13    1    3    3    0    0 -0.93828294861E+02 -0.18479303758E+02 -0.19159796148E+03  0.21413783512E+03  0.00000000000E+00 0.  1.
         21    1    1    2  502  501  0.15060405485E+01 -0.20186636252E+02  0.30283102706E+00  0.20245003036E+02  0.00000000000E+00 0. -1.
         21    1    1    2  503  502 -0.24093641631E+02  0.17192237680E+02 -0.61862779098E+02  0.68579005834E+02  0.00000000000E+00 0. -1.
<scales pt_clust_5="13000.00000" pt_clust_6="13000.00000" pt_clust_7="13000.00000" pt_clust_8="13000.00000" pt_clust_9="20.24274" pt_clust_10="28.78388"></scales>
<clustering>
<clus scale="   20.243">  1  9  2 -1</clus>
<clus scale="   28.784">  2 10  1 -1</clus>
<clus scale="   90.326">  7  8 -1 -1</clus>
<clus scale="   90.597">  5  6 -1 -1</clus>
<clus scale="  175.006">  1  7  2 -1</clus>
<clus scale="   28.784">  2  5  1 -1</clus>
</clustering>
</event>
<event>
10    2  0.1133532E-006  0.1285610E+03  0.7546771E-02  0.1229773E+00
         -1   -1    0    0    0  501 -0.00000000000E+00  0.00000000000E+00  0.15842098762E+03  0.15842098762E+03  0.00000000000E+00 0.  1.
          1   -1    0    0  503    0  0.00000000000E+00 -0.00000000000E+00 -0.31000722750E+03  0.31000722750E+03  0.00000000000E+00 0. -1.
         23    2    1    2    0    0 -0.16459999495E+02 -0.10363008952E+03 -0.50707089826E+02  0.14798910576E+03  0.91210961121E+02 0.  0.
         23    2    1    2    0    0  0.17979274976E+02  0.67705218982E+02 -0.12292238122E+03  0.16799797886E+03  0.90587847364E+02 0.  0.
        -11    1    4    4    0    0  0.41960164746E+02  0.76659979816E+02 -0.82689273716E+02  0.12031177797E+03  0.00000000000E+00 0.  1.
         11    1    4    4    0    0 -0.23980889770E+02 -0.89547608342E+01 -0.40233107504E+02  0.47686200888E+02  0.00000000000E+00 0. -1.
        -11    1    3    3    0    0  0.31646038660E+02 -0.78512740705E+02 -0.33783419305E+02  0.91142973595E+02  0.00000000000E+00 0.  1.
         11    1    3    3    0    0 -0.48106038155E+02 -0.25117348813E+02 -0.16923670521E+02  0.56846132166E+02  0.00000000000E+00 0. -1.
         21    1    1    2  502  501  0.23017677287E+02 -0.37148544139E+01  0.76954537466E+02  0.80409044563E+02  0.00000000000E+00 0.  1.
         21    1    1    2  503  502 -0.24536952768E+02  0.39639724950E+02 -0.54911306297E+02  0.72032085938E+02  0.00000000000E+00 0. -1.
<scales pt_clust_5="13000.00000" pt_clust_6="13000.00000" pt_clust_7="13000.00000" pt_clust_8="13000.00000" pt_clust_9="23.31552" pt_clust_10="45.01948"></scales>
<clustering>
<clus scale="   23.316">  1  9  2 -1</clus>
<clus scale="   45.019">  2 10  1 -1</clus>
<clus scale="   90.588">  5  6 -1 -1</clus>
<clus scale="   91.211">  7  8 -1 -1</clus>
<clus scale="  128.120">  2  5  1 -1</clus>
<clus scale="   45.019">  2  5  1 -1</clus>
</clustering>
</event>
<event>
10    2  0.1133532E-006  0.3870168E+03  0.7546771E-02  0.1048445E+00
         -2   -1    0    0    0  501 -0.00000000000E+00  0.00000000000E+00  0.52045251799E+03  0.52045251799E+03  0.00000000000E+00 0.  1.
          2   -1    0    0  503    0  0.00000000000E+00 -0.00000000000E+00 -0.44549164356E+03  0.44549164356E+03  0.00000000000E+00 0. -1.
         23    2    1    2    0    0  0.23873056453E+03 -0.24511225115E+03  0.21561218694E+03  0.41543473702E+03  0.95000565588E+02 0.  0.
         23    2    1    2    0    0 -0.30924152158E+03  0.28563224523E+03 -0.85798296208E+02  0.43927512902E+03  0.91570700335E+02 0.  0.
        -11    1    4    4    0    0 -0.84836093918E+02  0.13574294384E+03 -0.45568949960E+02  0.16643268560E+03  0.00000000000E+00 0.  1.
         11    1    4    4    0    0 -0.22440542766E+03  0.14988930139E+03 -0.40229346248E+02  0.27284244343E+03  0.00000000000E+00 0. -1.
        -11    1    3    3    0    0  0.14024054662E+03 -0.14395364181E+03  0.18007281598E+03  0.26984492021E+03  0.00000000000E+00 0.  1.
         11    1    3    3    0    0  0.98490017907E+02 -0.10115860934E+03  0.35539370957E+02  0.14558981681E+03  0.00000000000E+00 0. -1.
         21    1    1    2  502  501  0.15770841170E+02 -0.21454957966E+02  0.58906694921E+01  0.27271498668E+02  0.00000000000E+00 0. -1.
         21    1    1    2  503  502  0.54740115880E+02 -0.19065036116E+02 -0.60743685791E+02  0.83962796834E+02  0.00000000000E+00 0. -1.
<scales pt_clust_5="13000.00000" pt_clust_6="13000.00000" pt_clust_7="13000.00000" pt_clust_8="13000.00000" pt_clust_9="26.62770" pt_clust_10="58.47190"></scales>
<clustering>
<clus scale="   26.628">  1  9  2 -1</clus>
<clus scale="   58.472">  2 10  1 -1</clus>
<clus scale="   91.571">  5  6 -1 -1</clus>
<clus scale="   95.001">  7  8 -1 -1</clus>
<clus scale="  386.189">  2  5  1 -1</clus>
<clus scale="   58.472">  2  5  1 -1</clus>
</clustering>
</event>
<event>
10    2  0.1133532E-006  0.2207975E+03  0.7546771E-02  0.1133439E+00
          1   -1    0    0  503    0  0.00000000000E+00  0.00000000000E+00  0.39190693586E+03  0.39190693586E+03  0.00000000000E+00 0. -1.
         -1   -1    0    0    0  501 -0.00000000000E+00 -0.00000000000E+00 -0.24397190785E+03  0.24397190785E+03  0.00000000000E+00 0.  1.
         23    2    1    2    0    0 -0.16335822031E+03 -0.50978999659E+02  0.53571800002E+02  0.20134515901E+03  0.91570567058E+02 0.  0.
         23    2    1    2    0    0  0.18635366175E+03  0.14744338658E+03  0.59785287584E+01  0.25542397342E+03  0.93479537310E+02 0.  0.
        -13    1    3    3    0    0 -0.58276209643E+02 -0.33541038620E+02  0.65859019461E+02  0.94119755240E+02  0.00000000000E+00 0. -1.
         13    1    3    3    0    0 -0.10508201067E+03 -0.17437961038E+02 -0.12287219459E+02  0.10722540377E+03  0.00000000000E+00 0.  1.
        -13    1    4    4    0    0  0.18248663830E+03  0.10724217630E+03 -0.10214703833E+02  0.21191176869E+03  0.00000000000E+00 0.  1.
         13    1    4    4    0    0  0.38670234546E+01  0.40201210285E+02  0.16193232592E+02  0.43512204731E+02  0.00000000000E+00 0. -1.
         21    1    1    2  502  501  0.12423590601E+02  0.23139001754E+02  0.52700267346E-01  0.26263316297E+02  0.00000000000E+00 0.  1.
         21    1    1    2  503  502 -0.35419032038E+02 -0.11960338868E+03  0.88331998984E+02  0.15284639498E+03  0.00000000000E+00 0.  1.
<scales pt_clust_5="13000.00000" pt_clust_6="13000.00000" pt_clust_7="13000.00000" pt_clust_8="13000.00000" pt_clust_9="26.26326" pt_clust_10="121.14709"></scales>
<clustering>
<clus scale="   26.263">  2  9  1 -1</clus>
<clus scale="   91.571">  5  6 -1 -1</clus>
<clus scale="   93.480">  7  8 -1 -1</clus>
<clus scale="  121.147">  1 10  2 -1</clus>
<clus scale="  219.996">  2  5  1 -1</clus>
<clus scale="  121.147">  1  5  2 -1</clus>
</clustering>
</event>
<event>
10    2  0.1133532E-006  0.9409245E+02  0.7546771E-02  0.1294554E+00
          2   -1    0    0  503    0  0.00000000000E+00  0.00000000000E+00  0.78045469755E+03  0.78045469755E+03  0.00000000000E+00 0. -1.
         -2   -1    0    0    0  501 -0.00000000000E+00 -0.00000000000E+00 -0.57329416036E+02  0.57329416036E+02  0.00000000000E+00 0.  1.
         23    2    1    2    0    0 -0.10342912200E+02 -0.27833305691E+02  0.21018697210E+03  0.23166212963E+03  0.92774513351E+02 0.  0.
         23    2    1    2    0    0  0.72445080305E+01  0.11132549298E+02  0.41383248846E+03  0.42381139291E+03  0.90456352472E+02 0.  0.
        -11    1    4    4    0    0 -0.15129704988E+02  0.46730880884E+02  0.23884529740E+03  0.24384371899E+03  0.00000000000E+00 0.  1.
         11    1    4    4    0    0  0.22374213018E+02 -0.35598331586E+02  0.17498719106E+03  0.17996767392E+03  0.00000000000E+00 0. -1.
        -13    1    3    3    0    0  0.46929841233E+01 -0.60853365377E+02  0.12685016001E+03  0.14076973848E+03  0.00000000000E+00 0. -1.
         13    1    3    3    0    0 -0.15035896323E+02  0.33020059686E+02  0.83336812095E+02  0.90892391156E+02  0.00000000000E+00 0.  1.
         21    1    1    2  502  501 -0.79131140979E+01  0.36705828055E+02 -0.31936338487E+02  0.49293659875E+02  0.00000000000E+00 0.  1.
         21    1    1    2  503  502  0.11011518267E+02 -0.20005071662E+02  0.13104215945E+03  0.13301693117E+03  0.00000000000E+00 0. -1.
<scales pt_clust_5="13000.00000" pt_clust_6="13000.00000" pt_clust_7="13000.00000" pt_clust_8="13000.00000" pt_clust_9="37.25641" pt_clust_10="22.83542"></scales>
<clustering>
<clus scale="   22.835">  1 10  2 -1</clus>
<clus scale="   37.256">  2  9  1 -1</clus>
<clus scale="   90.456">  5  6 -1 -1</clus>
<clus scale="   91.808">  1  5  2 -1</clus>
<clus scale="   92.775">  7  8 -1 -1</clus>
<clus scale="   22.835">  1  5  2 -1</clus>
</clustering>
</event>
<event>
10    2  0.1133532E-006  0.1068929E+03  0.7546771E-02  0.1268693E+00
          1   -1    0    0  503    0  0.00000000000E+00  0.00000000000E+00  0.11041029079E+03  0.11041029079E+03  0.00000000000E+00 0. -1.
         -1   -1    0    0    0  501 -0.00000000000E+00 -0.00000000000E+00 -0.36247659818E+03  0.36247659818E+03  0.00000000000E+00 0.  1.
         23    2    1    2    0    0 -0.54867025183E+02  0.33588200664E+02 -0.10162949963E+03  0.15348690311E+03  0.95347346858E+02 0.  0.
         23    2    1    2    0    0  0.41513717992E+02  0.16047994850E+02 -0.41166218551E+02  0.10866195223E+03  0.90176689847E+02 0.  0.
        -11    1    4    4    0    0  0.22340969564E+02 -0.22345568682E+02 -0.55120952064E+02  0.63535523270E+02  0.00000000000E+00 0. -1.
         11    1    4    4    0    0  0.19172748427E+02  0.38393563532E+02  0.13954733513E+02  0.45126428956E+02  0.00000000000E+00 0.  1.
        -13    1    3    3    0    0  0.39300750331E+01  0.36423911763E+02 -0.84624981390E+02  0.92214610085E+02  0.00000000000E+00 0.  1.
         13    1    3    3    0    0 -0.58797100217E+02 -0.28357110990E+01 -0.17004518244E+02  0.61272293021E+02  0.00000000000E+00 0. -1.
         21    1    1    2  502  501  0.90515390123E+01 -0.18465027563E+02 -0.15437689220E+03  0.15574052923E+03  0.00000000000E+00 0.  1.
         21    1    1    2  503  502  0.43017681794E+01 -0.31171167952E+02  0.45106302989E+02  0.54997504400E+02  0.00000000000E+00 0. -1.
<scales pt_clust_5="13000.00000" pt_clust_6="13000.00000" pt_clust_7="13000.00000" pt_clust_8="13000.00000" pt_clust_9="20.56423" pt_clust_10="31.93261"></scales>
<clustering>
<clus scale="   20.564">  2  9  1 -1</clus>
<clus scale="   31.933">  1 10  2 -1</clus>
<clus scale="   90.177">  5  6 -1 -1</clus>
<clus scale="   95.347">  7  8 -1 -1</clus>
<clus scale="  102.307">  1  5  2 -1</clus>
<clus scale="   31.933">  1  5  2 -1</clus>
</clustering>
</event>
<event>
10    2  0.1133532E-006  0.9095564E+02  0.7546771E-02  0.1300627E+00
         -2   -1    0    0    0  501 -0.00000000000E+00  0.00000000000E+00  0.53284473953E+02  0.53284473953E+02  0.00000000000E+00 0.  1.
          2   -1    0    0  503    0  0.00000000000E+00 -0.00000000000E+00 -0.34880679674E+03  0.34880679674E+03  0.00000000000E+00 0. -1.
         23    2    1    2    0    0  0.21789582395E+02  0.90513266087E+01 -0.10580998275E+03  0.14146381103E+03  0.90882038747E+02 0.  0.
         23    2    1    2    0    0  0.14688009057E+02  0.10701297934E+02 -0.10779583406E+03  0.14208222733E+03  0.90758812761E+02 0.  0.
        -11    1    4    4    0    0  0.25205239450E+02 -0.20323646309E+02 -0.32698367941E+01  0.32542995063E+02  0.00000000000E+00 0.  1.
         11    1    4    4    0    0 -0.10517230393E+02  0.31024944242E+02 -0.10452599727E+03  0.10953923226E+03  0.00000000000E+00 0. -1.
        -11    1    3    3    0    0  0.56505806236E+02  0.77866180467E+01 -0.79691016817E+02  0.98000998569E+02  0.00000000000E+00 0.  1.
         11    1    3    3    0    0 -0.34716223841E+02  0.12647085620E+01 -0.26118965932E+02  0.43462812460E+02  0.00000000000E+00 0. -1.
         21    1    1    2  502  501 -0.13807559864E+02 -0.21762691539E+02  0.70448643260E+01  0.26718786758E+02  0.00000000000E+00 0.  1.
         21    1    1    2  503  502 -0.22670031588E+02  0.20100669970E+01 -0.88961370309E+02  0.91826445585E+02  0.00000000000E+00 0. -1.
<scales pt_clust_5="13000.00000" pt_clust_6="13000.00000" pt_clust_7="13000.00000" pt_clust_8="13000.00000" pt_clust_9="26.18234" pt_clust_10="22.75897"></scales>
<clustering>
<clus scale="   22.759">  2 10  1 -1</clus>
<clus scale="   26.182">  1  9  2 -1</clus>
<clus scale="   90.759">  5  6 -1 -1</clus>
<clus scale="   90.833">  2  5  1 -1</clus>
<clus scale="   90.882">  7  8 -1 -1</clus>
<clus scale="   22.759">  2  5  1 -1</clus>
</clustering>
</event>
<event>
10    2  0.1133532E-006  0.9039463E+02  0.7546771E-02  0.1302445E+00
         -1   -1    0    0    0  501 -0.00000000000E+00  0.00000000000E+00  0.32299473817E+03  0.32299473817E+03  0.00000000000E+00 0.  1.
          1   -1    0    0  503    0  0.00000000000E+00 -0.00000000000E+00 -0.62024160053E+02  0.62024160053E+02  0.00000000000E+00 0. -1.
         23    2    1    2    0    0  0.29960968942E+01  0.21145155204E+02  0.18233974781E+03  0.20461375434E+03  0.90348827607E+02 0.  0.
         23    2    1    2    0    0  0.28926792407E+01  0.22333452078E+01  0.29805373122E+01  0.89569846579E+02  0.89445616939E+02 0.  0.
        -11    1    4    4    0    0  0.30735427139E+02 -0.20285533524E+02  0.27679435825E+02  0.46068650071E+02  0.00000000000E+00 0. -1.
         11    1    4    4    0    0 -0.27842747899E+02  0.22518878732E+02 -0.24698898512E+02  0.43501196508E+02  0.00000000000E+00 0.  1.
        -13    1    3    3    0    0 -0.89138107861E-02 -0.22471818836E+02  0.64607133863E+01  0.23382120065E+02  0.00000000000E+00 0. -1.
         13    1    3    3    0    0  0.30050107050E+01  0.43616974040E+02  0.17587903442E+03  0.18123163428E+03  0.00000000000E+00 0.  1.
         21    1    1    2  502  501 -0.20891660545E+02 -0.20962221559E+01  0.50246798849E+02  0.54457289890E+02  0.00000000000E+00 0. -1.
         21    1    1    2  503  502  0.15002884410E+02 -0.21282278256E+02  0.25403494152E+02  0.36378007416E+02  0.00000000000E+00 0.  1.
<scales pt_clust_5="13000.00000" pt_clust_6="13000.00000" pt_clust_7="13000.00000" pt_clust_8="13000.00000" pt_clust_9="20.99656" pt_clust_10="24.94793"></scales>
<clustering>
<clus scale="   20.997">  1  9  2 -1</clus>
<clus scale="   24.948">  1 10  2 -1</clus>
<clus scale="   89.446">  5  6 -1 -1</clus>
<clus scale="   89.492">  2  5  1 -1</clus>
<clus scale="   90.349">  7  8 -1 -1</clus>
<clus scale="   89.492">  2  5  1 -1</clus>
</clustering>
</event>
<event>
10    2  0.1133532E-006  0.1336957E+03  0.7546771E-02  0.1226005E+00
         -2   -1    0    0    0  501 -0.00000000000E+00  0.00000000000E+00  0.17309801192E+03  0.17309801192E+03  0.00000000000E+00 0.  1.
          2   -1    0    0  503    0  0.00000000000E+00 -0.00000000000E+00 -0.41410751224E+03  0.41410751224E+03  0.00000000000E+00 0. -1.
         23    2    1    2    0    0  0.11847596680E+03 -0.57073962463E+02  0.88005175834E+02  0.17488407976E+03  0.74468372333E+02 0.  0.
         23    2    1    2    0    0 -0.36724381733E+02  0.19080627593E+02 -0.24676968800E+03  0.26619098298E+03  0.90827363394E+02 0.  0.
        -13    1    3    3    0    0  0.92834390300E+02 -0.92829628899E+01  0.36791085680E+02  0.10028948802E+03  0.00000000000E+00 0. -1.
         13    1    3    3    0    0  0.25641576504E+02 -0.47790999573E+02  0.51214090155E+02  0.74594591735E+02  0.00000000000E+00 0.  1.
        -13    1    4    4    0    0 -0.46953126800E+02 -0.24281735583E+02 -0.10450326362E+03  0.11711161730E+03  0.00000000000E+00 0.  1.
         13    1    4    4    0    0  0.10228745067E+02  0.43362363175E+02 -0.14226642438E+03  0.14907936568E+03  0.00000000000E+00 0. -1.
         21    1    1    2  502  501 -0.34620304749E+02 -0.51088996634E+01  0.76842241052E+01  0.35828949982E+02  0.00000000000E+00 0.  1.
         21    1    1    2  503  502 -0.47131280321E+02  0.43102234533E+02 -0.89929212263E+02  0.11030151143E+03  0.00000000000E+00 0.  1.
<scales pt_clust_5="13000.00000" pt_clust_6="13000.00000" pt_clust_7="13000.00000" pt_clust_8="13000.00000" pt_clust_9="34.99523" pt_clust_10="65.38128"></scales>
<clustering>
<clus scale="   34.995">  1  9  2 -1</clus>
<clus scale="   65.381">  2 10  1 -1</clus>
<clus scale="   74.468">  5  6 -1 -1</clus>
<clus scale="   90.827">  7  8 -1 -1</clus>
<clus scale="  123.168">  1  5  2 -1</clus>
<clus scale="   65.381">  2  5  1 -1</clus>
</clustering>
</event>
<event>
10    2  0.1133532E-006  0.1067982E+03  0.7546771E-02  0.1267838E+00
          2   -1    0    0  502    0  0.00000000000E+00  0.00000000000E+00  0.12107104432E+03  0.12107104432E+03  0.00000000000E+00 0. -1.
         -2   -1    0    0    0  501 -0.00000000000E+00 -0.00000000000E+00 -0.16407315593E+03  0.16407315593E+03  0.00000000000E+00 0.  1.
         23    2    1    2    0    0  0.35879710148E+02 -0.63251268999E+01 -0.45306850012E+02  0.11081102137E+03  0.94334569315E+02 0.  0.
         23    2    1    2    0    0 -0.67417051909E+02  0.14725419627E+02 -0.26832801134E+02  0.11769512583E+03  0.91489051560E+02 0.  0.
        -13    1    4    4    0    0 -0.25381664872E+02  0.52338426220E+02 -0.12504373956E+02  0.59497051514E+02  0.00000000000E+00 0.  1.
         13    1    4    4    0    0 -0.42035387037E+02 -0.37613006593E+02 -0.14328427178E+02  0.58198074312E+02  0.00000000000E+00 0. -1.
        -13    1    3    3    0    0  0.32683434948E+02  0.20417216739E+02 -0.66284433877E+02  0.76672653754E+02  0.00000000000E+00 0.  1.
         13    1    3    3    0    0  0.31962751999E+01 -0.26742343639E+02  0.20977583865E+02  0.34138367613E+02  0.00000000000E+00 0. -1.
         21    1    1    2  502  503  0.17605985545E+02  0.11217454917E+02  0.29637713829E+01  0.21085207199E+02  0.00000000000E+00 0.  1.
         21    1    1    2  503  501  0.13931356216E+02 -0.19617747645E+02  0.26173768153E+02  0.35552845850E+02  0.00000000000E+00 0. -1.
<scales pt_clust_5="13000.00000" pt_clust_6="13000.00000" pt_clust_7="13000.00000" pt_clust_8="13000.00000" pt_clust_9="20.87587" pt_clust_10="25.06235"></scales>
<clustering>
<clus scale="   20.876">  1  9  2 -1</clus>
<clus scale="   25.062">  1 10  2 -1</clus>
<clus scale="   91.489">  5  6 -1 -1</clus>
<clus scale="   94.335">  7  8 -1 -1</clus>
<clus scale="  104.293">  1  5  2 -1</clus>
<clus scale="   20.876">  1  5  2 -1</clus>
</clustering>
</event>
<event>
10    2  0.1133532E-006  0.1409167E+03  0.7546771E-02  0.1231807E+00
          1   -1    0    0  503    0  0.00000000000E+00  0.00000000000E+00  0.22827669344E+03  0.22827669344E+03  0.00000000000E+00 0. -1.
         -1   -1    0    0    0  501 -0.00000000000E+00 -0.00000000000E+00 -0.25931681386E+03  0.25931681386E+03  0.00000000000E+00 0.  1.
         23    2    1    2    0    0  0.68795139430E+02 -0.67364095646E+02 -0.51719145289E+02  0.14152359961E+03  0.89907545105E+02 0.  0.
         23    2    1    2    0    0 -0.49459766245E+01  0.78434657168E+01  0.28508047822E+02  0.97284212934E+02  0.92550130504E+02 0.  0.
        -13    1    4    4    0    0 -0.38801691197E+02 -0.18384540638E+02 -0.45580415259E+01  0.43177984167E+02  0.00000000000E+00 0.  1.
         13    1    4    4    0    0  0.33855714572E+02  0.26228006355E+02  0.33066089348E+02  0.54106228766E+02  0.00000000000E+00 0. -1.
        -13    1    3    3    0    0 -0.24014560155E+01 -0.27719789812E+02 -0.53181756187E+02  0.60020437597E+02  0.00000000000E+00 0.  1.
         13    1    3    3    0    0  0.71196595446E+02 -0.39644305834E+02  0.14626108977E+01  0.81503162017E+02  0.00000000000E+00 0. -1.
         21    1    1    2  502  501 -0.96841980767E+02  0.64846312790E+02 -0.98219131968E+02  0.15241525975E+03  0.00000000000E+00 0.  1.
         21    1    1    2  503  502  0.32992817961E+02 -0.53256828608E+01  0.90390109013E+02  0.96370435002E+02  0.00000000000E+00 0. -1.
<scales pt_clust_5="13000.00000" pt_clust_6="13000.00000" pt_clust_7="13000.00000" pt_clust_8="13000.00000" pt_clust_9="108.50879" pt_clust_10="33.41989"></scales>
<clustering>
<clus scale="   33.420">  1 10  2 -1</clus>
<clus scale="   89.908">  7  8 -1 -1</clus>
<clus scale="   92.550">  5  6 -1 -1</clus>
<clus scale="   93.291">  1  5  2 -1</clus>
<clus scale="  108.509">  2  9  1 -1</clus>
<clus scale="   33.420">  1  5  2 -1</clus>
</clustering>
</event>
<event>
10    2  0.1133532E-006  0.1234598E+03  0.7546771E-02  0.1237837E+00
          2   -1    0    0  502    0  0.00000000000E+00  0.00000000000E+00  0.36116549556E+03  0.36116549556E+03  0.00000000000E+00 0. -1.
         -2   -1    0    0    0  501 -0.00000000000E+00 -0.00000000000E+00 -0.16097438883E+03  0.16097438883E+03  0.00000000000E+00 0.  1.
         23    2    1    2    0    0  0.92687386673E+02  0.86945570046E+02  0.13244635123E+03  0.20560641602E+03  0.92636270198E+02 0.  0.
         23    2    1    2    0    0 -0.64642915789E+02  0.32403171196E+02  0.70031714978E+02  0.13603059840E+03  0.91494319683E+02 0.  0.
        -11    1    4    4    0    0 -0.83913381642E+02  0.68067607633E+01  0.55593544858E+02  0.10088820467E+03  0.00000000000E+00 0. -1.
         11    1    4    4    0    0  0.19270465854E+02  0.25596410433E+02  0.14438170120E+02  0.35142393738E+02  0.00000000000E+00 0.  1.
        -13    1    3    3    0    0  0.22369562984E+02  0.83170617829E+02  0.63040164528E+02  0.10673242882E+03  0.00000000000E+00 0. -1.
         13    1    3    3    0    0  0.70317823689E+02  0.37749522166E+01  0.69406186697E+02  0.98873987198E+02  0.00000000000E+00 0.  1.
         21    1    1    2  502  503  0.30346956072E+02 -0.11299863878E+03 -0.20970644924E+02  0.11886714457E+03  0.00000000000E+00 0.  1.
         21    1    1    2  503  501 -0.58391426957E+02 -0.63501024599E+01  0.18683685455E+02  0.61635725399E+02  0.00000000000E+00 0.  1.
<scales pt_clust_5="13000.00000" pt_clust_6="13000.00000" pt_clust_7="13000.00000" pt_clust_8="13000.00000" pt_clust_9="116.18644" pt_clust_10="58.73570"></scales>
<clustering>
<clus scale="   58.736">  2 10  1 -1</clus>
<clus scale="   91.494">  5  6 -1 -1</clus>
<clus scale="   92.636">  7  8 -1 -1</clus>
<clus scale="  116.186">  2  9  1 -1</clus>
<clus scale="  122.605">  1  5  2 -1</clus>
<clus scale="  122.605">  1  5  2 -1</clus>
</clustering>
</event>
<event>
10    2  0.1133532E-006  0.1041003E+03  0.7546771E-02  0.1272852E+00
          1   -1    0    0  503    0  0.00000000000E+00  0.00000000000E+00  0.58924426647E+03  0.58924426647E+03  0.00000000000E+00 0. -1.
         -1   -1    0    0    0  501 -0.00000000000E+00 -0.00000000000E+00 -0.58289872761E+02  0.58289872761E+02  0.00000000000E+00 0.  1.
         23    2    1    2    0    0 -0.67624217485E+02 -0.35429313036E+02  0.19519605879E+03  0.22889374288E+03  0.91992245058E+02 0.  0.
         23    2    1    2    0    0  0.34326636325E+02 -0.56023758494E+02  0.21060946700E+03  0.23821574733E+03  0.89852185310E+02 0.  0.
        -13    1    3    3    0    0 -0.26673080045E+02 -0.64139111715E+02  0.11726709493E+03  0.13629692001E+03  0.00000000000E+00 0.  1.
         13    1    3    3    0    0 -0.40951137440E+02  0.28709798679E+02  0.77928963860E+02  0.92596822873E+02  0.00000000000E+00 0. -1.
        -13    1    4    4    0    0  0.63937334026E+02 -0.49822206682E+02  0.15400446098E+03  0.17403335589E+03  0.00000000000E+00 0. -1.
         13    1    4    4    0    0 -0.29610697701E+02 -0.62015518115E+01  0.56605006021E+02  0.64182391431E+02  0.00000000000E+00 0.  1.
         21    1    1    2  502  501  0.56790462455E+02  0.48096809109E+02  0.47004228645E+02  0.88021913083E+02  0.00000000000E+00 0.  1.
         21    1    1    2  503  502 -0.23492881295E+02  0.43356262420E+02  0.78144639264E+02  0.92402735935E+02  0.00000000000E+00 0.  1.
<scales pt_clust_5="13000.00000" pt_clust_6="13000.00000" pt_clust_7="13000.00000" pt_clust_8="13000.00000" pt_clust_9="76.04830" pt_clust_10="49.31208"></scales>
<clustering>
<clus scale="   49.312">  1 10  2 -1</clus>
<clus scale="   76.048">  2  9  1 -1</clus>
<clus scale="   89.852">  7  8 -1 -1</clus>
<clus scale="   91.992">  5  6 -1 -1</clus>
<clus scale="  102.214">  1  7  2 -1</clus>
<clus scale="   49.312">  1  5  2 -1</clus>
</clustering>
</event>
<event>
10    2  0.1133532E-006  0.1124795E+03  0.7546771E-02  0.1256571E+00
         -1   -1    0    0    0  501 -0.00000000000E+00  0.00000000000E+00  0.75896743193E+03  0.75896743193E+03  0.00000000000E+00 0.  1.
          1   -1    0    0  503    0  0.00000000000E+00 -0.00000000000E+00 -0.11445637582E+03  0.11445637582E+03  0.00000000000E+00 0. -1.
         23    2    1    2    0    0 -0.23184425200E+01 -0.52017622761E+02  0.40520770405E+03  0.41846374414E+03  0.90594776272E+02 0.  0.
         23    2    1    2    0    0  0.22032832134E+02  0.26722996871E+02  0.94253663506E+02  0.13620055266E+03  0.92017787443E+02 0.  0.
        -11    1    3    3    0    0  0.27121463440E+02 -0.64807830576E+02  0.23585194061E+03  0.24609300391E+03  0.00000000000E+00 0.  1.
         11    1    3    3    0    0 -0.29439905960E+02  0.12790207815E+02  0.16935576344E+03  0.17237074023E+03  0.00000000000E+00 0. -1.
        -11    1    4    4    0    0  0.18563958382E+02 -0.32961943395E+02  0.28746761090E+02  0.47513014389E+02  0.00000000000E+00 0.  1.
         11    1    4    4    0    0  0.34688737523E+01  0.59684940266E+02  0.65506902417E+02  0.88687538267E+02  0.00000000000E+00 0. -1.
         21    1    1    2  502  501 -0.16832445233E+02 -0.53691172444E+02  0.20940609413E+03  0.21683400442E+03  0.00000000000E+00 0.  1.
         21    1    1    2  503  502 -0.28819443806E+01  0.78985798335E+02 -0.64356405587E+02  0.10192550653E+03  0.00000000000E+00 0. -1.
<scales pt_clust_5="13000.00000" pt_clust_6="13000.00000" pt_clust_7="13000.00000" pt_clust_8="13000.00000" pt_clust_9="56.26787" pt_clust_10="77.21571"></scales>
<clustering>
<clus scale="   56.268">  1  9  2 -1</clus>
<clus scale="   77.216">  2 10  1 -1</clus>
<clus scale="   90.595">  5  6 -1 -1</clus>
<clus scale="   92.018">  7  8 -1 -1</clus>
<clus scale="  111.318">  1  5  2 -1</clus>
<clus scale="   77.216">  2  5  1 -1</clus>
</clustering>
</event>
<event>
10    2  0.1133532E-006  0.1539498E+03  0.7546771E-02  0.1196200E+00
         -2   -1    0    0    0  501 -0.00000000000E+00  0.00000000000E+00  0.95993403711E+02  0.95993403711E+02  0.00000000000E+00 0.  1.
          2   -1    0    0  503    0  0.00000000000E+00 -0.00000000000E+00 -0.85817158588E+03  0.85817158588E+03  0.00000000000E+00 0. -1.
         23    2    1    2    0    0  0.45727639877E+02 -0.91963231487E+02 -0.44691776444E+02  0.14502975539E+03  0.92130462240E+02 0.  0.
         23    2    1    2    0    0 -0.25714588533E+02  0.12263330489E+03 -0.64113440880E+03  0.66011579395E+03  0.94864976338E+02 0.  0.
        -11    1    3    3    0    0  0.21094152475E+02 -0.32083324541E+02 -0.66430694726E+02  0.76729004842E+02  0.00000000000E+00 0. -1.
         11    1    3    3    0    0  0.24633487401E+02 -0.59879906946E+02  0.21738918282E+02  0.68300750549E+02  0.00000000000E+00 0.  1.
        -11    1    4    4    0    0  0.21008758054E+02  0.88057068509E+01 -0.36023066242E+02  0.42621235195E+02  0.00000000000E+00 0.  1.
         11    1    4    4    0    0 -0.46723346587E+02  0.11382759803E+03 -0.60511134256E+03  0.61749455875E+03  0.00000000000E+00 0. -1.
         21    1    1    2  502  501  0.40888576017E+02 -0.25576614417E+02  0.36251813942E+01  0.48365078248E+02  0.00000000000E+00 0.  1.
         21    1    1    2  503  502 -0.60901627361E+02 -0.50934589810E+01 -0.79977178319E+02  0.10065436201E+03  0.00000000000E+00 0. -1.
<scales pt_clust_5="13000.00000" pt_clust_6="13000.00000" pt_clust_7="13000.00000" pt_clust_8="13000.00000" pt_clust_9="48.22903" pt_clust_10="55.57506"></scales>
<clustering>
<clus scale="   48.229">  1  9  2 -1</clus>
<clus scale="   55.575">  1 10  2 -1</clus>
<clus scale="   92.130">  5  6 -1 -1</clus>
<clus scale="   94.865">  7  8 -1 -1</clus>
<clus scale="  152.280">  1  5  2 -1</clus>
<clus scale="  153.950">  2  5  1 -1</clus>
</clustering>
</event>
<event>
10    2  0.1133532E-006  0.1036876E+03  0.7546771E-02  0.1275799E+00
         -1   -1    0    0    0  501 -0.00000000000E+00  0.00000000000E+00  0.89727191181E+02  0.89727191181E+02  0.00000000000E+00 0.  1.
          1   -1    0    0  503    0  0.00000000000E+00 -0.00000000000E+00 -0.31199471314E+03  0.31199471314E+03  0.00000000000E+00 0. -1.
         23    2    1    2    0    0  0.31492708943E+01 -0.57622912397E+02 -0.56119553481E+02  0.12648296314E+03  0.97561353731E+02 0.  0.
         23    2    1    2    0    0  0.15862009997E+02  0.85866368247E+00 -0.13081304505E+03  0.16026882419E+03  0.91223366442E+02 0.  0.
        -11    1    4    4    0    0  0.33241812966E+02 -0.30826772121E+02 -0.10901208683E+03  0.11806330117E+03  0.00000000000E+00 0. -1.
         11    1    4    4    0    0 -0.17379802969E+02  0.31685435804E+02 -0.21800958224E+02  0.42205523013E+02  0.00000000000E+00 0.  1.
        -13    1    3    3    0    0 -0.41204499611E+02 -0.98602386965E+01 -0.42268084755E+02  0.59846688164E+02  0.00000000000E+00 0.  1.
         13    1    3    3    0    0  0.44353770505E+02 -0.47762673700E+02 -0.13851468726E+02  0.66636274978E+02  0.00000000000E+00 0. -1.
         21    1    1    2  502  501 -0.23877571176E+02  0.77472622390E+01  0.26108950341E+02  0.36219273396E+02  0.00000000000E+00 0.  1.
         21    1    1    2  503  502  0.48662902846E+01  0.49016986475E+02 -0.61443873766E+02  0.78750843599E+02  0.00000000000E+00 0.  1.
<scales pt_clust_5="13000.00000" pt_clust_6="13000.00000" pt_clust_7="13000.00000" pt_clust_8="13000.00000" pt_clust_9="25.10296" pt_clust_10="50.17959"></scales>
<clustering>
<clus scale="   25.103">  1  9  2 -1</clus>
<clus scale="   50.180">  2 10  1 -1</clus>
<clus scale="   91.223">  5  6 -1 -1</clus>
<clus scale="   97.561">  7  8 -1 -1</clus>
<clus scale="   97.748">  2  5  1 -1</clus>
<clus scale="   50.180">  2  5  1 -1</clus>
</clustering>
</event>
<event>
10    2  0.1133532E-006  0.1199812E+03  0.7546771E-02  0.1245454E+00
          1   -1    0    0  503    0  0.00000000000E+00  0.00000000000E+00  0.72533712948E+03  0.72533712948E+03  0.00000000000E+00 0. -1.
         -1   -1    0    0    0  501 -0.00000000000E+00 -0.00000000000E+00 -0.59617142041E+02  0.59617142041E+02  0.00000000000E+00 0.  1.
         23    2    1    2    0    0  0.51787158028E+01 -0.47827413675E+02  0.79885591289E+02  0.13008537037E+03  0.90698485616E+02 0.  0.
         23    2    1    2    0    0  0.48818168480E+02  0.76805406810E+02  0.46572653440E+03  0.48445723398E+03  0.97546515178E+02 0.  0.
        -11    1    4    4    0    0 -0.22001105568E+02  0.54040178090E+02  0.18089515637E+03  0.19007221547E+03  0.00000000000E+00 0.  1.
         11    1    4    4    0    0  0.70819274048E+02  0.22765228720E+02  0.28483137803E+03  0.29438501851E+03  0.00000000000E+00 0. -1.
        -11    1    3    3    0    0 -0.28372037689E+02 -0.89185435091E+01 -0.56820519530E+01  0.30278683184E+02  0.00000000000E+00 0.  1.
         11    1    3    3    0    0  0.33550753492E+02 -0.38908870166E+02  0.85567643242E+02  0.99806687188E+02  0.00000000000E+00 0. -1.
         21    1    1    2  502  501 -0.10087152762E+02 -0.31644115620E+02 -0.86712776994E+01  0.34326254692E+02  0.00000000000E+00 0. -1.
         21    1    1    2  503  502 -0.43909731521E+02  0.26661224851E+01  0.12877913945E+03  0.13608541247E+03  0.00000000000E+00 0.  1.
<scales pt_clust_5="13000.00000" pt_clust_6="13000.00000" pt_clust_7="13000.00000" pt_clust_8="13000.00000" pt_clust_9="33.21296" pt_clust_10="44.87795"></scales>
<clustering>
<clus scale="   33.213">  2  9  1 -1</clus>
<clus scale="   44.878">  1 10  2 -1</clus>
<clus scale="   90.698">  7  8 -1 -1</clus>
<clus scale="   97.547">  5  6 -1 -1</clus>
<clus scale="  114.483">  2  7  1 -1</clus>
<clus scale="   44.878">  1  5  2 -1</clus>
</clustering>
</event>
<event>
10    2  0.1133532E-006  0.1234368E+03  0.7546771E-02  0.1239555E+00
          2   -1    0    0  503    0  0.00000000000E+00  0.00000000000E+00  0.11192935153E+04  0.11192935153E+04  0.00000000000E+00 0. -1.
         -2   -1    0    0    0  501 -0.00000000000E+00 -0.00000000000E+00 -0.94056042301E+02  0.94056042301E+02  0.00000000000E+00 0.  1.
         23    2    1    2    0    0  0.54886076279E+02  0.23009943711E+02  0.59283818937E+02  0.12459323890E+03  0.92016113327E+02 0.  0.
         23    2    1    2    0    0 -0.45388787853E+01 -0.61660891191E+02  0.35457079045E+03  0.36987273838E+03  0.85221653527E+02 0.  0.
        -11    1    3    3    0    0  0.24043343345E+02 -0.32429848481E+02  0.43235849378E+02  0.59153327067E+02  0.00000000000E+00 0. -1.
         11    1    3    3    0    0  0.30842732934E+02  0.55439792192E+02  0.16047969560E+02  0.65439911828E+02  0.00000000000E+00 0.  1.
        -11    1    4    4    0    0 -0.29185552677E+02 -0.74440073257E+01  0.42029594107E+02  0.51707799324E+02  0.00000000000E+00 0.  1.
         11    1    4    4    0    0  0.24646673892E+02 -0.54216883866E+02  0.31254119635E+03  0.31816493905E+03  0.00000000000E+00 0. -1.
         21    1    1    2  502  501  0.46430367194E+02  0.57687751750E+02 -0.22483227411E+02  0.77389606631E+02  0.00000000000E+00 0.  1.
         21    1    1    2  503  502 -0.96777564688E+02 -0.19036804269E+02  0.63386609103E+03  0.64149397370E+03  0.00000000000E+00 0. -1.
<scales pt_clust_5="13000.00000" pt_clust_6="13000.00000" pt_clust_7="13000.00000" pt_clust_8="13000.00000" pt_clust_9="74.05171" pt_clust_10="93.82184"></scales>
<clustering>
<clus scale="   74.052">  2  9  1 -1</clus>
<clus scale="   85.222">  7  8 -1 -1</clus>
<clus scale="   92.016">  5  6 -1 -1</clus>
<clus scale="   93.822">  1 10  2 -1</clus>
<clus scale="  118.458">  1  7  2 -1</clus>
<clus scale="   93.822">  1  5  2 -1</clus>
</clustering>
</event>
<event>
10    2  0.1133532E-006  0.2783352E+03  0.7546771E-02  0.1096651E+00
         -1   -1    0    0    0  501 -0.00000000000E+00  0.00000000000E+00  0.13264366657E+03  0.13264366657E+03  0.00000000000E+00 0.  1.
          1   -1    0    0  503    0  0.00000000000E+00 -0.00000000000E+00 -0.15408746925E+04  0.15408746925E+04  0.00000000000E+00 0. -1.
         23    2    1    2    0    0 -0.20734783580E+03  0.15528493952E+03 -0.32572453805E+03  0.42640651162E+03  0.92841267808E+02 0.  0.
         23    2    1    2    0    0  0.17440138738E+03 -0.22219244544E+03 -0.89775285980E+03  0.94560302873E+03  0.91758181890E+02 0.  0.
        -11    1    4    4    0    0  0.17874479936E+03 -0.18924434618E+03 -0.83439181231E+03  0.87405538858E+03  0.00000000000E+00 0.  1.
         11    1    4    4    0    0 -0.43434119778E+01 -0.32948099262E+02 -0.63361047486E+02  0.71547640150E+02  0.00000000000E+00 0. -1.
        -13    1    3    3    0    0 -0.20752473402E+02  0.46524820470E+02 -0.26630499038E+02  0.57483976473E+02  0.00000000000E+00 0.  1.
         13    1    3    3    0    0 -0.18659536239E+03  0.10876011905E+03 -0.29909403902E+03  0.36892253514E+03  0.00000000000E+00 0. -1.
         21    1    1    2  502  501  0.37181472164E+02  0.33399228773E+02  0.46222065139E+02  0.68076792379E+02  0.00000000000E+00 0.  1.
         21    1    1    2  503  502 -0.42350237514E+01  0.33508277153E+02 -0.23097569317E+03  0.23343202629E+03  0.00000000000E+00 0.  1.
<scales pt_clust_5="13000.00000" pt_clust_6="13000.00000" pt_clust_7="13000.00000" pt_clust_8="13000.00000" pt_clust_9="50.14090" pt_clust_10="33.77484"></scales>
<clustering>
<clus scale="   33.775">  2 10  1 -1</clus>
<clus scale="   50.141">  1  9  2 -1</clus>
<clus scale="   91.758">  5  6 -1 -1</clus>
<clus scale="   92.841">  7  8 -1 -1</clus>
<clus scale="  277.976">  2  5  1 -1</clus>
<clus scale="   33.775">  2  5  1 -1</clus>
</clustering>
</event>
<event>
10    2  0.1133532E-006  0.1297373E+03  0.7546771E-02  0.1241807E+00
          1   -1    0    0  502    0  0.00000000000E+00  0.00000000000E+00  0.51460031111E+03  0.51460031111E+03  0.00000000000E+00 0. -1.
         -1   -1    0    0    0  501 -0.00000000000E+00 -0.00000000000E+00 -0.56909970756E+02  0.56909970756E+02  0.00000000000E+00 0.  1.
         23    2    1    2    0    0  0.61319044155E+02  0.68136498306E+02  0.11210471748E+03  0.17152015655E+03  0.91918925392E+02 0.  0.
         23    2    1    2    0    0 -0.31350441218E+02  0.23292939625E+02  0.15236453663E+03  0.18087249321E+03  0.89300031207E+02 0.  0.
        -13    1    4    4    0    0 -0.38389270105E+02  0.10342265301E+01  0.15277090071E+03  0.15752381974E+03  0.00000000000E+00 0.  1.
         13    1    4    4    0    0  0.70388288872E+01  0.22258713094E+02 -0.40636407119E+00  0.23348673463E+02  0.00000000000E+00 0. -1.
        -13    1    3    3    0    0 -0.23680014687E+01  0.23048335317E+02 -0.11093740627E+02  0.25688602005E+02  0.00000000000E+00 0.  1.
         13    1    3    3    0    0  0.63687045624E+02  0.45088162989E+02  0.12319845811E+03  0.14583155455E+03  0.00000000000E+00 0. -1.
         21    1    1    2  502  503 -0.26741352048E+02 -0.41933880872E+02  0.66545043102E+02  0.83077030736E+02  0.00000000000E+00 0. -1.
         21    1    1    2  503  501 -0.32272508894E+01 -0.49495557058E+02  0.12667604314E+03  0.13604060137E+03  0.00000000000E+00 0. -1.
<scales pt_clust_5="13000.00000" pt_clust_6="13000.00000" pt_clust_7="13000.00000" pt_clust_8="13000.00000" pt_clust_9="99.01194" pt_clust_10="37.64117"></scales>
<clustering>
<clus scale="   37.641">  9 10 -1 -1</clus>
<clus scale="   89.300">  5  6 -1 -1</clus>
<clus scale="   91.919">  7  8 -1 -1</clus>
<clus scale="   97.467">  1  5  2 -1</clus>
<clus scale="   99.012">  1  9  2 -1</clus>
<clus scale="   97.467">  1  5  2 -1</clus>
</clustering>
</event>
<event>
10    2  0.1133532E-006  0.1220256E+03  0.7546771E-02  0.1242026E+00
          2   -1    0    0  503    0  0.00000000000E+00  0.00000000000E+00  0.39394568848E+03  0.39394568848E+03  0.00000000000E+00 0. -1.
         -2   -1    0    0    0  501 -0.00000000000E+00 -0.00000000000E+00 -0.17587013899E+03  0.17587013899E+03  0.00000000000E+00 0.  1.
         23    2    1    2    0    0 -0.11452764468E+02 -0.75814226608E+02  0.69697758002E+02  0.13629571755E+03  0.88542545598E+02 0.  0.
         23    2    1    2    0    0  0.75524567141E+02  0.55657006777E+02  0.15462180954E+03  0.20454518632E+03  0.95546672441E+02 0.  0.
        -13    1    4    4    0    0 -0.22555128966E+02  0.67547580582E+01  0.36284728638E+02  0.43254388580E+02  0.00000000000E+00 0.  1.
         13    1    4    4    0    0  0.98079696107E+02  0.48902248719E+02  0.11833708090E+03  0.16129079774E+03  0.00000000000E+00 0. -1.
        -13    1    3    3    0    0 -0.26309136008E+02 -0.24497148970E+02 -0.12673067864E+02  0.38116762641E+02  0.00000000000E+00 0.  1.
         13    1    3    3    0    0  0.14856371540E+02 -0.51317077638E+02  0.82370825866E+02  0.98178954906E+02  0.00000000000E+00 0. -1.
         21    1    1    2  502  501 -0.43133566300E+02  0.31715470850E+02 -0.11008592402E+03  0.12241440397E+03  0.00000000000E+00 0.  1.
         21    1    1    2  503  502 -0.20938236373E+02 -0.11558251019E+02  0.10384190597E+03  0.10656051963E+03  0.00000000000E+00 0.  1.
<scales pt_clust_5="13000.00000" pt_clust_6="13000.00000" pt_clust_7="13000.00000" pt_clust_8="13000.00000" pt_clust_9="53.75450" pt_clust_10="23.91658"></scales>
<clustering>
<clus scale="   23.917">  1 10  2 -1</clus>
<clus scale="   53.754">  2  9  1 -1</clus>
<clus scale="   88.543">  7  8 -1 -1</clus>
<clus scale="   95.547">  5  6 -1 -1</clus>
<clus scale="  116.623">  2  7  1 -1</clus>
<clus scale="   23.917">  1  5  2 -1</clus>
</clustering>
</event>
<event>
10    2  0.1133532E-006  0.1883736E+03  0.7546771E-02  0.1184694E+00
         -3   -1    0    0    0  501 -0.00000000000E+00  0.00000000000E+00  0.53769293288E+03  0.53769293288E+03  0.00000000000E+00 0.  1.
          3   -1    0    0  503    0  0.00000000000E+00 -0.00000000000E+00 -0.15804252765E+03  0.15804252765E+03  0.00000000000E+00 0. -1.
         23    2    1    2    0    0  0.16089882751E+03 -0.16025048420E+01  0.79402210019E+02  0.20109965365E+03  0.90803959296E+02 0.  0.
         23    2    1    2    0    0 -0.68464462831E+02  0.33206965593E+02  0.75689273486E+02  0.14028079717E+03  0.90331338415E+02 0.  0.
        -13    1    4    4    0    0 -0.19567162866E+02 -0.21671668390E+02  0.57611208852E+02  0.64587819740E+02  0.00000000000E+00 0.  1.
         13    1    4    4    0    0 -0.48897299965E+02  0.54878633983E+02  0.18078064634E+02  0.75692977432E+02  0.00000000000E+00 0. -1.
        -13    1    3    3    0    0  0.77931265862E+02 -0.44810005758E+02  0.50920655871E+02  0.10331569101E+03  0.00000000000E+00 0.  1.
         13    1    3    3    0    0  0.82967561651E+02  0.43207500916E+02  0.28481554148E+02  0.97783962634E+02  0.00000000000E+00 0. -1.
         21    1    1    2  502  501 -0.16598079694E+03 -0.22121867653E+02  0.22466169664E+03  0.28019971434E+03  0.00000000000E+00 0.  1.
         21    1    1    2  503  502  0.73546432254E+02 -0.94825930981E+01 -0.10277492217E+00  0.74155295373E+02  0.00000000000E+00 0. -1.
<scales pt_clust_5="13000.00000" pt_clust_6="13000.00000" pt_clust_7="13000.00000" pt_clust_8="13000.00000" pt_clust_9="165.04317" pt_clust_10="74.15522"></scales>
<clustering>
<clus scale="   74.155">  2 10  1 -1</clus>
<clus scale="   90.331">  5  6 -1 -1</clus>
<clus scale="   90.804">  7  8 -1 -1</clus>
<clus scale="  107.164">  2  5  1 -1</clus>
<clus scale="  165.043">  1  9  2 -1</clus>
<clus scale="   74.155">  2  5  1 -1</clus>
</clustering>
</event>
<event>
10    2  0.1133532E-006  0.9460791E+02  0.7546771E-02  0.1293706E+00
         -2   -1    0    0    0  501 -0.00000000000E+00  0.00000000000E+00  0.40892648776E+02  0.40892648776E+02  0.00000000000E+00 0.  1.
          2   -1    0    0  503    0  0.00000000000E+00 -0.00000000000E+00 -0.64929077790E+03  0.64929077790E+03  0.00000000000E+00 0. -1.
         23    2    1    2    0    0  0.69339193025E+02  0.10136565526E+02 -0.23356144471E+03  0.25972734653E+03  0.89424115476E+02 0.  0.
         23    2    1    2    0    0  0.10689829319E+02 -0.32953441646E+02 -0.27740913500E+03  0.29260932634E+03  0.86395531794E+02 0.  0.
        -11    1    3    3    0    0  0.11852578965E+02 -0.28410468254E+02 -0.24006409356E+02  0.39037751276E+02  0.00000000000E+00 0. -1.
         11    1    3    3    0    0  0.57486614060E+02  0.38547033781E+02 -0.20955503536E+03  0.22068959525E+03  0.00000000000E+00 0.  1.
        -13    1    4    4    0    0  0.40012603026E+02 -0.45524706863E+02 -0.19658650657E+03  0.20571767523E+03  0.00000000000E+00 0.  1.
         13    1    4    4    0    0 -0.29322773707E+02  0.12571265217E+02 -0.80822628432E+02  0.86891651116E+02  0.00000000000E+00 0. -1.
         21    1    1    2  502  501 -0.18533125249E+02  0.28264442267E+02 -0.21796388463E+02  0.40217384030E+02  0.00000000000E+00 0. -1.
         21    1    1    2  503  502 -0.61495897094E+02 -0.54475661481E+01 -0.75631160950E+02  0.97629369777E+02  0.00000000000E+00 0. -1.
<scales pt_clust_5="13000.00000" pt_clust_6="13000.00000" pt_clust_7="13000.00000" pt_clust_8="13000.00000" pt_clust_9="33.79875" pt_clust_10="68.07015"></scales>
<clustering>
<clus scale="   33.799">  1  9  2 -1</clus>
<clus scale="   68.070">  1 10  2 -1</clus>
<clus scale="   86.396">  7  8 -1 -1</clus>
<clus scale="   89.424">  5  6 -1 -1</clus>
<clus scale="   91.751">  2  7  1 -1</clus>
<clus scale="   91.751">  2  5  1 -1</clus>
</clustering>
</event>
<event>
10    2  0.1133532E-006  0.9904189E+02  0.7546771E-02  0.1284040E+00
         -1   -1    0    0    0  501 -0.00000000000E+00  0.00000000000E+00  0.21756435503E+03  0.21756435503E+03  0.00000000000E+00 0.  1.
          1   -1    0    0  503    0  0.00000000000E+00 -0.00000000000E+00 -0.16923575853E+03  0.16923575853E+03  0.00000000000E+00 0. -1.
         23    2    1    2    0    0 -0.14835789586E+02  0.15406634308E+02 -0.27160075782E+02  0.10158603557E+03  0.95522708681E+02 0.  0.
         23    2    1    2    0    0  0.35825643682E+02  0.16935655942E+02 -0.46172786643E+02  0.11049710312E+03  0.92235515844E+02 0.  0.
        -11    1    4    4    0    0  0.64039519300E+01  0.47312042302E+02 -0.48613839672E+02  0.68137694082E+02  0.00000000000E+00 0. -1.
         11    1    4    4    0    0  0.29421691752E+02 -0.30376386360E+02  0.24410530286E+01  0.42359409034E+02  0.00000000000E+00 0.  1.
        -13    1    3    3    0    0  0.27783809750E+02  0.14526534333E+02 -0.45437378604E+02  0.55204308331E+02  0.00000000000E+00 0. -1.
         13    1    3    3    0    0 -0.42619599337E+02  0.88009997492E+00  0.18277302821E+02  0.46381727243E+02  0.00000000000E+00 0.  1.
         21    1    1    2  502  501 -0.12747390928E+02  0.25323362729E+02  0.11216960400E+03  0.11569696943E+03  0.00000000000E+00 0. -1.
         21    1    1    2  503  502 -0.82424631678E+01 -0.57665652979E+02  0.94918549294E+01  0.59020005444E+02  0.00000000000E+00 0.  1.
<scales pt_clust_5="13000.00000" pt_clust_6="13000.00000" pt_clust_7="13000.00000" pt_clust_8="13000.00000" pt_clust_9="28.35081" pt_clust_10="50.84426"></scales>
<clustering>
<clus scale="   28.351">  1  9  2 -1</clus>
<clus scale="   50.844">  1 10  2 -1</clus>
<clus scale="   92.236">  5  6 -1 -1</clus>
<clus scale="   95.523">  7  8 -1 -1</clus>
<clus scale="   95.875">  2  5  1 -1</clus>
<clus scale="   95.875">  2  5  1 -1</clus>
</clustering>
</event>
<event>
10    2  0.1133532E-006  0.1799044E+03  0.7546771E-02  0.1167993E+00
         -1   -1    0    0    0  501 -0.00000000000E+00  0.00000000000E+00  0.45137321139E+03  0.45137321139E+03  0.00000000000E+00 0.  1.
          1   -1    0    0  503    0  0.00000000000E+00 -0.00000000000E+00 -0.13255439770E+03  0.13255439770E+03  0.00000000000E+00 0. -1.
         23    2    1    2    0    0 -0.47812484098E+02  0.15365585949E+03  0.21904691919E+03  0.28688140449E+03  0.91778159956E+02 0.  0.
         23    2    1    2    0    0  0.92468018659E+02 -0.11215865703E+03 -0.14672264394E+01  0.17149647172E+03  0.90988945692E+02 0.  0.
        -11    1    3    3    0    0 -0.40817276531E+02  0.95005720365E+02  0.65592723903E+02  0.12245220453E+03  0.00000000000E+00 0. -1.
         11    1    3    3    0    0 -0.69952075668E+01  0.58650139120E+02  0.15345419528E+03  0.16442919995E+03  0.00000000000E+00 0.  1.
        -13    1    4    4    0    0  0.27349939906E+02 -0.10821538610E+01  0.28270664504E+02  0.39349977654E+02  0.00000000000E+00 0.  1.
         13    1    4    4    0    0  0.65118078753E+02 -0.11107650317E+03 -0.29737890943E+02  0.13214649407E+03  0.00000000000E+00 0. -1.
         21    1    1    2  502  501 -0.43187982029E+02 -0.19470548384E+02  0.87631631235E+02  0.99617301906E+02  0.00000000000E+00 0. -1.
         21    1    1    2  503  502 -0.14675525314E+01 -0.22026654072E+02  0.13607489709E+02  0.25932430974E+02  0.00000000000E+00 0. -1.
<scales pt_clust_5="13000.00000" pt_clust_6="13000.00000" pt_clust_7="13000.00000" pt_clust_8="13000.00000" pt_clust_9="47.87567" pt_clust_10="22.07549"></scales>
<clustering>
<clus scale="   22.075">  2 10  1 -1</clus>
<clus scale="   47.876">  1  9  2 -1</clus>
<clus scale="   90.989">  7  8 -1 -1</clus>
<clus scale="   91.778">  5  6 -1 -1</clus>
<clus scale="  179.503">  2  7  1 -1</clus>
<clus scale="   22.075">  2  5  1 -1</clus>
</clustering>
</event>
<event>
10    2  0.1133532E-006  0.1192287E+03  0.7546771E-02  0.1244535E+00
         -1   -1    0    0    0  501 -0.00000000000E+00  0.00000000000E+00  0.36454037421E+02  0.36454037421E+02  0.00000000000E+00 0.  1.
          1   -1    0    0  503    0  0.00000000000E+00 -0.00000000000E+00 -0.81523037357E+03  0.81523037357E+03  0.00000000000E+00 0. -1.
         23    2    1    2    0    0 -0.69716025169E+02  0.82265799469E+01 -0.12154502078E+03  0.16680357860E+03  0.90123476273E+02 0.  0.
         23    2    1    2    0    0  0.58553290916E+02 -0.25977965969E+02 -0.55128270965E+03  0.56234320110E+03  0.90630608887E+02 0.  0.
        -13    1    4    4    0    0  0.77263461879E+02 -0.40515171441E+02 -0.44014445002E+03  0.44870731947E+03  0.00000000000E+00 0. -1.
         13    1    4    4    0    0 -0.18710170963E+02  0.14537205473E+02 -0.11113825963E+03  0.11363588163E+03  0.00000000000E+00 0.  1.
        -13    1    3    3    0    0 -0.72092598706E+02  0.28921662154E+02 -0.12348247375E+03  0.14588257831E+03  0.00000000000E+00 0.  1.
         13    1    3    3    0    0  0.23765735376E+01 -0.20695082207E+02  0.19374529722E+01  0.20921000295E+02  0.00000000000E+00 0. -1.
         21    1    1    2  502  501 -0.12539804396E+02  0.24599016024E+02 -0.22805851751E+02  0.35811522695E+02  0.00000000000E+00 0.  1.
         21    1    1    2  503  502  0.23702538649E+02 -0.68476300024E+01 -0.83142753969E+02  0.86726108599E+02  0.00000000000E+00 0. -1.
<scales pt_clust_5="13000.00000" pt_clust_6="13000.00000" pt_clust_7="13000.00000" pt_clust_8="13000.00000" pt_clust_9="26.94367" pt_clust_10="24.67185"></scales>
<clustering>
<clus scale="   24.672">  2 10  1 -1</clus>
<clus scale="   26.944">  1  9  2 -1</clus>
<clus scale="   90.123">  7  8 -1 -1</clus>
<clus scale="   90.631">  5  6 -1 -1</clus>
<clus scale="  118.844">  1  7  2 -1</clus>
<clus scale="   24.672">  2  5  1 -1</clus>
</clustering>
</event>
<event>
10    2  0.1133532E-006  0.1195197E+03  0.7546771E-02  0.1245578E+00
          1   -1    0    0  503    0  0.00000000000E+00  0.00000000000E+00  0.41044879417E+03  0.41044879417E+03  0.00000000000E+00 0. -1.
         -1   -1    0    0    0  501 -0.00000000000E+00 -0.00000000000E+00 -0.12701496150E+03  0.12701496150E+03  0.00000000000E+00 0.  1.
         23    2    1    2    0    0 -0.90602568369E+02 -0.34050800525E+02  0.22976229405E+02  0.13429383707E+03  0.90214439783E+02 0.  0.
         23    2    1    2    0    0 -0.29831960376E+02  0.10007278551E+03  0.18330890615E+03  0.23122969860E+03  0.94659971384E+02 0.  0.
        -11    1    3    3    0    0 -0.75948969398E+02 -0.17173123349E+02 -0.24657194436E+02  0.81677043015E+02  0.00000000000E+00 0.  1.
         11    1    3    3    0    0 -0.14653598971E+02 -0.16877677176E+02  0.47633423841E+02  0.52616794054E+02  0.00000000000E+00 0. -1.
        -13    1    4    4    0    0  0.28015447256E+02  0.70474581467E+02  0.93862923593E+02  0.12067220203E+03  0.00000000000E+00 0. -1.
         13    1    4    4    0    0 -0.57847407633E+02  0.29598204045E+02  0.89445982557E+02  0.11055749657E+03  0.00000000000E+00 0.  1.
         21    1    1    2  502  501  0.11323782807E+03 -0.31076193152E+02  0.52830372040E+02  0.12876173227E+03  0.00000000000E+00 0.  1.
         21    1    1    2  503  502  0.71967006715E+01 -0.34945791835E+02  0.24318325077E+02  0.43178487723E+02  0.00000000000E+00 0.  1.
<scales pt_clust_5="13000.00000" pt_clust_6="13000.00000" pt_clust_7="13000.00000" pt_clust_8="13000.00000" pt_clust_9="121.56829" pt_clust_10="35.67914"></scales>
<clustering>
<clus scale="   35.679">  1 10  2 -1</clus>
<clus scale="   90.214">  5  6 -1 -1</clus>
<clus scale="   94.660">  7  8 -1 -1</clus>
<clus scale="  121.568">  2  9  1 -1</clus>
<clus scale="  121.568">  2  5  1 -1</clus>
<clus scale="   35.679">  1  5  2 -1</clus>
</clustering>
</event>
<event>
10    2  0.1133532E-006  0.1011119E+03  0.7546771E-02  0.1278373E+00
         -3   -1    0    0    0  501 -0.00000000000E+00  0.00000000000E+00  0.33514780163E+03  0.33514780163E+03  0.00000000000E+00 0.  1.
          3   -1    0    0  503    0  0.00000000000E+00 -0.00000000000E+00 -0.10866460354E+03  0.10866460354E+03  0.00000000000E+00 0. -1.
         23    2    1    2    0    0 -0.40396870579E+02 -0.17053332441E+02  0.51283142675E+02  0.11319844589E+03  0.90891166395E+02 0.  0.
         23    2    1    2    0    0  0.31396683912E+02  0.24083234192E+02  0.10739362621E+02  0.98935663055E+02  0.90039866642E+02 0.  0.
        -11    1    3    3    0    0 -0.56252343828E+02 -0.38831938659E+02  0.18590584002E+02  0.70836822767E+02  0.00000000000E+00 0. -1.
         11    1    3    3    0    0  0.15855473249E+02  0.21778606218E+02  0.32692558673E+02  0.42361623120E+02  0.00000000000E+00 0.  1.
        -11    1    4    4    0    0  0.28474787882E+02  0.51666409682E+02  0.28990772171E+02  0.65732003662E+02  0.00000000000E+00 0.  1.
         11    1    4    4    0    0  0.29218960296E+01 -0.27583175490E+02 -0.18251409550E+02  0.33203659393E+02  0.00000000000E+00 0. -1.
         21    1    1    2  502  501 -0.83166977781E+01 -0.23700312729E+02  0.19285056959E+03  0.19447934203E+03  0.00000000000E+00 0.  1.
         21    1    1    2  503  502  0.17316884446E+02  0.16670410977E+02 -0.28389876799E+02  0.37198954202E+02  0.00000000000E+00 0.  1.
<scales pt_clust_5="13000.00000" pt_clust_6="13000.00000" pt_clust_7="13000.00000" pt_clust_8="13000.00000" pt_clust_9="24.88705" pt_clust_10="24.03699"></scales>
<clustering>
<clus scale="   24.037">  2 10  1 -1</clus>
<clus scale="   24.887">  1  9  2 -1</clus>
<clus scale="   90.040">  7  8 -1 -1</clus>
<clus scale="   90.891">  5  6 -1 -1</clus>
<clus scale="  100.347">  2  7  1 -1</clus>
<clus scale="   24.037">  2  5  1 -1</clus>
</clustering>
</event>
<event>
10    2  0.1133532E-006  0.1255084E+03  0.7546771E-02  0.1234720E+00
         -2   -1    0    0    0  501 -0.00000000000E+00  0.00000000000E+00  0.14630072417E+03  0.14630072417E+03  0.00000000000E+00 0.  1.
          2   -1    0    0  503    0  0.00000000000E+00 -0.00000000000E+00 -0.25156569254E+03  0.25156569254E+03  0.00000000000E+00 0. -1.
         23    2    1    2    0    0 -0.29872930290E+02  0.97971091001E+02  0.59850998447E+02  0.14886740244E+03  0.89936838155E+02 0.  0.
         23    2    1    2    0    0  0.19400908083E+02 -0.54714338053E+02 -0.56710838228E+02  0.11996243973E+03  0.88344856959E+02 0.  0.
        -11    1    3    3    0    0 -0.19421544290E+02  0.67377897798E+01  0.52924304431E+02  0.56776546154E+02  0.00000000000E+00 0.  1.
         11    1    3    3    0    0 -0.10451386001E+02  0.91233301221E+02  0.69266940162E+01  0.92090856284E+02  0.00000000000E+00 0. -1.
        -13    1    4    4    0    0 -0.95828324949E+01 -0.48655434161E+02  0.66404927983E+01  0.50032770228E+02  0.00000000000E+00 0.  1.
         13    1    4    4    0    0  0.28983740578E+02 -0.60589038914E+01 -0.63351331027E+02  0.69929669505E+02  0.00000000000E+00 0. -1.
         21    1    1    2  502  501 -0.35767019169E+01 -0.28793766092E+02 -0.13479692104E+02  0.31993372151E+02  0.00000000000E+00 0.  1.
         21    1    1    2  503  502  0.14048724124E+02 -0.14462986856E+02 -0.94925436487E+02  0.97043202393E+02  0.00000000000E+00 0.  1.
<scales pt_clust_5="13000.00000" pt_clust_6="13000.00000" pt_clust_7="13000.00000" pt_clust_8="13000.00000" pt_clust_9="30.94491" pt_clust_10="20.16295"></scales>
<clustering>
<clus scale="   20.163">  2 10  1 -1</clus>
<clus scale="   30.945">  2  9  1 -1</clus>
<clus scale="   88.345">  7  8 -1 -1</clus>
<clus scale="   89.937">  5  6 -1 -1</clus>
<clus scale="  124.373">  2  7  1 -1</clus>
<clus scale="   20.163">  2  5  1 -1</clus>
</clustering>
</event>
<event>
10    2  0.1133532E-006  0.1661251E+03  0.7546771E-02  0.1182043E+00
         -1   -1    0    0    0  501 -0.00000000000E+00  0.00000000000E+00  0.41568332866E+03  0.41568332866E+03  0.00000000000E+00 0.  1.
          1   -1    0    0  503    0  0.00000000000E+00 -0.00000000000E+00 -0.18003535294E+03  0.18003535294E+03  0.00000000000E+00 0. -1.
         23    2    1    2    0    0 -0.54284853918E+02  0.13917986797E+03  0.37084368513E+02  0.17893572486E+03  0.91240682969E+02 0.  0.
         23    2    1    2    0    0  0.11598242856E+03 -0.85538359478E+02  0.36261603167E+02  0.17405120707E+03  0.90610066457E+02 0.  0.
        -11    1    4    4    0    0  0.89540848326E+02 -0.10407255192E+02  0.25487510296E+02  0.93677572880E+02  0.00000000000E+00 0. -1.
         11    1    4    4    0    0  0.26441580231E+02 -0.75131104286E+02  0.10774092870E+02  0.80373634194E+02  0.00000000000E+00 0.  1.
        -13    1    3    3    0    0 -0.28591739583E+02  0.75824530114E+02 -0.26813567322E+02  0.85356981741E+02  0.00000000000E+00 0. -1.
         13    1    3    3    0    0 -0.25693114335E+02  0.63355337858E+02  0.63897935835E+02  0.93578743117E+02  0.00000000000E+00 0.  1.
         21    1    1    2  502  501 -0.36437308049E+02 -0.73710386833E+02  0.18555907136E+03  0.20296075362E+03  0.00000000000E+00 0. -1.
         21    1    1    2  503  502 -0.25260266590E+02  0.20068878339E+02 -0.23257067319E+02  0.39770996043E+02  0.00000000000E+00 0. -1.
<scales pt_clust_5="13000.00000" pt_clust_6="13000.00000" pt_clust_7="13000.00000" pt_clust_8="13000.00000" pt_clust_9="81.84736" pt_clust_10="32.26207"></scales>
<clustering>
<clus scale="   32.262">  2 10  1 -1</clus>
<clus scale="   81.847">  1  9  2 -1</clus>
<clus scale="   90.610">  5  6 -1 -1</clus>
<clus scale="   91.241">  7  8 -1 -1</clus>
<clus scale="  165.780">  2  5  1 -1</clus>
<clus scale="   32.262">  2  5  1 -1</clus>
</clustering>
</event>
<event>
10    2  0.1133532E-006  0.2173153E+03  0.7546771E-02  0.1139391E+00
         -1   -1    0    0    0  501 -0.00000000000E+00  0.00000000000E+00  0.26532655291E+03  0.26532655291E+03  0.00000000000E+00 0.  1.
          1   -1    0    0  503    0  0.00000000000E+00 -0.00000000000E+00 -0.67976795069E+03  0.67976795069E+03  0.00000000000E+00 0. -1.
         23    2    1    2    0    0  0.42059571578E+02 -0.28021606491E+03 -0.20634106773E+03  0.36230482637E+03  0.91641150073E+02 0.  0.
         23    2    1    2    0    0 -0.78674804619E+02  0.10646540300E+03 -0.27788123485E+03  0.33239630634E+03  0.12547795371E+03 0.  0.
        -11    1    3    3    0    0 -0.16706663176E+02 -0.24924397585E+02 -0.20111716749E+01  0.30072961293E+02  0.00000000000E+00 0.  1.
         11    1    3    3    0    0  0.58766234754E+02 -0.25529166732E+03 -0.20432989605E+03  0.33223186508E+03  0.00000000000E+00 0. -1.
        -11    1    4    4    0    0 -0.10233906910E+03  0.11424595462E+03 -0.20969801687E+03  0.25980508365E+03  0.00000000000E+00 0. -1.
         11    1    4    4    0    0  0.23664264486E+02 -0.77805516196E+01 -0.68183217977E+02  0.72591222684E+02  0.00000000000E+00 0.  1.
         21    1    1    2  502  501  0.35620766258E+02  0.14807429475E+03  0.12005850527E+03  0.19393009164E+03  0.00000000000E+00 0.  1.
         21    1    1    2  503  502  0.99446678270E+00  0.25676367155E+02 -0.50277600474E+02  0.56463279252E+02  0.00000000000E+00 0. -1.
<scales pt_clust_5="13000.00000" pt_clust_6="13000.00000" pt_clust_7="13000.00000" pt_clust_8="13000.00000" pt_clust_9="153.78454" pt_clust_10="25.69562"></scales>
<clustering>
<clus scale="   25.696">  2 10  1 -1</clus>
<clus scale="   91.641">  5  6 -1 -1</clus>
<clus scale="  125.478">  7  8 -1 -1</clus>
<clus scale="  153.785">  1  9  2 -1</clus>
<clus scale="  199.698">  1  5  2 -1</clus>
<clus scale="   25.696">  2  5  1 -1</clus>
</clustering>
</event>
<event>
10    2  0.1133532E-006  0.3619437E+03  0.7546771E-02  0.1058050E+00
         -1   -1    0    0    0  501 -0.00000000000E+00  0.00000000000E+00  0.31617433483E+03  0.31617433483E+03  0.00000000000E+00 0.  1.
          1   -1    0    0  502    0  0.00000000000E+00 -0.00000000000E+00 -0.65106380546E+03  0.65106380546E+03  0.00000000000E+00 0. -1.
         23    2    1    2    0    0  0.12156139973E+03  0.32247473238E+03  0.32258237630E+02  0.36014173598E+03  0.99470343172E+02 0.  0.
         23    2    1    2    0    0 -0.36061880403E+02 -0.36213608508E+03 -0.26806649626E+03  0.46096980776E+03  0.90501458083E+02 0.  0.
        -11    1    4    4    0    0 -0.33923338403E+02 -0.42439703201E+02 -0.51176513955E+02  0.74638842949E+02  0.00000000000E+00 0.  1.
         11    1    4    4    0    0 -0.21385420005E+01 -0.31969638188E+03 -0.21688998230E+03  0.38633096481E+03  0.00000000000E+00 0. -1.
        -13    1    3    3    0    0  0.12794408368E+03  0.26161047999E+03  0.52022964697E+02  0.29583123676E+03  0.00000000000E+00 0.  1.
         13    1    3    3    0    0 -0.63826839471E+01  0.60864252392E+02 -0.19764727067E+02  0.64310499218E+02  0.00000000000E+00 0. -1.
         21    1    1    2  502  503 -0.38313101815E+01  0.22793895543E+02 -0.14159242450E+02  0.27105806730E+02  0.00000000000E+00 0.  1.
         21    1    1    2  503  501 -0.81668209144E+02  0.16867457157E+02 -0.84921969548E+02  0.11902078981E+03  0.00000000000E+00 0. -1.
<scales pt_clust_5="13000.00000" pt_clust_6="13000.00000" pt_clust_7="13000.00000" pt_clust_8="13000.00000" pt_clust_9="23.11365" pt_clust_10="84.81617"></scales>
<clustering>
<clus scale="   23.114">  2  9  1 -1</clus>
<clus scale="   84.816">  2 10  1 -1</clus>
<clus scale="   90.501">  5  6 -1 -1</clus>
<clus scale="   99.470">  7  8 -1 -1</clus>
<clus scale="  359.582">  2  5  1 -1</clus>
<clus scale="   23.114">  2  5  1 -1</clus>
</clustering>
</event>
<event>
10    2  0.1133532E-006  0.9408389E+02  0.7546771E-02  0.1296739E+00
          1   -1    0    0  503    0  0.00000000000E+00  0.00000000000E+00  0.11285021201E+03  0.11285021201E+03  0.00000000000E+00 0. -1.
         -1   -1    0    0    0  501 -0.00000000000E+00 -0.00000000000E+00 -0.19383445690E+03  0.19383445690E+03  0.00000000000E+00 0.  1.
         23    2    1    2    0    0 -0.30389608726E+02  0.34735528617E+02 -0.66292325356E+02  0.11770801871E+03  0.85617871972E+02 0.  0.
         23    2    1    2    0    0  0.72662443461E+00  0.14031460892E+02 -0.11673682062E+02  0.93485942836E+02  0.91683895954E+02 0.  0.
        -13    1    3    3    0    0 -0.10115201851E+02  0.59077752634E+02 -0.23305604078E+02  0.64309014502E+02  0.00000000000E+00 0.  1.
         13    1    3    3    0    0 -0.20274406875E+02 -0.24342224018E+02 -0.42986721278E+02  0.53399004209E+02  0.00000000000E+00 0. -1.
        -13    1    4    4    0    0  0.26970592940E+02 -0.32230765957E+01  0.30538790039E+02  0.40870757313E+02  0.00000000000E+00 0. -1.
         13    1    4    4    0    0 -0.26243968506E+02  0.17254537488E+02 -0.42212472101E+02  0.52615185524E+02  0.00000000000E+00 0.  1.
         21    1    1    2  502  501  0.50533113816E+01 -0.21012812954E+02 -0.38505383748E+02  0.44155847198E+02  0.00000000000E+00 0. -1.
         21    1    1    2  503  502  0.24609672909E+02 -0.27754176555E+02  0.35487146280E+02  0.51334860164E+02  0.00000000000E+00 0. -1.
<scales pt_clust_5="13000.00000" pt_clust_6="13000.00000" pt_clust_7="13000.00000" pt_clust_8="13000.00000" pt_clust_9="21.61190" pt_clust_10="38.08829"></scales>
<clustering>
<clus scale="   21.612">  2  9  1 -1</clus>
<clus scale="   38.088">  1 10  2 -1</clus>
<clus scale="   85.618">  5  6 -1 -1</clus>
<clus scale="   88.183">  2  5  1 -1</clus>
<clus scale="   91.684">  7  8 -1 -1</clus>
<clus scale="   38.088">  1  5  2 -1</clus>
</clustering>
</event>
<event>
10    2  0.1133532E-006  0.1051598E+03  0.7546771E-02  0.1271602E+00
         -2   -1    0    0    0  501 -0.00000000000E+00  0.00000000000E+00  0.25001530299E+03  0.25001530299E+03  0.00000000000E+00 0.  1.
          2   -1    0    0  503    0  0.00000000000E+00 -0.00000000000E+00 -0.11931011331E+03  0.11931011331E+03  0.00000000000E+00 0. -1.
         23    2    1    2    0    0 -0.15223269778E+02 -0.60957032360E+02  0.13336571520E+03  0.17429450100E+03  0.92976617224E+02 0.  0.
         23    2    1    2    0    0  0.26614441557E+02  0.56908277360E+01 -0.12188417361E+02  0.93767197713E+02  0.88898907920E+02 0.  0.
        -11    1    4    4    0    0  0.96123145421E+01  0.18277310875E+02 -0.47955390346E+02  0.52212796774E+02  0.00000000000E+00 0. -1.
         11    1    4    4    0    0  0.17002127015E+02 -0.12586483139E+02  0.35766972986E+02  0.41554400939E+02  0.00000000000E+00 0.  1.
        -11    1    3    3    0    0  0.29635701347E+02 -0.59621480093E+02  0.89395209000E+02  0.11146523707E+03  0.00000000000E+00 0. -1.
         11    1    3    3    0    0 -0.44858971125E+02 -0.13355522667E+01  0.43970506197E+02  0.62829263926E+02  0.00000000000E+00 0.  1.
         21    1    1    2  502  501  0.14757128541E+01  0.74819512376E+02  0.16908804012E+02  0.76720563174E+02  0.00000000000E+00 0.  1.
         21    1    1    2  503  502 -0.12866884633E+02 -0.19553307753E+02 -0.73809121653E+01  0.24543154415E+02  0.00000000000E+00 0. -1.
<scales pt_clust_5="13000.00000" pt_clust_6="13000.00000" pt_clust_7="13000.00000" pt_clust_8="13000.00000" pt_clust_9="69.19787" pt_clust_10="23.40702"></scales>
<clustering>
<clus scale="   23.407">  2 10  1 -1</clus>
<clus scale="   69.198">  2  9  1 -1</clus>
<clus scale="   88.899">  5  6 -1 -1</clus>
<clus scale="   92.977">  7  8 -1 -1</clus>
<clus scale="  101.572">  2  5  1 -1</clus>
<clus scale="   23.407">  2  5  1 -1</clus>
</clustering>
</event>
<event>
10    2  0.1133532E-006  0.1117118E+03  0.7546771E-02  0.1259804E+00
         -2   -1    0    0    0  501 -0.00000000000E+00  0.00000000000E+00  0.16164768143E+03  0.16164768143E+03  0.00000000000E+00 0.  1.
          2   -1    0    0  503    0  0.00000000000E+00 -0.00000000000E+00 -0.49117451309E+03  0.49117451309E+03  0.00000000000E+00 0. -1.
         23    2    1    2    0    0 -0.16672952977E+02 -0.72294558449E+02 -0.93268867406E+02  0.15425935310E+03  0.97940675146E+02 0.  0.
         23    2    1    2    0    0  0.44787743075E+02  0.17378556840E+02 -0.27307942475E+03  0.29216306695E+03  0.92081101725E+02 0.  0.
        -11    1    4    4    0    0 -0.20779294237E+02  0.11883918079E+02 -0.21679899251E+02  0.32295891526E+02  0.00000000000E+00 0.  1.
         11    1    4    4    0    0  0.65567037312E+02  0.54946387609E+01 -0.25139952550E+03  0.25986717542E+03  0.00000000000E+00 0. -1.
        -13    1    3    3    0    0 -0.77853935333E+01 -0.39828257519E+02  0.13137653998E+02  0.42655602235E+02  0.00000000000E+00 0.  1.
         13    1    3    3    0    0 -0.88875594433E+01 -0.32466300930E+02 -0.10640652140E+03  0.11160375086E+03  0.00000000000E+00 0. -1.
         21    1    1    2  502  501 -0.23424755183E+02  0.35119738066E+02  0.11663213253E+03  0.12403696826E+03  0.00000000000E+00 0.  1.
         21    1    1    2  503  502 -0.46900349153E+01  0.19796263543E+02 -0.79810672027E+02  0.82362806213E+02  0.00000000000E+00 0.  1.
<scales pt_clust_5="13000.00000" pt_clust_6="13000.00000" pt_clust_7="13000.00000" pt_clust_8="13000.00000" pt_clust_9="42.38734" pt_clust_10="20.34425"></scales>
<clustering>
<clus scale="   20.344">  2 10  1 -1</clus>
<clus scale="   42.387">  1  9  2 -1</clus>
<clus scale="   92.081">  5  6 -1 -1</clus>
<clus scale="   97.941">  7  8 -1 -1</clus>
<clus scale="  106.612">  2  5  1 -1</clus>
<clus scale="   20.344">  2  5  1 -1</clus>
</clustering>
</event>
<event>
10    2  0.1133532E-006  0.9378110E+02  0.7546771E-02  0.1297199E+00
          2   -1    0    0  503    0  0.00000000000E+00  0.00000000000E+00  0.15814740601E+03  0.15814740601E+03  0.00000000000E+00 0. -1.
         -2   -1    0    0    0  501 -0.00000000000E+00 -0.00000000000E+00 -0.12962490330E+03  0.12962490330E+03  0.00000000000E+00 0.  1.
         23    2    1    2    0    0  0.17687396412E+02  0.19382013228E+02 -0.43420197878E+02  0.10485024420E+03  0.91759215866E+02 0.  0.
         23    2    1    2    0    0 -0.15963369032E+02 -0.20137217887E+02  0.90595361424E+02  0.12761963473E+03  0.86133123484E+02 0.  0.
        -11    1    4    4    0    0  0.22404693225E+02 -0.68580276432E+01 -0.48233511582E+01  0.23922113996E+02  0.00000000000E+00 0.  1.
         11    1    4    4    0    0 -0.38368062256E+02 -0.13279190243E+02  0.95418712582E+02  0.10369752073E+03  0.00000000000E+00 0. -1.
        -13    1    3    3    0    0  0.33387423519E+02  0.46034651759E+02 -0.73622851689E+01  0.57342065317E+02  0.00000000000E+00 0.  1.
         13    1    3    3    0    0 -0.15700027108E+02 -0.26652638531E+02 -0.36057912709E+02  0.47508178883E+02  0.00000000000E+00 0. -1.
         21    1    1    2  502  501 -0.21670509917E+02 -0.20211638159E+01 -0.25962162399E+02  0.33878163759E+02  0.00000000000E+00 0.  1.
         21    1    1    2  503  502  0.19946482537E+02  0.27763684740E+01  0.73095015613E+01  0.21424266628E+02  0.00000000000E+00 0. -1.
<scales pt_clust_5="13000.00000" pt_clust_6="13000.00000" pt_clust_7="13000.00000" pt_clust_8="13000.00000" pt_clust_9="21.21076" pt_clust_10="20.13878"></scales>
<clustering>
<clus scale="   20.139">  1 10  2 -1</clus>
<clus scale="   21.211">  2  9  1 -1</clus>
<clus scale="   86.133">  5  6 -1 -1</clus>
<clus scale="   88.284">  1  5  2 -1</clus>
<clus scale="   91.759">  7  8 -1 -1</clus>
<clus scale="   20.139">  1  5  2 -1</clus>
</clustering>
</event>
<event>
10    2  0.1133532E-006  0.1637009E+03  0.7546771E-02  0.1194908E+00
          1   -1    0    0  503    0  0.00000000000E+00  0.00000000000E+00  0.97647981848E+03  0.97647981848E+03  0.00000000000E+00 0. -1.
         -1   -1    0    0    0  501 -0.00000000000E+00 -0.00000000000E+00 -0.49643521454E+03  0.49643521454E+03  0.00000000000E+00 0.  1.
         23    2    1    2    0    0  0.58918041870E+02 -0.14240317876E+03 -0.35586975227E+03  0.39837582122E+03  0.91159274726E+02 0.  0.
         23    2    1    2    0    0 -0.97236193017E+02 -0.12265087654E+02  0.28601754675E+03  0.31444801373E+03  0.86407214291E+02 0.  0.
        -11    1    4    4    0    0 -0.39621426316E+02  0.33601705021E+02  0.16293409562E+03  0.17101593937E+03  0.00000000000E+00 0.  1.
         11    1    4    4    0    0 -0.57614766702E+02 -0.45866792675E+02  0.12308345113E+03  0.14343207436E+03  0.00000000000E+00 0. -1.
        -13    1    3    3    0    0 -0.24394511580E+02 -0.23592700586E+02 -0.68768465989E+02  0.76686437071E+02  0.00000000000E+00 0. -1.
         13    1    3    3    0    0  0.83312553450E+02 -0.11881047817E+03 -0.28710128628E+03  0.32168938415E+03  0.00000000000E+00 0.  1.
         21    1    1    2  502  501  0.10812361636E+02  0.25347167401E+02 -0.96476243773E+02  0.10033469825E+03  0.00000000000E+00 0.  1.
         21    1    1    2  503  502  0.27505789511E+02  0.12932109901E+03  0.64637305324E+03  0.65975649982E+03  0.00000000000E+00 0. -1.
<scales pt_clust_5="13000.00000" pt_clust_6="13000.00000" pt_clust_7="13000.00000" pt_clust_8="13000.00000" pt_clust_9="27.55696" pt_clust_10="135.97050"></scales>
<clustering>
<clus scale="   27.557">  2  9  1 -1</clus>
<clus scale="   86.407">  5  6 -1 -1</clus>
<clus scale="   91.159">  7  8 -1 -1</clus>
<clus scale="  130.289">  1  5  2 -1</clus>
<clus scale="  135.971">  1 10  2 -1</clus>
<clus scale="  130.289">  1  5  2 -1</clus>
</clustering>
</event>
<event>
10    2  0.1133532E-006  0.1114535E+03  0.7546771E-02  0.1261830E+00
          1   -1    0    0  503    0  0.00000000000E+00  0.00000000000E+00  0.53602841346E+02  0.53602841346E+02  0.00000000000E+00 0. -1.
         -1   -1    0    0    0  501 -0.00000000000E+00 -0.00000000000E+00 -0.49278236060E+03  0.49278236060E+03  0.00000000000E+00 0.  1.
         23    2    1    2    0    0  0.12452108550E+02  0.41230758773E+02 -0.17549510073E+03  0.20517002996E+03  0.97165736425E+02 0.  0.
         23    2    1    2    0    0 -0.18040185504E+02 -0.62996348529E+02 -0.19838416213E+03  0.22652536876E+03  0.87541297022E+02 0.  0.
        -11    1    3    3    0    0  0.30647143277E+01 -0.23204799594E+02 -0.11128761658E+03  0.11372241997E+03  0.00000000000E+00 0.  1.
         11    1    3    3    0    0  0.93873942226E+01  0.64435558367E+02 -0.64207484150E+02  0.91447609992E+02  0.00000000000E+00 0. -1.
        -11    1    4    4    0    0  0.31378857026E+01 -0.63077788303E+02 -0.19513323322E+03  0.20509907950E+03  0.00000000000E+00 0.  1.
         11    1    4    4    0    0 -0.21178071207E+02  0.81439773545E-01 -0.32509289078E+01  0.21426289255E+02  0.00000000000E+00 0. -1.
         21    1    1    2  502  501  0.12685535695E+02  0.44169897021E+02 -0.76041899452E+02  0.88849721952E+02  0.00000000000E+00 0. -1.
         21    1    1    2  503  502 -0.70974587416E+01 -0.22404307264E+02  0.10741643067E+02  0.25840081276E+02  0.00000000000E+00 0.  1.
<scales pt_clust_5="13000.00000" pt_clust_6="13000.00000" pt_clust_7="13000.00000" pt_clust_8="13000.00000" pt_clust_9="41.69509" pt_clust_10="23.50164"></scales>
<clustering>
<clus scale="   23.502">  1 10  2 -1</clus>
<clus scale="   41.695">  1  9  2 -1</clus>
<clus scale="   87.541">  7  8 -1 -1</clus>
<clus scale="   97.166">  5  6 -1 -1</clus>
<clus scale="  103.171">  1  7  2 -1</clus>
<clus scale="   23.502">  1  5  2 -1</clus>
</clustering>
</event>
<event>
10    2  0.1133532E-006  0.9184764E+02  0.7546771E-02  0.1298800E+00
          3   -1    0    0  503    0  0.00000000000E+00  0.00000000000E+00  0.60225374603E+03  0.60225374603E+03  0.00000000000E+00 0. -1.
         -3   -1    0    0    0  501 -0.00000000000E+00 -0.00000000000E+00 -0.55801626231E+02  0.55801626231E+02  0.00000000000E+00 0.  1.
         23    2    1    2    0    0  0.69742940082E+02  0.30414942530E+02  0.12909423112E+03  0.17298692338E+03  0.86429212264E+02 0.  0.
         23    2    1    2    0    0  0.11771494858E+02  0.36913442127E+02  0.25373692008E+03  0.27104538009E+03  0.87074698719E+02 0.  0.
        -11    1    3    3    0    0  0.52988990698E+02  0.10183922753E+02  0.13558646826E+03  0.14592887238E+03  0.00000000000E+00 0. -1.
         11    1    3    3    0    0  0.16753949384E+02  0.20231019777E+02 -0.64922371399E+01  0.27058051006E+02  0.00000000000E+00 0.  1.
        -13    1    4    4    0    0  0.38925938063E+02  0.30432592651E+01  0.18972835532E+03  0.19370425626E+03  0.00000000000E+00 0. -1.
         13    1    4    4    0    0 -0.27154443205E+02  0.33870182862E+02  0.64008564756E+02  0.77341123828E+02  0.00000000000E+00 0.  1.
         21    1    1    2  502  501 -0.39797054597E+02 -0.23808986611E+02  0.79042879788E+01  0.47044140618E+02  0.00000000000E+00 0.  1.
         21    1    1    2  503  502 -0.41717380343E+02 -0.43519398046E+02  0.15571668062E+03  0.16697892817E+03  0.00000000000E+00 0.  1.
<scales pt_clust_5="13000.00000" pt_clust_6="13000.00000" pt_clust_7="13000.00000" pt_clust_8="13000.00000" pt_clust_9="46.37535" pt_clust_10="67.26344"></scales>
<clustering>
<clus scale="   46.375">  2  9  1 -1</clus>
<clus scale="   67.263">  1 10  2 -1</clus>
<clus scale="   86.429">  5  6 -1 -1</clus>
<clus scale="   87.075">  7  8 -1 -1</clus>
<clus scale="   91.236">  2  5  1 -1</clus>
<clus scale="   67.263">  1  5  2 -1</clus>
</clustering>
</event>
<event>
10    2  0.1133532E-006  0.1123113E+03  0.7546771E-02  0.1257304E+00
          1   -1    0    0  503    0  0.00000000000E+00  0.00000000000E+00  0.19831159445E+03  0.19831159445E+03  0.00000000000E+00 0. -1.
         -1   -1    0    0    0  501 -0.00000000000E+00 -0.00000000000E+00 -0.15275783170E+03  0.15275783170E+03  0.00000000000E+00 0.  1.
         23    2    1    2    0    0  0.39295467082E+02 -0.46077689785E+02  0.17270450464E+01  0.10772187925E+03  0.89071506977E+02 0.  0.
         23    2    1    2    0    0 -0.12246014095E+02  0.79788117109E+02  0.81405829761E+02  0.14677847374E+03  0.91656438627E+02 0.  0.
        -11    1    4    4    0    0 -0.37949736009E+02  0.84002747248E+02  0.77524866396E+02  0.12044396589E+03  0.00000000000E+00 0. -1.
         11    1    4    4    0    0  0.25703721914E+02 -0.42146301390E+01  0.38809633647E+01  0.26334507857E+02  0.00000000000E+00 0.  1.
        -11    1    3    3    0    0  0.24540497067E+02  0.23963545520E+02 -0.87045178836E+01  0.35387231338E+02  0.00000000000E+00 0. -1.
         11    1    3    3    0    0  0.14754970015E+02 -0.70041235305E+02  0.10431562930E+02  0.72334647910E+02  0.00000000000E+00 0.  1.
         21    1    1    2  502  501 -0.36802202639E+02 -0.15232988722E+02 -0.55996434249E+02  0.68717150065E+02  0.00000000000E+00 0.  1.
         21    1    1    2  503  502  0.97527496525E+01 -0.18477438603E+02  0.18417322197E+02  0.27851923094E+02  0.00000000000E+00 0.  1.
<scales pt_clust_5="13000.00000" pt_clust_6="13000.00000" pt_clust_7="13000.00000" pt_clust_8="13000.00000" pt_clust_9="39.76678" pt_clust_10="20.89334"></scales>
<clustering>
<clus scale="   20.893">  1 10  2 -1</clus>
<clus scale="   39.767">  2  9  1 -1</clus>
<clus scale="   89.072">  7  8 -1 -1</clus>
<clus scale="   91.656">  5  6 -1 -1</clus>
<clus scale="  110.212">  2  7  1 -1</clus>
<clus scale="   20.893">  1  5  2 -1</clus>
</clustering>
</event>
<event>
10    2  0.1133532E-006  0.9841305E+02  0.7546771E-02  0.1284153E+00
         -2   -1    0    0    0  501 -0.00000000000E+00  0.00000000000E+00  0.21609563481E+02  0.21609563481E+02  0.00000000000E+00 0.  1.
          2   -1    0    0  503    0  0.00000000000E+00 -0.00000000000E+00 -0.72421374328E+03  0.72421374328E+03  0.00000000000E+00 0. -1.
         23    2    1    2    0    0  0.81237232218E+01 -0.40982482875E+02 -0.24373472949E+03  0.26326733515E+03  0.90318949381E+02 0.  0.
         23    2    1    2    0    0 -0.12679931974E+02  0.31090054189E+02 -0.28046829445E+03  0.29685527511E+03  0.91286461330E+02 0.  0.
        -11    1    3    3    0    0 -0.25593658893E+02  0.15616280470E+02 -0.11247018697E+03  0.11639779443E+03  0.00000000000E+00 0.  1.
         11    1    3    3    0    0  0.33717382115E+02 -0.56598763344E+02 -0.13126454252E+03  0.14686954072E+03  0.00000000000E+00 0. -1.
        -13    1    4    4    0    0 -0.48065327228E+02  0.23193302361E+01 -0.10407069094E+03  0.11465759324E+03  0.00000000000E+00 0.  1.
         13    1    4    4    0    0  0.35385395254E+02  0.28770723953E+02 -0.17639760351E+03  0.18219768187E+03  0.00000000000E+00 0. -1.
         21    1    1    2  502  501 -0.19904541872E+02  0.84623267602E+01 -0.43364840996E+02  0.48459376760E+02  0.00000000000E+00 0.  1.
         21    1    1    2  503  502  0.24460750625E+02  0.14301019253E+01 -0.13503631486E+03  0.13724131974E+03  0.00000000000E+00 0.  1.
<scales pt_clust_5="13000.00000" pt_clust_6="13000.00000" pt_clust_7="13000.00000" pt_clust_8="13000.00000" pt_clust_9="21.62873" pt_clust_10="23.38844"></scales>
<clustering>
<clus scale="   21.629">  1  9  2 -1</clus>
<clus scale="   23.388">  2 10  1 -1</clus>
<clus scale="   90.319">  5  6 -1 -1</clus>
<clus scale="   91.286">  7  8 -1 -1</clus>
<clus scale="   97.516">  1  5  2 -1</clus>
<clus scale="   23.388">  2  5  1 -1</clus>
</clustering>
</event>
<event>
10    2  0.1133532E-006  0.9050422E+02  0.7546771E-02  0.1302810E+00
         -3   -1    0    0    0  501 -0.00000000000E+00  0.00000000000E+00  0.32755489716E+03  0.32755489716E+03  0.00000000000E+00 0.  1.
          3   -1    0    0  503    0  0.00000000000E+00 -0.00000000000E+00 -0.74465562140E+02  0.74465562140E+02  0.00000000000E+00 0. -1.
         23    2    1    2    0    0 -0.41354696454E+01  0.85443148131E+00  0.67817775091E+02  0.11304114816E+03  0.90339462017E+02 0.  0.
         23    2    1    2    0    0 -0.11778965636E+02 -0.67160289975E+01  0.23374698042E+02  0.92440836285E+02  0.88402955989E+02 0.  0.
        -11    1    3    3    0    0 -0.41467106973E+02  0.14065367978E+02  0.57211373872E+02  0.72045102800E+02  0.00000000000E+00 0.  1.
         11    1    3    3    0    0  0.37331637328E+02 -0.13210936497E+02  0.10606401219E+02  0.40996045364E+02  0.00000000000E+00 0. -1.
        -13    1    4    4    0    0 -0.44228891161E+02 -0.23024090004E+02  0.11766636811E+01  0.49876728754E+02  0.00000000000E+00 0.  1.
         13    1    4    4    0    0  0.32449925525E+02  0.16308061007E+02  0.22198034361E+02  0.42564107530E+02  0.00000000000E+00 0. -1.
         21    1    1    2  502  501 -0.21439428500E+02  0.11149264008E+02  0.15658666088E+03  0.15844032803E+03  0.00000000000E+00 0.  1.
         21    1    1    2  503  502  0.37353863782E+02 -0.52876664916E+01  0.53102010115E+01  0.38098146820E+02  0.00000000000E+00 0.  1.
<scales pt_clust_5="13000.00000" pt_clust_6="13000.00000" pt_clust_7="13000.00000" pt_clust_8="13000.00000" pt_clust_9="24.16516" pt_clust_10="34.83237"></scales>
<clustering>
<clus scale="   24.165">  1  9  2 -1</clus>
<clus scale="   34.832">  2 10  1 -1</clus>
<clus scale="   88.403">  7  8 -1 -1</clus>
<clus scale="   88.571">  2  7  1 -1</clus>
<clus scale="   90.339">  5  6 -1 -1</clus>
<clus scale="   34.832">  2  5  1 -1</clus>
</clustering>
</event>
<event>
10    2  0.1133532E-006  0.1300531E+03  0.7546771E-02  0.1228685E+00
          1   -1    0    0  503    0  0.00000000000E+00  0.00000000000E+00  0.90063994815E+02  0.90063994815E+02  0.00000000000E+00 0. -1.
         -1   -1    0    0    0  501 -0.00000000000E+00 -0.00000000000E+00 -0.45776234095E+03  0.45776234095E+03  0.00000000000E+00 0.  1.
         23    2    1    2    0    0 -0.47009508006E+02 -0.48497932321E+02 -0.14520896600E+03  0.18133273958E+03  0.85052779810E+02 0.  0.
         23    2    1    2    0    0  0.12336505312E+03  0.51630469707E+02 -0.17394500579E+03  0.23720800520E+03  0.90145055088E+02 0.  0.
        -11    1    3    3    0    0 -0.14399690095E+02  0.24630550512E+02 -0.37169843564E+02  0.46857361896E+02  0.00000000000E+00 0.  1.
         11    1    3    3    0    0 -0.32609817912E+02 -0.73128482833E+02 -0.10803912244E+03  0.13447537768E+03  0.00000000000E+00 0. -1.
        -13    1    4    4    0    0  0.62428048804E+02  0.73541123941E+02 -0.10715226619E+03  0.14417755143E+03  0.00000000000E+00 0.  1.
         13    1    4    4    0    0  0.60937004318E+02 -0.21910654234E+02 -0.66792739599E+02  0.93030453763E+02  0.00000000000E+00 0. -1.
         21    1    1    2  502  501 -0.13207001231E+02 -0.16724761309E+02 -0.60009587782E+02  0.63681183627E+02  0.00000000000E+00 0.  1.
         21    1    1    2  503  502 -0.63148543884E+02  0.13592223923E+02  0.11465213440E+02  0.65604407360E+02  0.00000000000E+00 0. -1.
<scales pt_clust_5="13000.00000" pt_clust_6="13000.00000" pt_clust_7="13000.00000" pt_clust_8="13000.00000" pt_clust_9="21.31062" pt_clust_10="65.25005"></scales>
<clustering>
<clus scale="   21.311">  2  9  1 -1</clus>
<clus scale="   65.250">  1 10  2 -1</clus>
<clus scale="   85.053">  5  6 -1 -1</clus>
<clus scale="   90.145">  7  8 -1 -1</clus>
<clus scale="  126.577">  2  5  1 -1</clus>
<clus scale="   65.250">  1  5  2 -1</clus>
</clustering>
</event>
<event>
10    2  0.1133532E-006  0.1176807E+03  0.7546771E-02  0.1247610E+00
          2   -1    0    0  503    0  0.00000000000E+00  0.00000000000E+00  0.79314647853E+03  0.79314647853E+03  0.00000000000E+00 0. -1.
         -2   -1    0    0    0  501 -0.00000000000E+00 -0.00000000000E+00 -0.58413133765E+02  0.58413133765E+02  0.00000000000E+00 0.  1.
         23    2    1    2    0    0  0.33026259231E+02 -0.11217699468E+03  0.18544315250E+03  0.23671049469E+03  0.89265242680E+02 0.  0.
         23    2    1    2    0    0  0.42431889650E+02  0.21715748836E+02  0.32994088339E+03  0.34561698846E+03  0.91203493219E+02 0.  0.
        -11    1    3    3    0    0  0.29945991314E+00 -0.10936411553E+03  0.11346189737E+03  0.15758871025E+03  0.00000000000E+00 0.  1.
         11    1    3    3    0    0  0.32726799318E+02 -0.28128791505E+01  0.71981255135E+02  0.79121784443E+02  0.00000000000E+00 0. -1.
        -13    1    4    4    0    0  0.47885040702E+02  0.52645510353E+02  0.21562910499E+03  0.22706923570E+03  0.00000000000E+00 0. -1.
         13    1    4    4    0    0 -0.54531510513E+01 -0.30929761517E+02  0.11431177840E+03  0.11854775276E+03  0.00000000000E+00 0.  1.
         21    1    1    2  502  501 -0.61459324833E+02  0.10293989561E+02  0.45124147711E+02  0.76937660067E+02  0.00000000000E+00 0.  1.
         21    1    1    2  503  502 -0.13998824049E+02  0.80167256287E+02  0.17422516117E+03  0.19229446908E+03  0.00000000000E+00 0. -1.
<scales pt_clust_5="13000.00000" pt_clust_6="13000.00000" pt_clust_7="13000.00000" pt_clust_8="13000.00000" pt_clust_9="62.31545" pt_clust_10="86.68754"></scales>
<clustering>
<clus scale="   62.315">  2  9  1 -1</clus>
<clus scale="   86.688">  1 10  2 -1</clus>
<clus scale="   89.265">  5  6 -1 -1</clus>
<clus scale="   91.203">  7  8 -1 -1</clus>
<clus scale="  116.185">  2  5  1 -1</clus>
<clus scale="   86.688">  1  5  2 -1</clus>
</clustering>
</event>
<event>
10    2  0.1133532E-006  0.1569189E+03  0.7546771E-02  0.1194307E+00
          1   -1    0    0  503    0  0.00000000000E+00  0.00000000000E+00  0.31941248429E+03  0.31941248429E+03  0.00000000000E+00 0. -1.
         -1   -1    0    0    0  501 -0.00000000000E+00 -0.00000000000E+00 -0.36799531267E+03  0.36799531267E+03  0.00000000000E+00 0.  1.
         23    2    1    2    0    0  0.17274449637E+01 -0.92165670657E+02 -0.65618346120E+02  0.14523908409E+03  0.91055638403E+02 0.  0.
         23    2    1    2    0    0 -0.67817008493E+02  0.16330635476E+03 -0.13681993683E+03  0.23689902233E+03  0.78315640346E+02 0.  0.
        -11    1    4    4    0    0  0.74218481376E+01  0.77949573749E+02 -0.69468778885E+02  0.10467631593E+03  0.00000000000E+00 0.  1.
         11    1    4    4    0    0 -0.75238856631E+02  0.85356781014E+02 -0.67351157942E+02  0.13222270640E+03  0.00000000000E+00 0. -1.
        -13    1    3    3    0    0  0.18823924280E+02 -0.69059800164E+01  0.16248909520E+02  0.25808133328E+02  0.00000000000E+00 0.  1.
         13    1    3    3    0    0 -0.17096479316E+02 -0.85259690640E+02 -0.81867255640E+02  0.11943095076E+03  0.00000000000E+00 0. -1.
         21    1    1    2  502  501 -0.34696744789E+02 -0.60068366146E+01 -0.54465889803E+02  0.64857376890E+02  0.00000000000E+00 0.  1.
         21    1    1    2  503  502  0.10078630832E+03 -0.65133847492E+02  0.20832134437E+03  0.24041231364E+03  0.00000000000E+00 0. -1.
<scales pt_clust_5="13000.00000" pt_clust_6="13000.00000" pt_clust_7="13000.00000" pt_clust_8="13000.00000" pt_clust_9="35.21287" pt_clust_10="118.66094"></scales>
<clustering>
<clus scale="   35.213">  2  9  1 -1</clus>
<clus scale="   78.316">  5  6 -1 -1</clus>
<clus scale="   91.056">  7  8 -1 -1</clus>
<clus scale="  118.661">  1 10  2 -1</clus>
<clus scale="  149.886">  1  5  2 -1</clus>
<clus scale="  118.661">  1  5  2 -1</clus>
</clustering>
</event>
<event>
10    2  0.1133532E-006  0.2697304E+03  0.7546771E-02  0.1101514E+00
         -1   -1    0    0    0  501 -0.00000000000E+00  0.00000000000E+00  0.24979215713E+03  0.24979215713E+03  0.00000000000E+00 0.  1.
          1   -1    0    0  503    0  0.00000000000E+00 -0.00000000000E+00 -0.63811513251E+03  0.63811513251E+03  0.00000000000E+00 0. -1.
         23    2    1    2    0    0  0.16580008994E+03 -0.38052600203E+02  0.35967245627E+02  0.19657640722E+03  0.91711345594E+02 0.  0.
         23    2    1    2    0    0 -0.26355328843E+03  0.13288794232E+03 -0.39027046086E+03  0.49753297509E+03  0.90047141134E+02 0.  0.
        -11    1    4    4    0    0 -0.64185660740E+02 -0.48003276355E+01 -0.60613255438E+02  0.88412719248E+02  0.00000000000E+00 0.  1.
         11    1    4    4    0    0 -0.19936762769E+03  0.13768826995E+03 -0.32965720542E+03  0.40912025584E+03  0.00000000000E+00 0. -1.
        -13    1    3    3    0    0  0.16111040312E+03 -0.15178452747E+02  0.10707536831E+02  0.16217767653E+03  0.00000000000E+00 0.  1.
         13    1    3    3    0    0  0.46896868225E+01 -0.22874147456E+02  0.25259708796E+02  0.34398730686E+02  0.00000000000E+00 0. -1.
         21    1    1    2  502  501  0.10461182486E+03 -0.75672813625E+02  0.24873869016E+02  0.13148656959E+03  0.00000000000E+00 0.  1.
         21    1    1    2  503  502 -0.68586263754E+01 -0.19162528491E+02 -0.58893629165E+02  0.62311337733E+02  0.00000000000E+00 0.  1.
<scales pt_clust_5="13000.00000" pt_clust_6="13000.00000" pt_clust_7="13000.00000" pt_clust_8="13000.00000" pt_clust_9="129.64867" pt_clust_10="20.35297"></scales>
<clustering>
<clus scale="   20.353">  2 10  1 -1</clus>
<clus scale="   90.047">  5  6 -1 -1</clus>
<clus scale="   91.711">  7  8 -1 -1</clus>
<clus scale="  129.649">  1  9  2 -1</clus>
<clus scale="  269.169">  2  5  1 -1</clus>
<clus scale="   20.353">  2  5  1 -1</clus>
</clustering>
</event>
<event>
10    2  0.1133532E-006  0.9731293E+02  0.7546771E-02  0.1286151E+00
          2   -1    0    0  502    0  0.00000000000E+00  0.00000000000E+00  0.30652226020E+03  0.30652226020E+03  0.00000000000E+00 0. -1.
         -2   -1    0    0    0  501 -0.00000000000E+00 -0.00000000000E+00 -0.64298100550E+02  0.64298100550E+02  0.00000000000E+00 0.  1.
         23    2    1    2    0    0  0.13362597794E+02  0.12452212615E+02  0.29507553109E+02  0.10026271323E+03  0.94065399351E+02 0.  0.
         23    2    1    2    0    0 -0.26563317069E+02 -0.23054350016E+02  0.98711214991E+02  0.14094380100E+03  0.94255706499E+02 0.  0.
        -13    1    4    4    0    0 -0.45930495579E+02 -0.48504274208E+02  0.53598081774E+02  0.85644786242E+02  0.00000000000E+00 0.  1.
         13    1    4    4    0    0  0.19367178510E+02  0.25449924192E+02  0.45113133216E+02  0.55299014760E+02  0.00000000000E+00 0. -1.
        -13    1    3    3    0    0  0.48010765127E+02  0.30246844115E+02  0.20030786904E+02  0.60175888618E+02  0.00000000000E+00 0. -1.
         13    1    3    3    0    0 -0.34648167333E+02 -0.17794631501E+02  0.94767662052E+01  0.40086824612E+02  0.00000000000E+00 0.  1.
         21    1    1    2  502  503  0.50872210503E+01 -0.22255618968E+02  0.22515728674E+02  0.32064784911E+02  0.00000000000E+00 0.  1.
         21    1    1    2  503  501  0.81134982247E+01  0.32857756369E+02  0.91489662875E+02  0.97549061605E+02  0.00000000000E+00 0. -1.
<scales pt_clust_5="13000.00000" pt_clust_6="13000.00000" pt_clust_7="13000.00000" pt_clust_8="13000.00000" pt_clust_9="22.82964" pt_clust_10="27.16720"></scales>
<clustering>
<clus scale="   22.830">  1  9  2 -1</clus>
<clus scale="   27.167">  1 10  2 -1</clus>
<clus scale="   94.065">  7  8 -1 -1</clus>
<clus scale="   94.256">  5  6 -1 -1</clus>
<clus scale="   97.129">  2  7  1 -1</clus>
<clus scale="   22.830">  1  5  2 -1</clus>
</clustering>
</event>
<event>
10    2  0.1133532E-006  0.1426719E+03  0.7546771E-02  0.1231567E+00
         -1   -1    0    0    0  501 -0.00000000000E+00  0.00000000000E+00  0.74467327510E+02  0.74467327510E+02  0.00000000000E+00 0.  1.
          1   -1    0    0  503    0  0.00000000000E+00 -0.00000000000E+00 -0.55874758910E+03  0.55874758910E+03  0.00000000000E+00 0. -1.
         23    2    1    2    0    0  0.66962398960E+02 -0.10864978959E+03 -0.10564802906E+03  0.19018418473E+03  0.93379753834E+02 0.  0.
         23    2    1    2    0    0 -0.10229544511E+02  0.97828337078E+01 -0.21786889409E+03  0.23487364905E+03  0.86593467342E+02 0.  0.
        -13    1    4    4    0    0 -0.82375391212E+01  0.42530577266E+02 -0.17822639085E+03  0.18341579389E+03  0.00000000000E+00 0. -1.
         13    1    4    4    0    0 -0.19920053896E+01 -0.32747743558E+02 -0.39642503241E+02  0.51457855152E+02  0.00000000000E+00 0.  1.
        -13    1    3    3    0    0  0.10993595621E+02 -0.81310500330E+02 -0.20301710473E+02  0.84524647629E+02  0.00000000000E+00 0.  1.
         13    1    3    3    0    0  0.55968803339E+02 -0.27339289256E+02 -0.85346318591E+02  0.10565953710E+03  0.00000000000E+00 0. -1.
         21    1    1    2  502  501 -0.33576733900E+02  0.88725399479E+02 -0.81857378983E+02  0.12530053498E+03  0.00000000000E+00 0. -1.
         21    1    1    2  503  502 -0.23156120549E+02  0.10141556400E+02 -0.78905959448E+02  0.82856547849E+02  0.00000000000E+00 0. -1.
<scales pt_clust_5="13000.00000" pt_clust_6="13000.00000" pt_clust_7="13000.00000" pt_clust_8="13000.00000" pt_clust_9="107.86797" pt_clust_10="25.27958"></scales>
<clustering>
<clus scale="   25.280">  2 10  1 -1</clus>
<clus scale="   86.593">  5  6 -1 -1</clus>
<clus scale="   90.336">  2  5  1 -1</clus>
<clus scale="   93.380">  7  8 -1 -1</clus>
<clus scale="  107.868">  1  9  2 -1</clus>
<clus scale="   25.280">  2  5  1 -1</clus>
</clustering>
</event>
<event>
10    2  0.1133532E-006  0.1021260E+03  0.7546771E-02  0.1276315E+00
         -2   -1    0    0    0  501 -0.00000000000E+00  0.00000000000E+00  0.38528710843E+03  0.38528710843E+03  0.00000000000E+00 0.  1.
          2   -1    0    0  503    0  0.00000000000E+00 -0.00000000000E+00 -0.17339636649E+03  0.17339636649E+03  0.00000000000E+00 0. -1.
         23    2    1    2    0    0  0.97334540885E+00  0.59735668380E+02  0.26529774921E+03  0.28659915659E+03  0.90481397767E+02 0.  0.
         23    2    1    2    0    0 -0.12426001976E+02 -0.40564271945E+02 -0.10280902943E+03  0.14396379761E+03  0.91411229110E+02 0.  0.
        -11    1    3    3    0    0  0.25950921791E+02 -0.24478398543E+00  0.19782685142E+02  0.32632267657E+02  0.00000000000E+00 0. -1.
         11    1    3    3    0    0 -0.24977576382E+02  0.59980452365E+02  0.24551506407E+03  0.25396688893E+03  0.00000000000E+00 0.  1.
        -11    1    4    4    0    0 -0.19146486600E+02  0.22000174195E+02 -0.81213486218E+01  0.30274608456E+02  0.00000000000E+00 0.  1.
         11    1    4    4    0    0  0.67204846244E+01 -0.62564446140E+02 -0.94687680810E+02  0.11368918916E+03  0.00000000000E+00 0. -1.
         21    1    1    2  502  501 -0.20050796085E+02 -0.18090098798E+02  0.79850945830E+02  0.84293888557E+02  0.00000000000E+00 0. -1.
         21    1    1    2  503  502  0.31503452651E+02 -0.10812976374E+01 -0.30448923675E+02  0.43826632160E+02  0.00000000000E+00 0. -1.
<scales pt_clust_5="13000.00000" pt_clust_6="13000.00000" pt_clust_7="13000.00000" pt_clust_8="13000.00000" pt_clust_9="27.00530" pt_clust_10="31.09639"></scales>
<clustering>
<clus scale="   27.005">  1  9  2 -1</clus>
<clus scale="   31.096">  2 10  1 -1</clus>
<clus scale="   90.481">  5  6 -1 -1</clus>
<clus scale="   91.411">  7  8 -1 -1</clus>
<clus scale="  101.295">  1  5  2 -1</clus>
<clus scale="   31.096">  2  5  1 -1</clus>
</clustering>
</event>
<event>
10    2  0.1133532E-006  0.1118144E+03  0.7546771E-02  0.1261088E+00
          1   -1    0    0  503    0  0.00000000000E+00  0.00000000000E+00  0.33446238736E+03  0.33446238736E+03  0.00000000000E+00 0. -1.
         -1   -1    0    0    0  501 -0.00000000000E+00 -0.00000000000E+00 -0.24942192436E+03  0.24942192436E+03  0.00000000000E+00 0.  1.
         23    2    1    2    0    0  0.13316439999E+02  0.43205997079E+02 -0.10883242320E+03  0.14936390022E+03  0.91765966412E+02 0.  0.
         23    2    1    2    0    0  0.12174422057E+02 -0.55406250028E+02  0.26717786231E+03  0.28507602124E+03  0.81647159650E+02 0.  0.
        -11    1    3    3    0    0 -0.12452485469E+02 -0.22108685551E+02 -0.56039899496E+02  0.61516897733E+02  0.00000000000E+00 0. -1.
         11    1    3    3    0    0  0.25768925468E+02  0.65314682630E+02 -0.52792523703E+02  0.87847002486E+02  0.00000000000E+00 0.  1.
        -13    1    4    4    0    0  0.44980729634E+02 -0.45171963934E+02  0.15054599369E+03  0.16348660061E+03  0.00000000000E+00 0.  1.
         13    1    4    4    0    0 -0.32806307577E+02 -0.10234286094E+02  0.11663186863E+03  0.12158942063E+03  0.00000000000E+00 0. -1.
         21    1    1    2  502  501 -0.75996983386E+01  0.23463397748E+02 -0.10692340026E+03  0.10973103468E+03  0.00000000000E+00 0.  1.
         21    1    1    2  503  502 -0.17891163717E+02 -0.11263144799E+02  0.33618424144E+02  0.39713355585E+02  0.00000000000E+00 0.  1.
<scales pt_clust_5="13000.00000" pt_clust_6="13000.00000" pt_clust_7="13000.00000" pt_clust_8="13000.00000" pt_clust_9="24.63913" pt_clust_10="21.14124"></scales>
<clustering>
<clus scale="   21.141">  1 10  2 -1</clus>
<clus scale="   24.639">  2  9  1 -1</clus>
<clus scale="   81.647">  7  8 -1 -1</clus>
<clus scale="   91.766">  5  6 -1 -1</clus>
<clus scale="  103.671">  1  7  2 -1</clus>
<clus scale="   21.141">  1  5  2 -1</clus>
</clustering>
</event>
<event>
10    2  0.1133532E-006  0.9476508E+02  0.7546771E-02  0.1293239E+00
          2   -1    0    0  503    0  0.00000000000E+00  0.00000000000E+00  0.43046036042E+03  0.43046036042E+03  0.00000000000E+00 0. -1.
         -2   -1    0    0    0  501 -0.00000000000E+00 -0.00000000000E+00 -0.76895597021E+02  0.76895597021E+02  0.00000000000E+00 0.  1.
         23    2    1    2    0    0  0.29545956138E+02 -0.19512193334E+02  0.11043251957E+03  0.14875693598E+03  0.93164346243E+02 0.  0.
         23    2    1    2    0    0  0.14917308270E+02  0.95371186225E+00  0.16293566108E+03  0.18695396008E+03  0.90445109800E+02 0.  0.
        -13    1    4    4    0    0  0.28548509006E+02  0.36362029837E+02  0.12511120156E+03  0.13337926126E+03  0.00000000000E+00 0. -1.
         13    1    4    4    0    0 -0.13631200736E+02 -0.35408317975E+02  0.37824459525E+02  0.53574698820E+02  0.00000000000E+00 0.  1.
        -13    1    3    3    0    0 -0.25327374225E+02 -0.12068940714E+02  0.81674617843E+02  0.86359008881E+02  0.00000000000E+00 0. -1.
         13    1    3    3    0    0  0.54873330363E+02 -0.74432526201E+01  0.28757901729E+02  0.62397927101E+02  0.00000000000E+00 0.  1.
         21    1    1    2  502  501  0.21059170363E+02 -0.12013784183E+01 -0.33119479793E+02  0.39266167476E+02  0.00000000000E+00 0.  1.
         21    1    1    2  503  502 -0.65522434770E+02  0.19759859890E+02  0.11331606254E+03  0.13237889390E+03  0.00000000000E+00 0. -1.
<scales pt_clust_5="13000.00000" pt_clust_6="13000.00000" pt_clust_7="13000.00000" pt_clust_8="13000.00000" pt_clust_9="21.09341" pt_clust_10="63.64496"></scales>
<clustering>
<clus scale="   21.093">  2  9  1 -1</clus>
<clus scale="   63.645">  1 10  2 -1</clus>
<clus scale="   90.445">  5  6 -1 -1</clus>
<clus scale="   92.093">  1  5  2 -1</clus>
<clus scale="   93.164">  7  8 -1 -1</clus>
<clus scale="   63.645">  1  5  2 -1</clus>
</clustering>
</event>
<event>
10    2  0.1133532E-006  0.1035701E+03  0.7546771E-02  0.1273543E+00
          1   -1    0    0  503    0  0.00000000000E+00  0.00000000000E+00  0.67695174450E+03  0.67695174450E+03  0.00000000000E+00 0. -1.
         -1   -1    0    0    0  501 -0.00000000000E+00 -0.00000000000E+00 -0.10676833882E+03  0.10676833882E+03  0.00000000000E+00 0.  1.
         23    2    1    2    0    0  0.43786158263E+02 -0.25424225067E+02 -0.59147338243E+02  0.12010201867E+03  0.91446532966E+02 0.  0.
         23    2    1    2    0    0 -0.49769761516E+02  0.58243692967E+02  0.54167980588E+03  0.55444747320E+03  0.90142284797E+02 0.  0.
        -11    1    4    4    0    0 -0.71381734678E+02  0.39627367159E+02  0.47434699753E+03  0.48132188226E+03  0.00000000000E+00 0. -1.
         11    1    4    4    0    0  0.21611973162E+02  0.18616325808E+02  0.67332808347E+02  0.73125590941E+02  0.00000000000E+00 0.  1.
        -13    1    3    3    0    0  0.49510879367E+02 -0.55175507610E+02 -0.44325950142E+02  0.86373917775E+02  0.00000000000E+00 0.  1.
         13    1    3    3    0    0 -0.57247211046E+01  0.29751282543E+02 -0.14821388101E+02  0.33728100894E+02  0.00000000000E+00 0. -1.
         21    1    1    2  502  501 -0.18629480839E+02 -0.13515352523E+02  0.93311761783E+01  0.24835320796E+02  0.00000000000E+00 0. -1.
         21    1    1    2  503  502  0.24613084092E+02 -0.19304115377E+02  0.78319761859E+02  0.84335270656E+02  0.00000000000E+00 0.  1.
<scales pt_clust_5="13000.00000" pt_clust_6="13000.00000" pt_clust_7="13000.00000" pt_clust_8="13000.00000" pt_clust_9="23.01570" pt_clust_10="31.09558"></scales>
<clustering>
<clus scale="   23.016">  2  9  1 -1</clus>
<clus scale="   31.096">  1 10  2 -1</clus>
<clus scale="   90.142">  5  6 -1 -1</clus>
<clus scale="   91.447">  7  8 -1 -1</clus>
<clus scale="  102.420">  1  5  2 -1</clus>
<clus scale="   31.096">  1  5  2 -1</clus>
</clustering>
</event>
<event>
10    2  0.1133532E-006  0.1259983E+03  0.7546771E-02  0.1234332E+00
         -1   -1    0    0    0  501 -0.00000000000E+00  0.00000000000E+00  0.25276870671E+03  0.25276870671E+03  0.00000000000E+00 0.  1.
          1   -1    0    0  503    0  0.00000000000E+00 -0.00000000000E+00 -0.27701565334E+03  0.27701565334E+03  0.00000000000E+00 0. -1.
         23    2    1    2    0    0  0.45123348276E+02 -0.69617673740E+02 -0.42145504626E+02  0.13046060721E+03  0.91438446056E+02 0.  0.
         23    2    1    2    0    0 -0.43469076288E+02  0.73270788152E+02 -0.91748498571E+02  0.15334560188E+03  0.88537662250E+02 0.  0.
        -13    1    3    3    0    0  0.71211624016E+02 -0.45224719772E+02 -0.15191786544E+02  0.85715582316E+02  0.00000000000E+00 0.  1.
         13    1    3    3    0    0 -0.26088275740E+02 -0.24392953968E+02 -0.26953718082E+02  0.44745024895E+02  0.00000000000E+00 0. -1.
        -13    1    4    4    0    0  0.27289783482E+02  0.14652051877E+02 -0.22279553818E+02  0.38154861093E+02  0.00000000000E+00 0.  1.
         13    1    4    4    0    0 -0.70758859770E+02  0.58618736276E+02 -0.69468944753E+02  0.11519074079E+03  0.00000000000E+00 0. -1.
         21    1    1    2  502  501  0.37498732374E+02 -0.80319765704E+01  0.16979733549E+03  0.17407412994E+03  0.00000000000E+00 0.  1.
         21    1    1    2  503  502 -0.39153004362E+02  0.43788621582E+01 -0.60150278915E+02  0.71904021013E+02  0.00000000000E+00 0.  1.
<scales pt_clust_5="13000.00000" pt_clust_6="13000.00000" pt_clust_7="13000.00000" pt_clust_8="13000.00000" pt_clust_9="38.34928" pt_clust_10="36.62384"></scales>
<clustering>
<clus scale="   38.349">  1  9  2 -1</clus>
<clus scale="   36.624">  2 10  1 -1</clus>
<clus scale="   88.538">  7  8 -1 -1</clus>
<clus scale="   91.438">  5  6 -1 -1</clus>
<clus scale="  123.909">  2  7  1 -1</clus>
<clus scale="   36.624">  2  5  1 -1</clus>
</clustering>
</event>
<event>
10    2  0.1133532E-006  0.9745753E+02  0.7546771E-02  0.1286814E+00
         -1   -1    0    0    0  501 -0.00000000000E+00  0.00000000000E+00  0.13916939332E+03  0.13916939332E+03  0.00000000000E+00 0.  1.
          1   -1    0    0  503    0  0.00000000000E+00 -0.00000000000E+00 -0.23860334475E+03  0.23860334475E+03  0.00000000000E+00 0. -1.
         23    2    1    2    0    0 -0.31620297953E+02 -0.70335692064E+01 -0.30733164572E+01  0.98162214728E+02  0.92612422427E+02 0.  0.
         23    2    1    2    0    0  0.25164038845E+02  0.17831342259E+02 -0.26178571239E+01  0.95691306389E+02  0.90547155255E+02 0.  0.
        -11    1    3    3    0    0 -0.62048207170E+02  0.91053921748E+01 -0.85279550785E+01  0.63289921768E+02  0.00000000000E+00 0.  1.
         11    1    3    3    0    0  0.30427909216E+02 -0.16138961381E+02  0.54546386213E+01  0.34872292959E+02  0.00000000000E+00 0. -1.
        -13    1    4    4    0    0  0.14289601829E+01 -0.22094983701E+02  0.31184366003E+02  0.38245194666E+02  0.00000000000E+00 0.  1.
         13    1    4    4    0    0  0.23735078662E+02  0.39926325960E+02 -0.33802223127E+02  0.57446111723E+02  0.00000000000E+00 0. -1.
         21    1    1    2  502  501  0.32379473694E+02 -0.15024607716E+02  0.36500764353E+02  0.51053647784E+02  0.00000000000E+00 0. -1.
         21    1    1    2  503  502 -0.25923214586E+02  0.42268346641E+01 -0.13024354221E+03  0.13286556917E+03  0.00000000000E+00 0. -1.
<scales pt_clust_5="13000.00000" pt_clust_6="13000.00000" pt_clust_7="13000.00000" pt_clust_8="13000.00000" pt_clust_9="33.97959" pt_clust_10="26.26555"></scales>
<clustering>
<clus scale="   26.266">  2 10  1 -1</clus>
<clus scale="   33.980">  1  9  2 -1</clus>
<clus scale="   90.547">  7  8 -1 -1</clus>
<clus scale="   92.612">  5  6 -1 -1</clus>
<clus scale="   95.497">  2  7  1 -1</clus>
<clus scale="   26.266">  2  5  1 -1</clus>
</clustering>
</event>
<event>
10    2  0.1133532E-006  0.1408768E+03  0.7546771E-02  0.1213068E+00
         -2   -1    0    0    0  501 -0.00000000000E+00  0.00000000000E+00  0.19459444140E+03  0.19459444140E+03  0.00000000000E+00 0.  1.
          2   -1    0    0  503    0  0.00000000000E+00 -0.00000000000E+00 -0.28430336423E+03  0.28430336423E+03  0.00000000000E+00 0. -1.
         23    2    1    2    0    0 -0.53644787780E+02 -0.10550922299E+03 -0.20233056369E+02  0.15002442804E+03  0.89933269964E+02 0.  0.
         23    2    1    2    0    0  0.71891714900E+02  0.83594329212E+02 -0.13031276946E+03  0.19489041170E+03  0.94044798579E+02 0.  0.
        -13    1    4    4    0    0 -0.21283992917E+02  0.81138839654E+01 -0.34780822355E+02  0.41575823157E+02  0.00000000000E+00 0.  1.
         13    1    4    4    0    0  0.93175707817E+02  0.75480445246E+02 -0.95531947108E+02  0.15331458854E+03  0.00000000000E+00 0. -1.
        -13    1    3    3    0    0 -0.72218642237E+02 -0.60415026207E+02  0.65501432510E+01  0.94384384592E+02  0.00000000000E+00 0.  1.
         13    1    3    3    0    0  0.18573854457E+02 -0.45094196787E+02 -0.26783199620E+02  0.55640043450E+02  0.00000000000E+00 0. -1.
         21    1    1    2  502  501 -0.37662307266E+01  0.36580302189E+02  0.90601155359E+02  0.97779713410E+02  0.00000000000E+00 0.  1.
         21    1    1    2  503  502 -0.14480696393E+02 -0.14665408407E+02 -0.29764252352E+02  0.36203252476E+02  0.00000000000E+00 0. -1.
<scales pt_clust_5="13000.00000" pt_clust_6="13000.00000" pt_clust_7="13000.00000" pt_clust_8="13000.00000" pt_clust_9="36.58721" pt_clust_10="20.60982"></scales>
<clustering>
<clus scale="   20.610">  2 10  1 -1</clus>
<clus scale="   36.587">  1  9  2 -1</clus>
<clus scale="   89.933">  7  8 -1 -1</clus>
<clus scale="   94.045">  5  6 -1 -1</clus>
<clus scale="  138.166">  1  7  2 -1</clus>
<clus scale="   20.610">  2  5  1 -1</clus>
</clustering>
</event>
<event>
10    2  0.1133532E-006  0.9721026E+02  0.7546771E-02  0.1290095E+00
         -4   -1    0    0    0  501 -0.00000000000E+00  0.00000000000E+00  0.93592401000E+02  0.93592401000E+02  0.00000000000E+00 0.  1.
          4   -1    0    0  502    0  0.00000000000E+00 -0.00000000000E+00 -0.39425546701E+03  0.39425546701E+03  0.00000000000E+00 0. -1.
         23    2    1    2    0    0 -0.50846580468E+02  0.59176456537E+01  0.17937604305E+02  0.11115624676E+03  0.97023503702E+02 0.  0.
         23    2    1    2    0    0 -0.10798395921E+02  0.55737338739E+01 -0.25927971010E+03  0.27481548124E+03  0.90276845289E+02 0.  0.
        -11    1    3    3    0    0 -0.33989990140E+02 -0.48818193458E+01 -0.38313038224E+02  0.51449397351E+02  0.00000000000E+00 0. -1.
         11    1    3    3    0    0 -0.16856590328E+02  0.10799464999E+02  0.56250642528E+02  0.59706849411E+02  0.00000000000E+00 0.  1.
        -13    1    4    4    0    0  0.90770846648E+01  0.38305455663E+02 -0.59131180287E+02  0.71036595370E+02  0.00000000000E+00 0. -1.
         13    1    4    4    0    0 -0.19875480585E+02 -0.32731721789E+02 -0.20014852982E+03  0.20377888587E+03  0.00000000000E+00 0.  1.
         21    1    1    2  502  503  0.43634634990E+02  0.18797584309E+02 -0.36169999274E+02  0.59712640153E+02  0.00000000000E+00 0. -1.
         21    1    1    2  503  501  0.18010341398E+02 -0.30288963837E+02 -0.23150960939E+02  0.42163499854E+02  0.00000000000E+00 0. -1.
<scales pt_clust_5="13000.00000" pt_clust_6="13000.00000" pt_clust_7="13000.00000" pt_clust_8="13000.00000" pt_clust_9="48.39718" pt_clust_10="35.23909"></scales>
<clustering>
<clus scale="   35.239">  1 10  2 -1</clus>
<clus scale="   48.397">  1  9  2 -1</clus>
<clus scale="   90.277">  7  8 -1 -1</clus>
<clus scale="   90.478">  2  7  1 -1</clus>
<clus scale="   97.024">  5  6 -1 -1</clus>
<clus scale="   90.478">  2  5  1 -1</clus>
</clustering>
</event>
<event>
10    2  0.1133532E-006  0.1295154E+03  0.7546771E-02  0.1228761E+00
          3   -1    0    0  503    0  0.00000000000E+00  0.00000000000E+00  0.64191025638E+03  0.64191025638E+03  0.00000000000E+00 0. -1.
         -3   -1    0    0    0  501 -0.00000000000E+00 -0.00000000000E+00 -0.70547259057E+02  0.70547259057E+02  0.00000000000E+00 0.  1.
         23    2    1    2    0    0 -0.59660492568E+02 -0.45078366444E+02  0.88318370404E+02  0.14761015763E+03  0.91636186022E+02 0.  0.
         23    2    1    2    0    0  0.63012948925E+02  0.59548167755E+02  0.40990299977E+03  0.42840777032E+03  0.89421096137E+02 0.  0.
        -11    1    3    3    0    0 -0.64377763124E+02  0.56956571931E+01  0.33699630505E+02  0.72887598341E+02  0.00000000000E+00 0. -1.
         11    1    3    3    0    0  0.47172705565E+01 -0.50774023637E+02  0.54618739899E+02  0.74722559284E+02  0.00000000000E+00 0.  1.
        -11    1    4    4    0    0  0.48111791966E+02 -0.42940512097E+01  0.93012630222E+02  0.10480712181E+03  0.00000000000E+00 0.  1.
         11    1    4    4    0    0  0.14901156959E+02  0.63842218965E+02  0.31689036955E+03  0.32360064851E+03  0.00000000000E+00 0. -1.
         21    1    1    2  502  501 -0.26619666058E+02 -0.13519928649E+02 -0.22892416390E+02  0.37622570618E+02  0.00000000000E+00 0.  1.
         21    1    1    2  503  502  0.23267209701E+02 -0.94987266156E+00  0.96034043539E+02  0.98817016874E+02  0.00000000000E+00 0. -1.
<scales pt_clust_5="13000.00000" pt_clust_6="13000.00000" pt_clust_7="13000.00000" pt_clust_8="13000.00000" pt_clust_9="29.58185" pt_clust_10="23.28659"></scales>
<clustering>
<clus scale="   23.287">  1 10  2 -1</clus>
<clus scale="   29.582">  2  9  1 -1</clus>
<clus scale="   89.421">  7  8 -1 -1</clus>
<clus scale="   91.636">  5  6 -1 -1</clus>
<clus scale="  127.958">  1  7  2 -1</clus>
<clus scale="   23.287">  1  5  2 -1</clus>
</clustering>
</event>
<event>
10    2  0.1133532E-006  0.1229819E+03  0.7546771E-02  0.1242265E+00
          1   -1    0    0  503    0  0.00000000000E+00  0.00000000000E+00  0.11369288529E+03  0.11369288529E+03  0.00000000000E+00 0. -1.
         -1   -1    0    0    0  501 -0.00000000000E+00 -0.00000000000E+00 -0.29721581288E+03  0.29721581288E+03  0.00000000000E+00 0.  1.
         23    2    1    2    0    0 -0.61932459984E+02 -0.23672751597E+02 -0.19287543952E+03  0.21770387784E+03  0.76144694410E+02 0.  0.
         23    2    1    2    0    0  0.85628719868E+02  0.19864975238E+02  0.45790649828E+02  0.13376395883E+03  0.89828270397E+02 0.  0.
        -11    1    4    4    0    0  0.97932466533E+02 -0.45957028557E+01  0.39304438781E+02  0.10562541074E+03  0.00000000000E+00 0. -1.
         11    1    4    4    0    0 -0.12303746666E+02  0.24460678094E+02  0.64862110479E+01  0.28138548089E+02  0.00000000000E+00 0.  1.
        -13    1    3    3    0    0 -0.43306797211E+02 -0.48973659118E+02 -0.15669909435E+03  0.16978958785E+03  0.00000000000E+00 0.  1.
         13    1    3    3    0    0 -0.18625662774E+02  0.25300907520E+02 -0.36176345176E+02  0.47914289992E+02  0.00000000000E+00 0. -1.
         21    1    1    2  502  501 -0.69137486207E+01  0.21459864288E+02 -0.16020065420E+02  0.27658058343E+02  0.00000000000E+00 0.  1.
         21    1    1    2  503  502 -0.16782511263E+02 -0.17652087929E+02 -0.20418072476E+02  0.31782803152E+02  0.00000000000E+00 0. -1.
<scales pt_clust_5="13000.00000" pt_clust_6="13000.00000" pt_clust_7="13000.00000" pt_clust_8="13000.00000" pt_clust_9="22.54608" pt_clust_10="23.40945"></scales>
<clustering>
<clus scale="   22.546">  2  9  1 -1</clus>
<clus scale="   23.409">  2 10  1 -1</clus>
<clus scale="   76.145">  7  8 -1 -1</clus>
<clus scale="   89.828">  5  6 -1 -1</clus>
<clus scale="  113.373">  2  7  1 -1</clus>
<clus scale="  122.982">  1  5  2 -1</clus>
</clustering>
</event>
<event>
10    2  0.1133532E-006  0.1038700E+03  0.7546771E-02  0.1273429E+00
          2   -1    0    0  503    0  0.00000000000E+00  0.00000000000E+00  0.38664478836E+03  0.38664478836E+03  0.00000000000E+00 0. -1.
         -2   -1    0    0    0  501 -0.00000000000E+00 -0.00000000000E+00 -0.50946530286E+02  0.50946530286E+02  0.00000000000E+00 0.  1.
         23    2    1    2    0    0 -0.54801834872E+02  0.73082093921E+01  0.14965774719E+03  0.18239300636E+03  0.88391834713E+02 0.  0.
         23    2    1    2    0    0  0.45346935760E+02  0.88342991502E+01  0.12133521278E+03  0.15844214883E+03  0.90814598170E+02 0.  0.
        -11    1    3    3    0    0 -0.27376339504E+02  0.16469339585E+02  0.20874615522E+01  0.32016567691E+02  0.00000000000E+00 0.  1.
         11    1    3    3    0    0 -0.27425495368E+02 -0.91611301924E+01  0.14757028564E+03  0.15037643867E+03  0.00000000000E+00 0. -1.
        -13    1    4    4    0    0  0.63146434412E+02  0.32042630664E+02  0.71317918013E+02  0.10050098402E+03  0.00000000000E+00 0.  1.
         13    1    4    4    0    0 -0.17799498652E+02 -0.23208331514E+02  0.50017294763E+02  0.57941164808E+02  0.00000000000E+00 0. -1.
         21    1    1    2  502  501  0.38179839273E+02 -0.15747698230E+02  0.26954190482E+02  0.49317527422E+02  0.00000000000E+00 0. -1.
         21    1    1    2  503  502 -0.28724940162E+02 -0.39481031186E+00  0.37751107626E+02  0.47438636042E+02  0.00000000000E+00 0. -1.
<scales pt_clust_5="13000.00000" pt_clust_6="13000.00000" pt_clust_7="13000.00000" pt_clust_8="13000.00000" pt_clust_9="38.39375" pt_clust_10="28.72765"></scales>
<clustering>
<clus scale="   28.728">  1 10  2 -1</clus>
<clus scale="   38.394">  2  9  1 -1</clus>
<clus scale="   88.392">  5  6 -1 -1</clus>
<clus scale="   90.815">  7  8 -1 -1</clus>
<clus scale="  101.759">  2  5  1 -1</clus>
<clus scale="   28.728">  1  5  2 -1</clus>
</clustering>
</event>
<event>
10    2  0.1133532E-006  0.1738285E+03  0.7546771E-02  0.1174094E+00
          2   -1    0    0  503    0  0.00000000000E+00  0.00000000000E+00  0.77823787155E+03  0.77823787155E+03  0.00000000000E+00 0. -1.
         -2   -1    0    0    0  501 -0.00000000000E+00 -0.00000000000E+00 -0.10341249565E+03  0.10341249565E+03  0.00000000000E+00 0.  1.
         23    2    1    2    0    0 -0.91757796586E+02 -0.12137356278E+03  0.22338400323E+03  0.28560869451E+03  0.92308604728E+02 0.  0.
         23    2    1    2    0    0  0.92075357243E+02  0.95573513743E+02  0.41137211183E+03  0.44171644822E+03  0.90962840192E+02 0.  0.
        -13    1    4    4    0    0  0.14757951849E+02  0.73440766853E+02  0.25640957413E+03  0.26712770931E+03  0.00000000000E+00 0. -1.
         13    1    4    4    0    0  0.77317405393E+02  0.22132746890E+02  0.15496253770E+03  0.17458873890E+03  0.00000000000E+00 0.  1.
        -13    1    3    3    0    0 -0.66625745527E+02 -0.13221762134E+03  0.16868942644E+03  0.22444734784E+03  0.00000000000E+00 0.  1.
         13    1    3    3    0    0 -0.25132051059E+02  0.10844058563E+02  0.54694576788E+02  0.61161346670E+02  0.00000000000E+00 0. -1.
         21    1    1    2  502  501 -0.22494927497E+02  0.26981846729E+01 -0.52066787291E+02  0.56782499967E+02  0.00000000000E+00 0.  1.
         21    1    1    2  503  502  0.22177366840E+02  0.23101864365E+02  0.92136048130E+02  0.97542724497E+02  0.00000000000E+00 0.  1.
<scales pt_clust_5="13000.00000" pt_clust_6="13000.00000" pt_clust_7="13000.00000" pt_clust_8="13000.00000" pt_clust_9="22.65617" pt_clust_10="31.28761"></scales>
<clustering>
<clus scale="   22.656">  2  9  1 -1</clus>
<clus scale="   31.288">  1 10  2 -1</clus>
<clus scale="   90.963">  5  6 -1 -1</clus>
<clus scale="   92.309">  7  8 -1 -1</clus>
<clus scale="  173.118">  1  5  2 -1</clus>
<clus scale="   31.288">  1  5  2 -1</clus>
</clustering>
</event>
<event>
10    2  0.1133532E-006  0.9509744E+02  0.7546771E-02  0.1293415E+00
          2   -1    0    0  503    0  0.00000000000E+00  0.00000000000E+00  0.64029677169E+03  0.64029677169E+03  0.00000000000E+00 0. -1.
         -2   -1    0    0    0  501 -0.00000000000E+00 -0.00000000000E+00 -0.50650480729E+02  0.50650480729E+02  0.00000000000E+00 0.  1.
         23    2    1    2    0    0 -0.10635229568E+02 -0.19286837638E+02  0.36074718068E+02  0.96534944751E+02  0.86790091948E+02 0.  0.
         23    2    1    2    0    0 -0.50561103678E+02  0.64782369309E+02  0.32437430537E+03  0.34683896844E+03  0.91243626976E+02 0.  0.
        -11    1    4    4    0    0 -0.57957127878E+02  0.11756040736E+01  0.17384845723E+03  0.18325855177E+03  0.00000000000E+00 0. -1.
         11    1    4    4    0    0  0.73960241995E+01  0.63606765235E+02  0.15052584814E+03  0.16358041667E+03  0.00000000000E+00 0.  1.
        -13    1    3    3    0    0 -0.32544639238E+02 -0.44445347557E+02  0.15065781627E+02  0.57109721052E+02  0.00000000000E+00 0. -1.
         13    1    3    3    0    0  0.21909409670E+02  0.25158509918E+02  0.21008936441E+02  0.39425223700E+02  0.00000000000E+00 0.  1.
         21    1    1    2  502  501  0.50238056956E+02 -0.38379375117E+01  0.11674227514E+03  0.12715089829E+03  0.00000000000E+00 0. -1.
         21    1    1    2  503  502  0.10958276290E+02 -0.41657594159E+02  0.11245499238E+03  0.12042244094E+03  0.00000000000E+00 0. -1.
<scales pt_clust_5="13000.00000" pt_clust_6="13000.00000" pt_clust_7="13000.00000" pt_clust_8="13000.00000" pt_clust_9="54.49660" pt_clust_10="43.07481"></scales>
<clustering>
<clus scale="   43.075">  1 10  2 -1</clus>
<clus scale="   54.497">  1  9  2 -1</clus>
<clus scale="   86.790">  7  8 -1 -1</clus>
<clus scale="   90.833">  2  7  1 -1</clus>
<clus scale="   91.244">  5  6 -1 -1</clus>
<clus scale="   43.075">  1  5  2 -1</clus>
</clustering>
</event>
<event>
10    2  0.1133532E-006  0.2687219E+03  0.7546771E-02  0.1102032E+00
         -2   -1    0    0    0  501 -0.00000000000E+00  0.00000000000E+00  0.61741713637E+03  0.61741713637E+03  0.00000000000E+00 0.  1.
          2   -1    0    0  503    0  0.00000000000E+00 -0.00000000000E+00 -0.39867661867E+03  0.39867661867E+03  0.00000000000E+00 0. -1.
         23    2    1    2    0    0  0.19325754560E+02  0.21632534259E+03  0.28441551648E+03  0.36920109382E+03  0.90813672051E+02 0.  0.
         23    2    1    2    0    0 -0.83104238900E+01 -0.20105537833E+03 -0.20869458138E+03  0.30368288093E+03  0.90429727273E+02 0.  0.
        -11    1    4    4    0    0 -0.32888775666E+02 -0.18371248664E+03 -0.19710915181E+03  0.27144790852E+03  0.00000000000E+00 0. -1.
         11    1    4    4    0    0  0.24578351776E+02 -0.17342891685E+02 -0.11585429567E+02  0.32234972410E+02  0.00000000000E+00 0.  1.
        -11    1    3    3    0    0 -0.26306891665E+02  0.83822258611E+02  0.15643406631E+03  0.17941527441E+03  0.00000000000E+00 0.  1.
         11    1    3    3    0    0  0.45632646225E+02  0.13250308397E+03  0.12798145017E+03  0.18978581942E+03  0.00000000000E+00 0. -1.
         21    1    1    2  502  501  0.19128204044E+02  0.61097519021E+02  0.22093384609E+03  0.23002295401E+03  0.00000000000E+00 0.  1.
         21    1    1    2  503  502 -0.30143534714E+02 -0.76367483277E+02 -0.77914263497E+02  0.11318682628E+03  0.00000000000E+00 0. -1.
<scales pt_clust_5="13000.00000" pt_clust_6="13000.00000" pt_clust_7="13000.00000" pt_clust_8="13000.00000" pt_clust_9="64.02183" pt_clust_10="79.22834"></scales>
<clustering>
<clus scale="   64.022">  1  9  2 -1</clus>
<clus scale="   79.228">  2 10  1 -1</clus>
<clus scale="   90.430">  5  6 -1 -1</clus>
<clus scale="   90.814">  7  8 -1 -1</clus>
<clus scale="  268.592">  2  5  1 -1</clus>
<clus scale="   79.228">  2  5  1 -1</clus>
</clustering>
</event>
<event>
10    2  0.1341294E-006  0.1455655E+03  0.7546771E-02  0.1213722E+00
         -2   -1    0    0    0  501 -0.00000000000E+00  0.00000000000E+00  0.15362387587E+03  0.15362387587E+03  0.00000000000E+00 0.  1.
          2   -1    0    0  503    0  0.00000000000E+00 -0.00000000000E+00 -0.15232939224E+04  0.15232939224E+04  0.00000000000E+00 0. -1.
         23    2    1    2    0    0 -0.13052554243E+02  0.10973107329E+03  0.85767415289E+02  0.16716991601E+03  0.91533893588E+02 0.  0.
         23    2    1    2    0    0 -0.26969632559E+02  0.84039514903E+02 -0.18876089128E+03  0.22557928677E+03  0.86402195562E+02 0.  0.
        -11    1    3    3    0    0  0.23553356796E+02 -0.32872314202E+01  0.21713409421E+02  0.32203084565E+02  0.00000000000E+00 0. -1.
         11    1    3    3    0    0 -0.36605911039E+02  0.11301830471E+03  0.64054005867E+02  0.13496683144E+03  0.00000000000E+00 0.  1.
        -13    1    4    4    0    0  0.89035722720E+01  0.74180113887E+02 -0.74890228520E+02  0.10578520323E+03  0.00000000000E+00 0.  1.
         13    1    4    4    0    0 -0.35873204831E+02  0.98594010164E+01 -0.11387066276E+03  0.11979408354E+03  0.00000000000E+00 0. -1.
         21    1    1    2  502  501  0.61678134621E+02 -0.14794743578E+03 -0.93427746913E+03  0.94792775324E+03  0.00000000000E+00 0. -1.
         21    1    1    2  503  502 -0.21655947819E+02 -0.45823152406E+02 -0.33239910138E+03  0.33624084221E+03  0.00000000000E+00 0. -1.
<scales pt_clust_5="13000.00000" pt_clust_6="13000.00000" pt_clust_7="13000.00000" pt_clust_8="13000.00000" pt_clust_9="135.20909" pt_clust_10="41.59074"></scales>
<clustering>
<clus scale="   41.591">  9 10 -1 -1</clus>
<clus scale="   86.402">  7  8 -1 -1</clus>
<clus scale="   91.534">  5  6 -1 -1</clus>
<clus scale="  123.513">  2  7  1 -1</clus>
<clus scale="  135.209">  2  9  1 -1</clus>
<clus scale="  123.513">  2  5  1 -1</clus>
</clustering>
</event>
<event>
10    2  0.1133532E-006  0.1391881E+03  0.7546771E-02  0.1214859E+00
         -2   -1    0    0    0  501 -0.00000000000E+00  0.00000000000E+00  0.31825404142E+03  0.31825404142E+03  0.00000000000E+00 0.  1.
          2   -1    0    0  503    0  0.00000000000E+00 -0.00000000000E+00 -0.13313125068E+03  0.13313125068E+03  0.00000000000E+00 0. -1.
         23    2    1    2    0    0 -0.77029516602E+02 -0.83658261064E+02  0.10894757863E+03  0.18322357091E+03  0.93643211041E+02 0.  0.
         23    2    1    2    0    0  0.29875782872E+02  0.10150370981E+03  0.46552508080E+02  0.14757684269E+03  0.91739974830E+02 0.  0.
        -13    1    3    3    0    0 -0.32913795768E+02 -0.19093106874E+02  0.96900277388E+02  0.10410345066E+03  0.00000000000E+00 0. -1.
         13    1    3    3    0    0 -0.44115720834E+02 -0.64565154190E+02  0.12047301244E+02  0.79120120245E+02  0.00000000000E+00 0.  1.
        -13    1    4    4    0    0 -0.28291207169E+02  0.12721009608E+02  0.23616641629E+02  0.38986693247E+02  0.00000000000E+00 0.  1.
         13    1    4    4    0    0  0.58166990041E+02  0.88782700207E+02  0.22935866452E+02  0.10859014944E+03  0.00000000000E+00 0. -1.
         21    1    1    2  502  501  0.38091765731E+02  0.44045438449E+01  0.66387714546E+02  0.76666232890E+02  0.00000000000E+00 0. -1.
         21    1    1    2  503  502  0.90619679988E+01 -0.22249992596E+02 -0.36765010511E+02  0.43918645612E+02  0.00000000000E+00 0.  1.
<scales pt_clust_5="13000.00000" pt_clust_6="13000.00000" pt_clust_7="13000.00000" pt_clust_8="13000.00000" pt_clust_9="38.72382" pt_clust_10="24.02460"></scales>
<clustering>
<clus scale="   24.025">  2 10  1 -1</clus>
<clus scale="   38.724">  1  9  2 -1</clus>
<clus scale="   91.740">  7  8 -1 -1</clus>
<clus scale="   93.643">  5  6 -1 -1</clus>
<clus scale="  137.915">  2  7  1 -1</clus>
<clus scale="   24.025">  2  5  1 -1</clus>
</clustering>
</event>
<event>
10    2  0.1133532E-006  0.1121542E+03  0.7546771E-02  0.1257234E+00
          2   -1    0    0  503    0  0.00000000000E+00  0.00000000000E+00  0.53042168062E+03  0.53042168062E+03  0.00000000000E+00 0. -1.
         -2   -1    0    0    0  501 -0.00000000000E+00 -0.00000000000E+00 -0.56654807881E+03  0.56654807881E+03  0.00000000000E+00 0.  1.
         23    2    1    2    0    0 -0.40760852020E+02 -0.77870582157E+02 -0.17101828489E+03  0.21117728268E+03  0.87311604782E+02 0.  0.
         23    2    1    2    0    0  0.12985516534E+03 -0.55023897787E+01  0.26060076991E+03  0.30450697477E+03  0.88989303562E+02 0.  0.
        -11    1    3    3    0    0  0.26796817476E+02 -0.12229282759E+02 -0.46492312851E+02  0.55037804625E+02  0.00000000000E+00 0. -1.
         11    1    3    3    0    0 -0.67557669497E+02 -0.65641299398E+02 -0.12452597204E+03  0.15613947805E+03  0.00000000000E+00 0.  1.
        -13    1    4    4    0    0  0.88985860157E+02 -0.28299407635E+02  0.23093456558E+03  0.24909860168E+03  0.00000000000E+00 0. -1.
         13    1    4    4    0    0  0.40869305178E+02  0.22797017856E+02  0.29666204329E+02  0.55408373087E+02  0.00000000000E+00 0.  1.
         21    1    1    2  502  501 -0.11732748835E+02  0.41486884353E+02 -0.34360559279E+03  0.34629990235E+03  0.00000000000E+00 0.  1.
         21    1    1    2  503  502 -0.77361564480E+02  0.41886087583E+02  0.21789670958E+03  0.23498559964E+03  0.00000000000E+00 0. -1.
<scales pt_clust_5="13000.00000" pt_clust_6="13000.00000" pt_clust_7="13000.00000" pt_clust_8="13000.00000" pt_clust_9="43.11402" pt_clust_10="89.14048"></scales>
<clustering>
<clus scale="   43.114">  2  9  1 -1</clus>
<clus scale="   87.312">  5  6 -1 -1</clus>
<clus scale="   88.989">  7  8 -1 -1</clus>
<clus scale="   89.140">  1 10  2 -1</clus>
<clus scale="  110.828">  2  5  1 -1</clus>
<clus scale="   89.140">  1  5  2 -1</clus>
</clustering>
</event>
<event>
10    2  0.1133532E-006  0.9476935E+02  0.7546771E-02  0.1292810E+00
          2   -1    0    0  503    0  0.00000000000E+00  0.00000000000E+00  0.58100698347E+03  0.58100698347E+03  0.00000000000E+00 0. -1.
         -2   -1    0    0    0  501 -0.00000000000E+00 -0.00000000000E+00 -0.42694521315E+02  0.42694521315E+02  0.00000000000E+00 0.  1.
         23    2    1    2    0    0  0.19029323972E+02  0.31386660684E+02  0.11310098711E+03  0.15040392791E+03  0.92099243235E+02 0.  0.
         23    2    1    2    0    0  0.37474303774E+02  0.70386154515E+01  0.33531142781E+03  0.34929088511E+03  0.90091638073E+02 0.  0.
        -13    1    4    4    0    0  0.23210509667E+02 -0.40314110709E+02  0.12888095880E+03  0.13701918414E+03  0.00000000000E+00 0.  1.
         13    1    4    4    0    0  0.14263794107E+02  0.47352726161E+02  0.20643046901E+03  0.21227170097E+03  0.00000000000E+00 0. -1.
        -13    1    3    3    0    0  0.38104580808E+02 -0.11814682024E+02  0.17077228413E+02  0.43395593326E+02  0.00000000000E+00 0.  1.
         13    1    3    3    0    0 -0.19075256836E+02  0.43201342708E+02  0.96023758698E+02  0.10700833458E+03  0.00000000000E+00 0. -1.
         21    1    1    2  502  501 -0.61553304651E+01 -0.23640377665E+02  0.61755232597E+01  0.25197075957E+02  0.00000000000E+00 0.  1.
         21    1    1    2  503  502 -0.50348297281E+02 -0.14784898471E+02  0.83724523967E+02  0.98809615804E+02  0.00000000000E+00 0.  1.
<scales pt_clust_5="13000.00000" pt_clust_6="13000.00000" pt_clust_7="13000.00000" pt_clust_8="13000.00000" pt_clust_9="24.42858" pt_clust_10="55.53510"></scales>
<clustering>
<clus scale="   24.429">  2  9  1 -1</clus>
<clus scale="   55.535">  2 10  1 -1</clus>
<clus scale="   90.092">  5  6 -1 -1</clus>
<clus scale="   92.099">  7  8 -1 -1</clus>
<clus scale="   92.820">  1  5  2 -1</clus>
<clus scale="   92.820">  1  5  2 -1</clus>
</clustering>
</event>
<event>
10    2  0.1133532E-006  0.1026559E+03  0.7546771E-02  0.1274923E+00
         -2   -1    0    0    0  501 -0.00000000000E+00  0.00000000000E+00  0.10070280584E+03  0.10070280584E+03  0.00000000000E+00 0.  1.
          2   -1    0    0  503    0  0.00000000000E+00 -0.00000000000E+00 -0.45209567473E+03  0.45209567473E+03  0.00000000000E+00 0. -1.
         23    2    1    2    0    0 -0.63734542263E+02 -0.80671351424E+02 -0.25280554334E+02  0.13996865961E+03  0.91554139318E+02 0.  0.
         23    2    1    2    0    0 -0.49878063619E+01  0.52446932084E+01 -0.25983145288E+03  0.27550064300E+03  0.91300796110E+02 0.  0.
        -11    1    3    3    0    0 -0.20208235814E+02 -0.85844614933E+02  0.22276466004E+01  0.88219233260E+02  0.00000000000E+00 0. -1.
         11    1    3    3    0    0 -0.43526306449E+02  0.51732635085E+01 -0.27508200934E+02  0.51749426346E+02  0.00000000000E+00 0.  1.
        -11    1    4    4    0    0  0.38037726074E+02  0.19787595671E+02 -0.89847552202E+02  0.99554006369E+02  0.00000000000E+00 0.  1.
         11    1    4    4    0    0 -0.43025532436E+02 -0.14542902463E+02 -0.16998390067E+03  0.17594663663E+03  0.00000000000E+00 0. -1.
         21    1    1    2  502  501  0.45830489010E+02  0.37163836032E+02 -0.19249196660E+01  0.59036342597E+02  0.00000000000E+00 0.  1.
         21    1    1    2  503  502  0.22891859615E+02  0.38262822184E+02 -0.64355942005E+02  0.78292835365E+02  0.00000000000E+00 0.  1.
<scales pt_clust_5="13000.00000" pt_clust_6="13000.00000" pt_clust_7="13000.00000" pt_clust_8="13000.00000" pt_clust_9="62.36948" pt_clust_10="44.58790"></scales>
<clustering>
<clus scale="   44.588">  2 10  1 -1</clus>
<clus scale="   62.369">  1  9  2 -1</clus>
<clus scale="   91.301">  7  8 -1 -1</clus>
<clus scale="   91.554">  5  6 -1 -1</clus>
<clus scale="  102.430">  2  7  1 -1</clus>
<clus scale="   44.588">  2  5  1 -1</clus>
</clustering>
</event>
<event>
10    2  0.1133532E-006  0.1016889E+03  0.7546771E-02  0.1276987E+00
         -1   -1    0    0    0  501 -0.00000000000E+00  0.00000000000E+00  0.16175842705E+03  0.16175842705E+03  0.00000000000E+00 0.  1.
          1   -1    0    0  503    0  0.00000000000E+00 -0.00000000000E+00 -0.12349121177E+03  0.12349121177E+03  0.00000000000E+00 0. -1.
         23    2    1    2    0    0 -0.40502552009E+02 -0.37008625619E+02  0.78573928212E+02  0.13161274727E+03  0.90210631075E+02 0.  0.
         23    2    1    2    0    0  0.22558729363E+02  0.16116540854E+02 -0.30710887096E+02  0.98841874211E+02  0.89765908628E+02 0.  0.
        -13    1    3    3    0    0  0.23917225911E+02 -0.29004882172E+02  0.44646536352E+02  0.58366343841E+02  0.00000000000E+00 0.  1.
         13    1    3    3    0    0 -0.64419777919E+02 -0.80037434466E+01  0.33927391860E+02  0.73246403426E+02  0.00000000000E+00 0. -1.
        -13    1    4    4    0    0  0.38241464124E+02  0.46212952936E+02 -0.18437366778E+02  0.62753351233E+02  0.00000000000E+00 0.  1.
         13    1    4    4    0    0 -0.15682734760E+02 -0.30096412081E+02 -0.12273520318E+02  0.36088522978E+02  0.00000000000E+00 0. -1.
         21    1    1    2  502  501  0.28436604170E+02  0.22002331719E+01  0.48707607692E+01  0.28934508692E+02  0.00000000000E+00 0.  1.
         21    1    1    2  503  502 -0.10492781525E+02  0.18691851593E+02 -0.14466586606E+02  0.25860508659E+02  0.00000000000E+00 0.  1.
<scales pt_clust_5="13000.00000" pt_clust_6="13000.00000" pt_clust_7="13000.00000" pt_clust_8="13000.00000" pt_clust_9="27.56448" pt_clust_10="21.43557"></scales>
<clustering>
<clus scale="   21.436">  2 10  1 -1</clus>
<clus scale="   27.564">  2  9  1 -1</clus>
<clus scale="   89.766">  7  8 -1 -1</clus>
<clus scale="   90.211">  5  6 -1 -1</clus>
<clus scale="  101.295">  2  7  1 -1</clus>
<clus scale="   21.436">  2  5  1 -1</clus>
</clustering>
</event>
<event>
10    2  0.1133532E-006  0.1694121E+03  0.7546771E-02  0.1201703E+00
         -2   -1    0    0    0  501 -0.00000000000E+00  0.00000000000E+00  0.97651451334E+02  0.97651451334E+02  0.00000000000E+00 0.  1.
          2   -1    0    0  503    0  0.00000000000E+00 -0.00000000000E+00 -0.83092910642E+03  0.83092910642E+03  0.00000000000E+00 0. -1.
         23    2    1    2    0    0 -0.24767939139E+02 -0.98612576179E+02 -0.37865263574E+03  0.40903374800E+03  0.11658858206E+03 0.  0.
         23    2    1    2    0    0 -0.35512212721E+02  0.12712879201E+02 -0.22156067233E+03  0.24252955171E+03  0.91152166069E+02 0.  0.
        -11    1    4    4    0    0 -0.47231316783E+02 -0.19467643819E+02 -0.67190020630E+02  0.84405481535E+02  0.00000000000E+00 0. -1.
         11    1    4    4    0    0  0.11719104063E+02  0.32180523021E+02 -0.15437065171E+03  0.15812407018E+03  0.00000000000E+00 0.  1.
        -11    1    3    3    0    0  0.14431826067E+02  0.14073700556E+02 -0.12004275923E+02  0.23461655769E+02  0.00000000000E+00 0.  1.
         11    1    3    3    0    0 -0.39199765206E+02 -0.11268627674E+03 -0.36664835981E+03  0.38557209223E+03  0.00000000000E+00 0. -1.
         21    1    1    2  502  501  0.83541019031E+02  0.96236628844E+02  0.13598388073E+02  0.12816203319E+03  0.00000000000E+00 0.  1.
         21    1    1    2  503  502 -0.23260867172E+02 -0.10336931866E+02 -0.14666273509E+03  0.14885522486E+03  0.00000000000E+00 0.  1.
<scales pt_clust_5="13000.00000" pt_clust_6="13000.00000" pt_clust_7="13000.00000" pt_clust_8="13000.00000" pt_clust_9="122.91278" pt_clust_10="25.45427"></scales>
<clustering>
<clus scale="   25.454">  2 10  1 -1</clus>
<clus scale="   91.152">  5  6 -1 -1</clus>
<clus scale="  101.381">  2  5  1 -1</clus>
<clus scale="  116.589">  7  8 -1 -1</clus>
<clus scale="  122.913">  1  9  2 -1</clus>
<clus scale="   25.454">  2  5  1 -1</clus>
</clustering>
</event>
<event>
10    2  0.1133532E-006  0.1030199E+03  0.7546771E-02  0.1275563E+00
          1   -1    0    0  503    0  0.00000000000E+00  0.00000000000E+00  0.18487701959E+03  0.18487701959E+03  0.00000000000E+00 0. -1.
         -1   -1    0    0    0  501 -0.00000000000E+00 -0.00000000000E+00 -0.31768700843E+03  0.31768700843E+03  0.00000000000E+00 0.  1.
         23    2    1    2    0    0 -0.52730217894E+02  0.41881983790E+02 -0.23935558077E+03  0.26458068376E+03  0.90428246294E+02 0.  0.
         23    2    1    2    0    0  0.30401530043E+01 -0.68624935809E+01  0.82932360851E+02  0.12530824761E+03  0.93637834739E+02 0.  0.
        -11    1    4    4    0    0 -0.17397886201E+02 -0.36395658302E+02  0.65032132008E+01  0.40861010382E+02  0.00000000000E+00 0. -1.
         11    1    4    4    0    0  0.20438039206E+02  0.29533164721E+02  0.76429147650E+02  0.84447237229E+02  0.00000000000E+00 0.  1.
        -11    1    3    3    0    0  0.20470367164E+02  0.10746804537E+01 -0.15949724034E+02  0.25972765864E+02  0.00000000000E+00 0. -1.
         11    1    3    3    0    0 -0.73200585057E+02  0.40807303336E+02 -0.22340585674E+03  0.23860791789E+03  0.00000000000E+00 0.  1.
         21    1    1    2  502  501  0.23580806572E+02 -0.67803806776E+01 -0.34895285892E+02  0.42658047051E+02  0.00000000000E+00 0.  1.
         21    1    1    2  503  502  0.26109258317E+02 -0.28239109532E+02  0.58508516962E+02  0.70017049596E+02  0.00000000000E+00 0. -1.
<scales pt_clust_5="13000.00000" pt_clust_6="13000.00000" pt_clust_7="13000.00000" pt_clust_8="13000.00000" pt_clust_9="24.53626" pt_clust_10="38.89347"></scales>
<clustering>
<clus scale="   24.536">  2  9  1 -1</clus>
<clus scale="   38.893">  1 10  2 -1</clus>
<clus scale="   90.428">  7  8 -1 -1</clus>
<clus scale="   93.638">  5  6 -1 -1</clus>
<clus scale="  100.112">  2  7  1 -1</clus>
<clus scale="   38.893">  1  5  2 -1</clus>
</clustering>
</event>
<event>
10    2  0.1133532E-006  0.1239627E+03  0.7546771E-02  0.1236833E+00
         -2   -1    0    0    0  501 -0.00000000000E+00  0.00000000000E+00  0.40705596325E+03  0.40705596325E+03  0.00000000000E+00 0.  1.
          2   -1    0    0  503    0  0.00000000000E+00 -0.00000000000E+00 -0.18930243098E+03  0.18930243098E+03  0.00000000000E+00 0. -1.
         23    2    1    2    0    0  0.64569702908E+02 -0.43691768146E+02  0.21287844196E+03  0.24454607808E+03  0.91691526960E+02 0.  0.
         23    2    1    2    0    0 -0.56349176636E+02  0.40212719180E+02  0.11844510088E+02  0.11513683114E+03  0.91235437047E+02 0.  0.
        -13    1    4    4    0    0 -0.77675634899E+02  0.45743678979E+02  0.45422143737E-01  0.90144275950E+02  0.00000000000E+00 0. -1.
         13    1    4    4    0    0  0.21326458263E+02 -0.55309597985E+01  0.11799087945E+02  0.24992555185E+02  0.00000000000E+00 0.  1.
        -13    1    3    3    0    0  0.63554362835E+02  0.11444529266E+02  0.12722829855E+03  0.14267856965E+03  0.00000000000E+00 0.  1.
         13    1    3    3    0    0  0.10153400724E+01 -0.55136297412E+02  0.85650143412E+02  0.10186750843E+03  0.00000000000E+00 0. -1.
         21    1    1    2  502  501  0.33225409231E+01 -0.21413024408E+02  0.11225864994E+03  0.11433092923E+03  0.00000000000E+00 0.  1.
         21    1    1    2  503  502 -0.11543067195E+02  0.24892073374E+02 -0.11922806972E+03  0.12234455577E+03  0.00000000000E+00 0. -1.
<scales pt_clust_5="13000.00000" pt_clust_6="13000.00000" pt_clust_7="13000.00000" pt_clust_8="13000.00000" pt_clust_9="21.66926" pt_clust_10="27.32781"></scales>
<clustering>
<clus scale="   21.669">  1  9  2 -1</clus>
<clus scale="   27.328">  2 10  1 -1</clus>
<clus scale="   91.235">  5  6 -1 -1</clus>
<clus scale="   91.692">  7  8 -1 -1</clus>
<clus scale="  123.626">  2  5  1 -1</clus>
<clus scale="   27.328">  2  5  1 -1</clus>
</clustering>
</event>
<event>
10    2  0.1133532E-006  0.2081656E+03  0.7546771E-02  0.1166013E+00
         -1   -1    0    0    0  501 -0.00000000000E+00  0.00000000000E+00  0.39407312786E+03  0.39407312786E+03  0.00000000000E+00 0.  1.
          1   -1    0    0  503    0  0.00000000000E+00 -0.00000000000E+00 -0.23843453403E+03  0.23843453403E+03  0.00000000000E+00 0. -1.
         23    2    1    2    0    0  0.23172878070E+03  0.19828871824E+02  0.12963867508E+03  0.28121345332E+03  0.90462192603E+02 0.  0.
         23    2    1    2    0    0 -0.92267110930E+02 -0.23180168755E+02 -0.54489865261E+02  0.13951202250E+03  0.86278149162E+02 0.  0.
        -13    1    3    3    0    0  0.10738624526E+03  0.53412075283E+02  0.51175692009E+02  0.13039787924E+03  0.00000000000E+00 0.  1.
         13    1    3    3    0    0  0.12434253544E+03 -0.33583203458E+02  0.78462983069E+02  0.15081557408E+03  0.00000000000E+00 0. -1.
        -13    1    4    4    0    0 -0.39721563467E+02  0.10761387696E+02  0.16992496099E+02  0.44523645326E+02  0.00000000000E+00 0.  1.
         13    1    4    4    0    0 -0.52545547462E+02 -0.33941556450E+02 -0.71482361360E+02  0.94988377173E+02  0.00000000000E+00 0. -1.
         21    1    1    2  502  501 -0.15726483305E+03 -0.23457548350E+02  0.83254222945E+02  0.17948189303E+03  0.00000000000E+00 0.  1.
         21    1    1    2  503  502  0.17803163278E+02  0.26808845280E+02 -0.27644389351E+01  0.32300293042E+02  0.00000000000E+00 0.  1.
<scales pt_clust_5="13000.00000" pt_clust_6="13000.00000" pt_clust_7="13000.00000" pt_clust_8="13000.00000" pt_clust_9="187.48198" pt_clust_10="32.18178"></scales>
<clustering>
<clus scale="   32.182">  2 10  1 -1</clus>
<clus scale="   86.278">  7  8 -1 -1</clus>
<clus scale="   90.462">  5  6 -1 -1</clus>
<clus scale="  121.267">  2  7  1 -1</clus>
<clus scale="  187.482">  1  9  2 -1</clus>
<clus scale="   32.182">  2  5  1 -1</clus>
</clustering>
</event>
<event>
10    2  0.1133532E-006  0.1881633E+03  0.7546771E-02  0.1183332E+00
         -2   -1    0    0    0  501 -0.00000000000E+00  0.00000000000E+00  0.93695012572E+02  0.93695012572E+02  0.00000000000E+00 0.  1.
          2   -1    0    0  502    0  0.00000000000E+00 -0.00000000000E+00 -0.71039708842E+03  0.71039708842E+03  0.00000000000E+00 0. -1.
         23    2    1    2    0    0  0.49252556736E+02 -0.37843149545E+02 -0.48515925800E+02  0.12099624380E+03  0.91806196113E+02 0.  0.
         23    2    1    2    0    0 -0.19198790481E+03 -0.22945870352E+02 -0.27342192520E+03  0.34558571684E+03  0.85346762943E+02 0.  0.
        -11    1    4    4    0    0 -0.16495467559E+03  0.23614192456E+01 -0.25626376437E+03  0.30477325708E+03  0.00000000000E+00 0. -1.
         11    1    4    4    0    0 -0.27033229222E+02 -0.25307289598E+02 -0.17158160827E+02  0.40812459763E+02  0.00000000000E+00 0.  1.
        -13    1    3    3    0    0 -0.11280461242E+02  0.20900857794E+02 -0.22520836411E+02  0.32730455772E+02  0.00000000000E+00 0. -1.
         13    1    3    3    0    0  0.60533017978E+02 -0.58744007340E+02 -0.25995089388E+02  0.88265788028E+02  0.00000000000E+00 0.  1.
         21    1    1    2  502  503  0.10705315274E+03  0.63022337507E+02 -0.19180234586E+03  0.22851768512E+03  0.00000000000E+00 0.  1.
         21    1    1    2  503  501  0.35682195336E+02 -0.22333176093E+01 -0.10296187899E+03  0.10899245523E+03  0.00000000000E+00 0.  1.
<scales pt_clust_5="13000.00000" pt_clust_6="13000.00000" pt_clust_7="13000.00000" pt_clust_8="13000.00000" pt_clust_9="176.29468" pt_clust_10="29.17940"></scales>
<clustering>
<clus scale="   29.179">  9 10 -1 -1</clus>
<clus scale="   85.347">  5  6 -1 -1</clus>
<clus scale="   91.806">  7  8 -1 -1</clus>
<clus scale="  110.844">  1  7  2 -1</clus>
<clus scale="  176.295">  2  9  1 -1</clus>
<clus scale="  176.295">  2  5  1 -1</clus>
</clustering>
</event>
<event>
10    2  0.1133532E-006  0.1320213E+03  0.7546771E-02  0.1226385E+00
          2   -1    0    0  503    0  0.00000000000E+00  0.00000000000E+00  0.74724116294E+03  0.74724116294E+03  0.00000000000E+00 0. -1.
         -2   -1    0    0    0  501 -0.00000000000E+00 -0.00000000000E+00 -0.10034597133E+03  0.10034597133E+03  0.00000000000E+00 0.  1.
         23    2    1    2    0    0  0.90033776336E+02  0.20435235158E+02 -0.64648650997E+01  0.12532359288E+03  0.84501649299E+02 0.  0.
         23    2    1    2    0    0 -0.69839589927E+02 -0.12618769242E+03  0.26978008723E+03  0.31944703444E+03  0.92001142986E+02 0.  0.
        -13    1    4    4    0    0 -0.31321970826E+01 -0.82465127402E+02  0.18748297712E+03  0.20484182826E+03  0.00000000000E+00 0. -1.
         13    1    4    4    0    0 -0.66707392844E+02 -0.43722565015E+02  0.82297110108E+02  0.11460520618E+03  0.00000000000E+00 0.  1.
        -13    1    3    3    0    0  0.54619672396E+02  0.12684952313E+02 -0.45382329803E+02  0.72137178252E+02  0.00000000000E+00 0.  1.
         13    1    3    3    0    0  0.35414103939E+02  0.77502828454E+01  0.38917464703E+02  0.53186414627E+02  0.00000000000E+00 0. -1.
         21    1    1    2  502  501 -0.32162807197E+02  0.62507097714E+02  0.15974143047E+03  0.17452480638E+03  0.00000000000E+00 0.  1.
         21    1    1    2  503  502  0.11968620788E+02  0.43245359545E+02  0.22383853901E+03  0.22829170058E+03  0.00000000000E+00 0. -1.
<scales pt_clust_5="13000.00000" pt_clust_6="13000.00000" pt_clust_7="13000.00000" pt_clust_8="13000.00000" pt_clust_9="81.45833" pt_clust_10="44.87103"></scales>
<clustering>
<clus scale="   44.871">  1 10  2 -1</clus>
<clus scale="   81.458">  1  9  2 -1</clus>
<clus scale="   84.502">  7  8 -1 -1</clus>
<clus scale="   92.001">  5  6 -1 -1</clus>
<clus scale="  126.909">  2  7  1 -1</clus>
<clus scale="   44.871">  1  5  2 -1</clus>
</clustering>
</event>
<event>
10    2  0.1133532E-006  0.9839861E+02  0.7546771E-02  0.1285462E+00
          2   -1    0    0  503    0  0.00000000000E+00  0.00000000000E+00  0.22286256565E+03  0.22286256565E+03  0.00000000000E+00 0. -1.
         -2   -1    0    0    0  501 -0.00000000000E+00 -0.00000000000E+00 -0.31405318989E+03  0.31405318989E+03  0.00000000000E+00 0.  1.
         23    2    1    2    0    0 -0.39113564068E+02 -0.45840602992E+02 -0.50018814338E+02  0.11702905314E+03  0.86963703425E+02 0.  0.
         23    2    1    2    0    0  0.85995738563E+01 -0.23904377870E+01  0.89817368493E+02  0.12780164123E+03  0.90478908888E+02 0.  0.
        -11    1    3    3    0    0 -0.75047214373E+01 -0.46623930467E+02  0.10835108851E+02  0.48451122999E+02  0.00000000000E+00 0.  1.
         11    1    3    3    0    0 -0.31608842631E+02  0.78332747473E+00 -0.60853923189E+02  0.68577930138E+02  0.00000000000E+00 0. -1.
        -11    1    4    4    0    0  0.27783770407E+02 -0.36814505311E+02  0.26417824208E+02  0.53152113178E+02  0.00000000000E+00 0.  1.
         11    1    4    4    0    0 -0.19184196551E+02  0.34424067524E+02  0.63399544285E+02  0.74649528048E+02  0.00000000000E+00 0. -1.
         21    1    1    2  502  501  0.51683970510E+02 -0.84526926592E+01 -0.19623355921E+03  0.20310167548E+03  0.00000000000E+00 0.  1.
         21    1    1    2  503  502 -0.21169980298E+02  0.56683733439E+02  0.65244380821E+02  0.88983385703E+02  0.00000000000E+00 0. -1.
<scales pt_clust_5="13000.00000" pt_clust_6="13000.00000" pt_clust_7="13000.00000" pt_clust_8="13000.00000" pt_clust_9="52.37061" pt_clust_10="58.00203"></scales>
<clustering>
<clus scale="   52.371">  2  9  1 -1</clus>
<clus scale="   58.002">  1 10  2 -1</clus>
<clus scale="   86.964">  5  6 -1 -1</clus>
<clus scale="   90.479">  7  8 -1 -1</clus>
<clus scale="   95.176">  2  5  1 -1</clus>
<clus scale="   58.002">  1  5  2 -1</clus>
</clustering>
</event>
<event>
10    2  0.1133532E-006  0.1894472E+03  0.7546771E-02  0.1159149E+00
         -2   -1    0    0    0  501 -0.00000000000E+00  0.00000000000E+00  0.50071715418E+02  0.50071715418E+02  0.00000000000E+00 0.  1.
          2   -1    0    0  503    0  0.00000000000E+00 -0.00000000000E+00 -0.13621827827E+04  0.13621827827E+04  0.00000000000E+00 0. -1.
         23    2    1    2    0    0 -0.14589041317E+03  0.24996016887E+02 -0.47783559163E+03  0.50853619602E+03  0.91506264920E+02 0.  0.
         23    2    1    2    0    0  0.17961763325E+03 -0.39713502862E+02 -0.57527784673E+03  0.61112331432E+03  0.93206479830E+02 0.  0.
        -13    1    3    3    0    0 -0.13271018665E+03 -0.90150543744E+01 -0.32007989358E+03  0.34661852680E+03  0.00000000000E+00 0. -1.
         13    1    3    3    0    0 -0.13180226526E+02  0.34011071261E+02 -0.15775569805E+03  0.16191766923E+03  0.00000000000E+00 0.  1.
        -13    1    4    4    0    0  0.79241605572E+02 -0.59621681094E+02 -0.34834174938E+03  0.36218220728E+03  0.00000000000E+00 0. -1.
         13    1    4    4    0    0  0.10037602767E+03  0.19908178233E+02 -0.22693609735E+03  0.24894110704E+03  0.00000000000E+00 0.  1.
         21    1    1    2  502  501 -0.13801033487E+02 -0.19662805722E+02  0.58973382256E+01  0.24736067843E+02  0.00000000000E+00 0. -1.
         21    1    1    2  503  502 -0.19926186587E+02  0.34380291697E+02 -0.26489496716E+03  0.26785891995E+03  0.00000000000E+00 0. -1.
<scales pt_clust_5="13000.00000" pt_clust_6="13000.00000" pt_clust_7="13000.00000" pt_clust_8="13000.00000" pt_clust_9="24.02279" pt_clust_10="39.31804"></scales>
<clustering>
<clus scale="   24.023">  1  9  2 -1</clus>
<clus scale="   39.318">  2 10  1 -1</clus>
<clus scale="   91.506">  5  6 -1 -1</clus>
<clus scale="   93.206">  7  8 -1 -1</clus>
<clus scale="  188.616">  1  5  2 -1</clus>
<clus scale="   39.318">  2  5  1 -1</clus>
</clustering>
</event>
<event>
10    2  0.1133532E-006  0.2501914E+03  0.7546771E-02  0.1151415E+00
         -2   -1    0    0    0  501 -0.00000000000E+00  0.00000000000E+00  0.22799275455E+03  0.22799275455E+03  0.00000000000E+00 0.  1.
          2   -1    0    0  503    0  0.00000000000E+00 -0.00000000000E+00 -0.10623147675E+04  0.10623147675E+04  0.00000000000E+00 0. -1.
         23    2    1    2    0    0 -0.34737863358E+02 -0.20751717475E+02 -0.85455918344E+02  0.13009999385E+03  0.89364095085E+02 0.  0.
         23    2    1    2    0    0  0.20614857134E+03  0.11773457681E+03 -0.87057867891E+03  0.90696821582E+03  0.91243872693E+02 0.  0.
        -13    1    3    3    0    0  0.37607993090E+01  0.24870040335E+02  0.84276488523E+00  0.25166898306E+02  0.00000000000E+00 0. -1.
         13    1    3    3    0    0 -0.38498662667E+02 -0.45621757810E+02 -0.86298683230E+02  0.10493309554E+03  0.00000000000E+00 0.  1.
        -13    1    4    4    0    0  0.46946925652E+02  0.59511030898E+02 -0.39183977095E+03  0.39910397483E+03  0.00000000000E+00 0.  1.
         13    1    4    4    0    0  0.15920164569E+03  0.58223545913E+02 -0.47873890796E+03  0.50786424099E+03  0.00000000000E+00 0. -1.
         21    1    1    2  502  501 -0.12065830547E+02  0.17555331465E+02  0.29571205844E+02  0.36444891888E+02  0.00000000000E+00 0. -1.
         21    1    1    2  503  502 -0.15934487743E+03 -0.11453819080E+03  0.92141378485E+02  0.21679442047E+03  0.00000000000E+00 0.  1.
<scales pt_clust_5="13000.00000" pt_clust_6="13000.00000" pt_clust_7="13000.00000" pt_clust_8="13000.00000" pt_clust_9="21.30197" pt_clust_10="232.95990"></scales>
<clustering>
<clus scale="   21.302">  1  9  2 -1</clus>
<clus scale="   89.364">  5  6 -1 -1</clus>
<clus scale="   91.244">  7  8 -1 -1</clus>
<clus scale="   98.193">  1  5  2 -1</clus>
<clus scale="  232.960">  1 10  2 -1</clus>
<clus scale="  250.191">  2  5  1 -1</clus>
</clustering>
</event>
<event>
10    2  0.1133532E-006  0.1041276E+03  0.7546771E-02  0.1272564E+00
         -1   -1    0    0    0  501 -0.00000000000E+00  0.00000000000E+00  0.40907316227E+03  0.40907316227E+03  0.00000000000E+00 0.  1.
          1   -1    0    0  503    0  0.00000000000E+00 -0.00000000000E+00 -0.16589364344E+03  0.16589364344E+03  0.00000000000E+00 0. -1.
         23    2    1    2    0    0  0.34991642703E+02 -0.40921235517E+02  0.31258431179E+03  0.33051256270E+03  0.92901235474E+02 0.  0.
         23    2    1    2    0    0 -0.38444686008E+02  0.38495385849E+02 -0.93654217649E+02  0.14165667231E+03  0.91299571267E+02 0.  0.
        -11    1    3    3    0    0 -0.18907691485E+02 -0.44195046079E+02  0.19932413811E+03  0.20503856937E+03  0.00000000000E+00 0.  1.
         11    1    3    3    0    0  0.53899334188E+02  0.32738105624E+01  0.11326017367E+03  0.12547399333E+03  0.00000000000E+00 0. -1.
        -11    1    4    4    0    0  0.29005464351E+02  0.14849461983E+02 -0.16648664676E+02  0.36592369681E+02  0.00000000000E+00 0. -1.
         11    1    4    4    0    0 -0.67450150359E+02  0.23645923866E+02 -0.77005552974E+02  0.10506430263E+03  0.00000000000E+00 0.  1.
         21    1    1    2  502  501  0.76420446583E+01  0.22593990870E+02  0.58306168322E+02  0.62996019989E+02  0.00000000000E+00 0.  1.
         21    1    1    2  503  502 -0.41890013528E+01 -0.20168141202E+02 -0.34056743629E+02  0.39801550705E+02  0.00000000000E+00 0. -1.
<scales pt_clust_5="13000.00000" pt_clust_6="13000.00000" pt_clust_7="13000.00000" pt_clust_8="13000.00000" pt_clust_9="23.47966" pt_clust_10="20.59858"></scales>
<clustering>
<clus scale="   20.599">  2 10  1 -1</clus>
<clus scale="   23.480">  1  9  2 -1</clus>
<clus scale="   91.300">  7  8 -1 -1</clus>
<clus scale="   92.901">  5  6 -1 -1</clus>
<clus scale="  102.701">  2  7  1 -1</clus>
<clus scale="   20.599">  2  5  1 -1</clus>
</clustering>
</event>
<event>
10    2  0.1133532E-006  0.9558413E+02  0.7546771E-02  0.1290003E+00
          2   -1    0    0  503    0  0.00000000000E+00  0.00000000000E+00  0.39113751656E+03  0.39113751656E+03  0.00000000000E+00 0. -1.
         -2   -1    0    0    0  501 -0.00000000000E+00 -0.00000000000E+00 -0.73980452375E+02  0.73980452375E+02  0.00000000000E+00 0.  1.
         23    2    1    2    0    0 -0.17876993487E+02  0.10714278515E+02  0.64446506033E+02  0.11443735577E+03  0.92239761464E+02 0.  0.
         23    2    1    2    0    0  0.39546807693E+01 -0.36303187975E+02  0.81200676777E+02  0.12801678714E+03  0.91984710276E+02 0.  0.
        -11    1    4    4    0    0  0.39921123665E+02 -0.16285324577E+02  0.74833629509E+02  0.86365386682E+02  0.00000000000E+00 0. -1.
         11    1    4    4    0    0 -0.35966442896E+02 -0.20017863398E+02  0.63670472681E+01  0.41651400462E+02  0.00000000000E+00 0.  1.
        -13    1    3    3    0    0 -0.67840726629E+01  0.50681900364E+02  0.46952763113E+02  0.69420750719E+02  0.00000000000E+00 0.  1.
         13    1    3    3    0    0 -0.11092920824E+02 -0.39967621850E+02  0.17493742920E+02  0.45016605048E+02  0.00000000000E+00 0. -1.
         21    1    1    2  502  501 -0.16790104452E+02 -0.12727781461E+02 -0.17493824234E+02  0.27384994335E+02  0.00000000000E+00 0.  1.
         21    1    1    2  503  502  0.30712417169E+02  0.38316690921E+02  0.18900370561E+03  0.19527883169E+03  0.00000000000E+00 0. -1.
<scales pt_clust_5="13000.00000" pt_clust_6="13000.00000" pt_clust_7="13000.00000" pt_clust_8="13000.00000" pt_clust_9="21.06903" pt_clust_10="47.86343"></scales>
<clustering>
<clus scale="   21.069">  2  9  1 -1</clus>
<clus scale="   47.863">  1 10  2 -1</clus>
<clus scale="   91.985">  5  6 -1 -1</clus>
<clus scale="   92.240">  7  8 -1 -1</clus>
<clus scale="   95.338">  1  5  2 -1</clus>
<clus scale="   47.863">  1  5  2 -1</clus>
</clustering>
</event>
<event>
10    2  0.1133532E-006  0.1331300E+03  0.7546771E-02  0.1229533E+00
          1   -1    0    0  503    0  0.00000000000E+00  0.00000000000E+00  0.76721512553E+03  0.76721512553E+03  0.00000000000E+00 0. -1.
         -1   -1    0    0    0  501 -0.00000000000E+00 -0.00000000000E+00 -0.32356433085E+02  0.32356433085E+02  0.00000000000E+00 0.  1.
         23    2    1    2    0    0  0.33610188133E+02  0.77299334054E+02  0.19459430003E+03  0.23042032591E+03  0.90120770055E+02 0.  0.
         23    2    1    2    0    0 -0.21810937434E+01 -0.58840472090E+02  0.43009583942E+03  0.44816356132E+03  0.11136062267E+03 0.  0.
        -11    1    3    3    0    0  0.42712347708E+02  0.46108706157E+02  0.44904695477E+02  0.77244994052E+02  0.00000000000E+00 0.  1.
         11    1    3    3    0    0 -0.91021595755E+01  0.31190627898E+02  0.14968960456E+03  0.15317533186E+03  0.00000000000E+00 0. -1.
        -13    1    4    4    0    0 -0.50940240544E+02 -0.46059223870E+02  0.31683445869E+03  0.32419197156E+03  0.00000000000E+00 0. -1.
         13    1    4    4    0    0  0.48759146800E+02 -0.12781248220E+02  0.11326138073E+03  0.12397158976E+03  0.00000000000E+00 0.  1.
         21    1    1    2  502  501 -0.26442148426E+02  0.10791470409E+01  0.39864667157E+02  0.47849174071E+02  0.00000000000E+00 0. -1.
         21    1    1    2  503  502 -0.49869459630E+01 -0.19538009005E+02  0.70303885833E+02  0.73138497313E+02  0.00000000000E+00 0. -1.
<scales pt_clust_5="13000.00000" pt_clust_6="13000.00000" pt_clust_7="13000.00000" pt_clust_8="13000.00000" pt_clust_9="26.75706" pt_clust_10="20.16441"></scales>
<clustering>
<clus scale="   20.164">  1 10  2 -1</clus>
<clus scale="   26.757">  2  9  1 -1</clus>
<clus scale="   90.121">  5  6 -1 -1</clus>
<clus scale="  111.361">  7  8 -1 -1</clus>
<clus scale="  115.949">  2  5  1 -1</clus>
<clus scale="   20.164">  1  5  2 -1</clus>
</clustering>
</event>
<event>
10    2  0.1133532E-006  0.1108555E+03  0.7546771E-02  0.1259827E+00
         -2   -1    0    0    0  501 -0.00000000000E+00  0.00000000000E+00  0.32374422069E+02  0.32374422069E+02  0.00000000000E+00 0.  1.
          2   -1    0    0  503    0  0.00000000000E+00 -0.00000000000E+00 -0.87885366303E+03  0.87885366303E+03  0.00000000000E+00 0. -1.
         23    2    1    2    0    0 -0.21842635576E+02  0.35285975580E+02 -0.23957348816E+03  0.25956269196E+03  0.90857768118E+02 0.  0.
         23    2    1    2    0    0  0.67242512002E+02 -0.52582877528E+02 -0.32853039509E+03  0.35195215389E+03  0.93013889822E+02 0.  0.
        -11    1    4    4    0    0  0.40352603404E+02  0.10819932587E+02 -0.50610696526E+02  0.65626565853E+02  0.00000000000E+00 0.  1.
         11    1    4    4    0    0  0.26889908598E+02 -0.63402810115E+02 -0.27791969856E+03  0.28632558804E+03  0.00000000000E+00 0. -1.
        -13    1    3    3    0    0  0.29134282677E+02  0.38157709850E+02 -0.13275128836E+03  0.14116558295E+03  0.00000000000E+00 0.  1.
         13    1    3    3    0    0 -0.50976918253E+02 -0.28717342708E+01 -0.10682219980E+03  0.11839710901E+03  0.00000000000E+00 0. -1.
         21    1    1    2  502  501  0.80214747175E+01  0.21270086386E+02 -0.80258443689E+01  0.24107567470E+02  0.00000000000E+00 0.  1.
         21    1    1    2  503  502 -0.53421351144E+02 -0.39731844376E+01 -0.27034951334E+03  0.27560567178E+03  0.00000000000E+00 0. -1.
<scales pt_clust_5="13000.00000" pt_clust_6="13000.00000" pt_clust_7="13000.00000" pt_clust_8="13000.00000" pt_clust_9="22.73237" pt_clust_10="52.58173"></scales>
<clustering>
<clus scale="   22.732">  1  9  2 -1</clus>
<clus scale="   52.582">  2 10  1 -1</clus>
<clus scale="   90.858">  7  8 -1 -1</clus>
<clus scale="   93.014">  5  6 -1 -1</clus>
<clus scale="  109.053">  1  7  2 -1</clus>
<clus scale="   52.582">  2  5  1 -1</clus>
</clustering>
</event>
<event>
10    2  0.1133532E-006  0.1735711E+03  0.7546771E-02  0.1174296E+00
         -2   -1    0    0    0  501 -0.00000000000E+00  0.00000000000E+00  0.28022510506E+03  0.28022510506E+03  0.00000000000E+00 0.  1.
          2   -1    0    0  503    0  0.00000000000E+00 -0.00000000000E+00 -0.30016236898E+03  0.30016236898E+03  0.00000000000E+00 0. -1.
         23    2    1    2    0    0 -0.10955408743E+03  0.19662036890E+03 -0.12696691893E+02  0.24352782891E+03  0.92102822591E+02 0.  0.
         23    2    1    2    0    0  0.37884460188E+02 -0.94653525465E+02 -0.88309934567E+02  0.16281945965E+03  0.91197640814E+02 0.  0.
        -13    1    4    4    0    0  0.54685729395E+02 -0.77871065788E+02 -0.98520789178E+02  0.13696998863E+03  0.00000000000E+00 0. -1.
         13    1    4    4    0    0 -0.16801269207E+02 -0.16782459677E+02  0.10210854611E+02  0.25849471013E+02  0.00000000000E+00 0.  1.
        -13    1    3    3    0    0 -0.87926309388E+02  0.19857229145E+03 -0.24945017755E+02  0.21859607664E+03  0.00000000000E+00 0.  1.
         13    1    3    3    0    0 -0.21627778044E+02 -0.19519225454E+01  0.12248325862E+02  0.24931752268E+02  0.00000000000E+00 0. -1.
         21    1    1    2  502  501  0.68901666287E+02 -0.66745450539E+02  0.95973053961E+02  0.13569532738E+03  0.00000000000E+00 0. -1.
         21    1    1    2  503  502  0.27679609569E+01 -0.35221392896E+02 -0.14903691413E+02  0.38344858106E+02  0.00000000000E+00 0. -1.
<scales pt_clust_5="13000.00000" pt_clust_6="13000.00000" pt_clust_7="13000.00000" pt_clust_8="13000.00000" pt_clust_9="97.86754" pt_clust_10="35.32999"></scales>
<clustering>
<clus scale="   35.330">  2 10  1 -1</clus>
<clus scale="   91.198">  5  6 -1 -1</clus>
<clus scale="   92.103">  7  8 -1 -1</clus>
<clus scale="   97.868">  1  9  2 -1</clus>
<clus scale="  173.092">  2  5  1 -1</clus>
<clus scale="   35.330">  2  5  1 -1</clus>
</clustering>
</event>
<event>
10    2  0.1133532E-006  0.2358656E+03  0.7546771E-02  0.1122797E+00
         -1   -1    0    0    0  501 -0.00000000000E+00  0.00000000000E+00  0.25710949068E+03  0.25710949068E+03  0.00000000000E+00 0.  1.
          1   -1    0    0  503    0  0.00000000000E+00 -0.00000000000E+00 -0.43130893389E+03  0.43130893389E+03  0.00000000000E+00 0. -1.
         23    2    1    2    0    0  0.16891848200E+03  0.86920428971E+02  0.13174653112E+02  0.21158723562E+03  0.92233249211E+02 0.  0.
         23    2    1    2    0    0 -0.22339435203E+03 -0.35015792577E+02 -0.16967528473E+03  0.29635319299E+03  0.88906526751E+02 0.  0.
        -11    1    3    3    0    0  0.12282717186E+02 -0.18256824918E+02  0.58728963878E+01  0.22774277366E+02  0.00000000000E+00 0. -1.
         11    1    3    3    0    0  0.15663576482E+03  0.10517725389E+03  0.73017567242E+01  0.18881295826E+03  0.00000000000E+00 0.  1.
        -11    1    4    4    0    0 -0.10850342677E+02 -0.28199415552E+02 -0.24028325484E+02  0.38604370210E+02  0.00000000000E+00 0.  1.
         11    1    4    4    0    0 -0.21254400936E+03 -0.68163770251E+01 -0.14564695925E+03  0.25774882278E+03  0.00000000000E+00 0. -1.
         21    1    1    2  502  501  0.72288192913E+02  0.23603421956E+02  0.37964563638E+02  0.84994190713E+02  0.00000000000E+00 0.  1.
         21    1    1    2  503  502 -0.17812322883E+02 -0.75508058350E+02 -0.55663375221E+02  0.95483805241E+02  0.00000000000E+00 0. -1.
<scales pt_clust_5="13000.00000" pt_clust_6="13000.00000" pt_clust_7="13000.00000" pt_clust_8="13000.00000" pt_clust_9="76.04409" pt_clust_10="73.84966"></scales>
<clustering>
<clus scale="   76.044">  1  9  2 -1</clus>
<clus scale="   73.850">  2 10  1 -1</clus>
<clus scale="   88.907">  7  8 -1 -1</clus>
<clus scale="   92.233">  5  6 -1 -1</clus>
<clus scale="  234.585">  2  7  1 -1</clus>
<clus scale="   73.850">  2  5  1 -1</clus>
</clustering>
</event>
<event>
10    2  0.1133532E-006  0.1211064E+03  0.7546771E-02  0.1241676E+00
         -2   -1    0    0    0  501 -0.00000000000E+00  0.00000000000E+00  0.16958006471E+03  0.16958006471E+03  0.00000000000E+00 0.  1.
          2   -1    0    0  503    0  0.00000000000E+00 -0.00000000000E+00 -0.43146470384E+03  0.43146470384E+03  0.00000000000E+00 0. -1.
         23    2    1    2    0    0 -0.13527872262E+02 -0.74654659835E+02  0.42483870128E+02  0.12549106011E+03  0.90480966966E+02 0.  0.
         23    2    1    2    0    0  0.15107213451E+01  0.39730852259E+02 -0.26332232393E+03  0.28166993702E+03  0.91752298282E+02 0.  0.
        -11    1    3    3    0    0 -0.21577802085E+02 -0.44657609160E+02 -0.21738978383E+02  0.54152440202E+02  0.00000000000E+00 0. -1.
         11    1    3    3    0    0  0.80499298236E+01 -0.29997050675E+02  0.64222848511E+02  0.71338619907E+02  0.00000000000E+00 0.  1.
        -13    1    4    4    0    0  0.40973085507E+02  0.49554581388E+01 -0.16588636052E+03  0.17094336755E+03  0.00000000000E+00 0.  1.
         13    1    4    4    0    0 -0.39462364162E+02  0.34775394120E+02 -0.97435963403E+02  0.11072656947E+03  0.00000000000E+00 0. -1.
         21    1    1    2  502  501 -0.28411106129E+02 -0.49784239002E+01  0.66373443736E+02  0.72369950183E+02  0.00000000000E+00 0.  1.
         21    1    1    2  503  502  0.40428257045E+02  0.39902231476E+02 -0.10741962907E+03  0.12151382125E+03  0.00000000000E+00 0.  1.
<scales pt_clust_5="13000.00000" pt_clust_6="13000.00000" pt_clust_7="13000.00000" pt_clust_8="13000.00000" pt_clust_9="28.84399" pt_clust_10="55.14758"></scales>
<clustering>
<clus scale="   28.844">  1  9  2 -1</clus>
<clus scale="   55.148">  2 10  1 -1</clus>
<clus scale="   90.481">  5  6 -1 -1</clus>
<clus scale="   91.752">  7  8 -1 -1</clus>
<clus scale="  120.146">  1  5  2 -1</clus>
<clus scale="   55.148">  2  5  1 -1</clus>
</clustering>
</event>
<event>
10    2  0.1133532E-006  0.9880152E+02  0.7546771E-02  0.1283371E+00
          2   -1    0    0  502    0  0.00000000000E+00  0.00000000000E+00  0.84619420979E+02  0.84619420979E+02  0.00000000000E+00 0. -1.
         -2   -1    0    0    0  501 -0.00000000000E+00 -0.00000000000E+00 -0.32544324716E+03  0.32544324716E+03  0.00000000000E+00 0.  1.
         23    2    1    2    0    0 -0.30384527538E+02  0.40203990542E+02 -0.22546601844E+03  0.24791594415E+03  0.89932249644E+02 0.  0.
         23    2    1    2    0    0  0.14643540476E+02 -0.44491993938E+02  0.16226566048E+02  0.10363747711E+03  0.91013484796E+02 0.  0.
        -11    1    3    3    0    0 -0.48595506421E+02 -0.83865914428E+01 -0.86381773005E+02  0.99466923486E+02  0.00000000000E+00 0.  1.
         11    1    3    3    0    0  0.18210978882E+02  0.48590581985E+02 -0.13908424543E+03  0.14844902067E+03  0.00000000000E+00 0. -1.
        -11    1    4    4    0    0 -0.32860532058E+02 -0.20447004384E+02 -0.15463312366E+02  0.41677434959E+02  0.00000000000E+00 0.  1.
         11    1    4    4    0    0  0.47504072534E+02 -0.24044989554E+02  0.31689878413E+02  0.61960042155E+02  0.00000000000E+00 0. -1.
         21    1    1    2  502  503  0.13069272029E+02  0.24826149319E+02 -0.14075606114E+02  0.31388951063E+02  0.00000000000E+00 0.  1.
         21    1    1    2  503  501  0.26717150337E+01 -0.20538145923E+02 -0.17508767676E+02  0.27120295807E+02  0.00000000000E+00 0. -1.
<scales pt_clust_5="13000.00000" pt_clust_6="13000.00000" pt_clust_7="13000.00000" pt_clust_8="13000.00000" pt_clust_9="26.80146" pt_clust_10="20.71119"></scales>
<clustering>
<clus scale="   20.711">  2 10  1 -1</clus>
<clus scale="   26.801">  1  9  2 -1</clus>
<clus scale="   89.932">  5  6 -1 -1</clus>
<clus scale="   91.013">  7  8 -1 -1</clus>
<clus scale="   97.806">  2  5  1 -1</clus>
<clus scale="   26.801">  1  5  2 -1</clus>
</clustering>
</event>
<event>
10    2  0.1133532E-006  0.1226660E+03  0.7546771E-02  0.1241631E+00
         -3   -1    0    0    0  501 -0.00000000000E+00  0.00000000000E+00  0.37144389082E+03  0.37144389082E+03  0.00000000000E+00 0.  1.
          3   -1    0    0  503    0  0.00000000000E+00 -0.00000000000E+00 -0.26932647535E+03  0.26932647535E+03  0.00000000000E+00 0. -1.
         23    2    1    2    0    0  0.39982555070E+02  0.16224835402E+02  0.10860667643E+03  0.14838498943E+03  0.91437655975E+02 0.  0.
         23    2    1    2    0    0 -0.11860962301E+03  0.63203379924E+01 -0.14243651780E+03  0.20273893669E+03  0.81894599984E+02 0.  0.
        -11    1    4    4    0    0 -0.58709039783E+02 -0.31185280225E+01 -0.13598928146E+02  0.60344075235E+02  0.00000000000E+00 0.  1.
         11    1    4    4    0    0 -0.59900583226E+02  0.94388660150E+01 -0.12883758965E+03  0.14239486146E+03  0.00000000000E+00 0. -1.
        -11    1    3    3    0    0  0.65146536181E+02 -0.79789911065E+01  0.63287320989E+02  0.91175766920E+02  0.00000000000E+00 0.  1.
         11    1    3    3    0    0 -0.25163981111E+02  0.24203826509E+02  0.45319355438E+02  0.57209222512E+02  0.00000000000E+00 0. -1.
         21    1    1    2  502  501  0.44566470900E+02 -0.65612252150E+00  0.20489668266E+03  0.20968846270E+03  0.00000000000E+00 0.  1.
         21    1    1    2  503  502  0.34060597039E+02 -0.21889050873E+02 -0.68949425827E+02  0.79957977342E+02  0.00000000000E+00 0. -1.
<scales pt_clust_5="13000.00000" pt_clust_6="13000.00000" pt_clust_7="13000.00000" pt_clust_8="13000.00000" pt_clust_9="44.99475" pt_clust_10="40.48771"></scales>
<clustering>
<clus scale="   40.488">  2 10  1 -1</clus>
<clus scale="   44.995">  1  9  2 -1</clus>
<clus scale="   81.895">  5  6 -1 -1</clus>
<clus scale="   91.438">  7  8 -1 -1</clus>
<clus scale="  115.727">  2  5  1 -1</clus>
<clus scale="   40.488">  2  5  1 -1</clus>
</clustering>
</event>
<event>
10    2  0.1133532E-006  0.1477987E+03  0.7546771E-02  0.1203305E+00
          1   -1    0    0  503    0  0.00000000000E+00  0.00000000000E+00  0.92641943257E+03  0.92641943257E+03  0.00000000000E+00 0. -1.
         -1   -1    0    0    0  501 -0.00000000000E+00 -0.00000000000E+00 -0.30877519973E+03  0.30877519973E+03  0.00000000000E+00 0.  1.
         23    2    1    2    0    0  0.51674116492E+02 -0.11458775958E+03  0.75741906732E+02  0.17356295891E+03  0.92664423112E+02 0.  0.
         23    2    1    2    0    0 -0.12783458728E+03  0.65154610264E+02  0.69047215146E+03  0.71121764173E+03  0.92151706521E+02 0.  0.
        -11    1    3    3    0    0  0.58592821883E+02 -0.88346767000E+02  0.93316770044E+02  0.14123133359E+03  0.00000000000E+00 0.  1.
         11    1    3    3    0    0 -0.69187053903E+01 -0.26240992577E+02 -0.17574863312E+02  0.32331625325E+02  0.00000000000E+00 0. -1.
        -13    1    4    4    0    0  0.12513408527E+02  0.19058678704E+02  0.91369647793E+02  0.94171286307E+02  0.00000000000E+00 0.  1.
         13    1    4    4    0    0 -0.14034799581E+03  0.46095931559E+02  0.59910250367E+03  0.61704635542E+03  0.00000000000E+00 0. -1.
         21    1    1    2  502  501  0.40122891945E+02  0.53062392569E+02 -0.24159491780E+03  0.25058644870E+03  0.00000000000E+00 0.  1.
         21    1    1    2  503  502  0.36037578847E+02 -0.36292432557E+01  0.93025092444E+02  0.99827582962E+02  0.00000000000E+00 0.  1.
<scales pt_clust_5="13000.00000" pt_clust_6="13000.00000" pt_clust_7="13000.00000" pt_clust_8="13000.00000" pt_clust_9="66.62642" pt_clust_10="36.21986"></scales>
<clustering>
<clus scale="   36.220">  1 10  2 -1</clus>
<clus scale="   66.626">  2  9  1 -1</clus>
<clus scale="   92.152">  7  8 -1 -1</clus>
<clus scale="   92.664">  5  6 -1 -1</clus>
<clus scale="  147.478">  1  7  2 -1</clus>
<clus scale="   36.220">  1  5  2 -1</clus>
</clustering>
</event>
<event>
10    2  0.1133532E-006  0.1374824E+03  0.7546771E-02  0.1217258E+00
         -1   -1    0    0    0  501 -0.00000000000E+00  0.00000000000E+00  0.97739808572E+02  0.97739808572E+02  0.00000000000E+00 0.  1.
          1   -1    0    0  503    0  0.00000000000E+00 -0.00000000000E+00 -0.53892897008E+03  0.53892897008E+03  0.00000000000E+00 0. -1.
         23    2    1    2    0    0 -0.10425051460E+03  0.25716647291E+02 -0.49021631168E+02  0.14772999400E+03  0.88834199841E+02 0.  0.
         23    2    1    2    0    0  0.12093358424E+03 -0.34583248711E+01 -0.27886315631E+03  0.31731390850E+03  0.91030570540E+02 0.  0.
        -11    1    4    4    0    0  0.66334842178E+02 -0.46297914653E+02 -0.13080196723E+03  0.15379519764E+03  0.00000000000E+00 0.  1.
         11    1    4    4    0    0  0.54598742059E+02  0.42839589782E+02 -0.14806118908E+03  0.16351871086E+03  0.00000000000E+00 0. -1.
        -13    1    3    3    0    0 -0.57042079414E+02 -0.31342913474E+02 -0.27042624596E+02  0.70480356085E+02  0.00000000000E+00 0.  1.
         13    1    3    3    0    0 -0.47208435187E+02  0.57059560765E+02 -0.21979006572E+02  0.77249637911E+02  0.00000000000E+00 0. -1.
         21    1    1    2  502  501  0.11860314325E+02 -0.18566135549E+02  0.23273604402E+02  0.32047294847E+02  0.00000000000E+00 0. -1.
         21    1    1    2  503  502 -0.28543383962E+02 -0.36921868705E+01 -0.13657797843E+03  0.13957758131E+03  0.00000000000E+00 0.  1.
<scales pt_clust_5="13000.00000" pt_clust_6="13000.00000" pt_clust_7="13000.00000" pt_clust_8="13000.00000" pt_clust_9="22.03108" pt_clust_10="28.58362"></scales>
<clustering>
<clus scale="   22.031">  1  9  2 -1</clus>
<clus scale="   28.584">  2 10  1 -1</clus>
<clus scale="   88.834">  7  8 -1 -1</clus>
<clus scale="   91.031">  5  6 -1 -1</clus>
<clus scale="  136.038">  1  7  2 -1</clus>
<clus scale="   28.584">  2  5  1 -1</clus>
</clustering>
</event>
<event>
10    2  0.1133532E-006  0.9798971E+02  0.7546771E-02  0.1284590E+00
         -1   -1    0    0    0  501 -0.00000000000E+00  0.00000000000E+00  0.70360345054E+02  0.70360345054E+02  0.00000000000E+00 0.  1.
          1   -1    0    0  502    0  0.00000000000E+00 -0.00000000000E+00 -0.37277909568E+03  0.37277909568E+03  0.00000000000E+00 0. -1.
         23    2    1    2    0    0  0.12445169913E+02 -0.27430696879E+01 -0.60500822941E+02  0.11025073221E+03  0.91282351473E+02 0.  0.
         23    2    1    2    0    0 -0.10137042665E+02 -0.49137793045E+02 -0.25202456350E+03  0.27270732159E+03  0.91299618286E+02 0.  0.
        -11    1    3    3    0    0  0.16898541379E+02  0.42999631148E+02 -0.31042689125E+02  0.55661274938E+02  0.00000000000E+00 0.  1.
         11    1    3    3    0    0 -0.44533714658E+01 -0.45742700836E+02 -0.29458133816E+02  0.54589457270E+02  0.00000000000E+00 0. -1.
        -13    1    4    4    0    0  0.12400810311E+02  0.23026586629E+02 -0.41862617566E+02  0.49360738828E+02  0.00000000000E+00 0.  1.
         13    1    4    4    0    0 -0.22537852976E+02 -0.72164379674E+02 -0.21016194593E+03  0.22334658276E+03  0.00000000000E+00 0. -1.
         21    1    1    2  502  503  0.91375651640E+01  0.30590059514E+02  0.15385212499E+02  0.35439407470E+02  0.00000000000E+00 0.  1.
         21    1    1    2  503  501 -0.11445692412E+02  0.21290803219E+02 -0.52785766892E+01  0.24741979476E+02  0.00000000000E+00 0.  1.
<scales pt_clust_5="13000.00000" pt_clust_6="13000.00000" pt_clust_7="13000.00000" pt_clust_8="13000.00000" pt_clust_9="39.75168" pt_clust_10="24.17234"></scales>
<clustering>
<clus scale="   24.172">  1 10  2 -1</clus>
<clus scale="   39.752">  1  9  2 -1</clus>
<clus scale="   91.282">  5  6 -1 -1</clus>
<clus scale="   91.300">  7  8 -1 -1</clus>
<clus scale="   97.974">  1  5  2 -1</clus>
<clus scale="   97.990">  2  5  1 -1</clus>
</clustering>
</event>
<event>
10    2  0.1133532E-006  0.1166593E+03  0.7546771E-02  0.1249653E+00
          1   -1    0    0  503    0  0.00000000000E+00  0.00000000000E+00  0.22243171362E+03  0.22243171362E+03  0.00000000000E+00 0. -1.
         -1   -1    0    0    0  501 -0.00000000000E+00 -0.00000000000E+00 -0.13762284446E+03  0.13762284446E+03  0.00000000000E+00 0.  1.
         23    2    1    2    0    0 -0.66269086100E+02  0.73487660774E+02  0.22123934705E+02  0.13590801766E+03  0.90495816027E+02 0.  0.
         23    2    1    2    0    0  0.40650622678E+02 -0.22814518667E+02  0.21895080937E+02  0.10651229192E+03  0.93233568922E+02 0.  0.
        -11    1    3    3    0    0 -0.34380847972E+02  0.34182631742E+02  0.56707630354E+02  0.74607307688E+02  0.00000000000E+00 0. -1.
         11    1    3    3    0    0 -0.31888238128E+02  0.39305029032E+02 -0.34583695649E+02  0.61300709970E+02  0.00000000000E+00 0.  1.
        -13    1    4    4    0    0 -0.21079294399E+02  0.18746804532E+02 -0.21902441357E+01  0.28294460623E+02  0.00000000000E+00 0.  1.
         13    1    4    4    0    0  0.61729917077E+02 -0.41561323199E+02  0.24085325072E+02  0.78217831294E+02  0.00000000000E+00 0. -1.
         21    1    1    2  502  501  0.91848915110E+01 -0.38174941959E+02 -0.26419462840E+02  0.47325219940E+02  0.00000000000E+00 0. -1.
         21    1    1    2  503  502  0.16433571911E+02 -0.12498200149E+02  0.67209316361E+02  0.70309028570E+02  0.00000000000E+00 0. -1.
<scales pt_clust_5="13000.00000" pt_clust_6="13000.00000" pt_clust_7="13000.00000" pt_clust_8="13000.00000" pt_clust_9="40.36214" pt_clust_10="20.64624"></scales>
<clustering>
<clus scale="   20.646">  1 10  2 -1</clus>
<clus scale="   40.362">  2  9  1 -1</clus>
<clus scale="   90.496">  5  6 -1 -1</clus>
<clus scale="   93.234">  7  8 -1 -1</clus>
<clus scale="  114.483">  2  5  1 -1</clus>
<clus scale="   20.646">  1  5  2 -1</clus>
</clustering>
</event>
<event>
10    2  0.1133532E-006  0.1242598E+03  0.7546771E-02  0.1238592E+00
         -2   -1    0    0    0  501 -0.00000000000E+00  0.00000000000E+00  0.28063214848E+03  0.28063214848E+03  0.00000000000E+00 0.  1.
          2   -1    0    0  503    0  0.00000000000E+00 -0.00000000000E+00 -0.20888736331E+03  0.20888736331E+03  0.00000000000E+00 0. -1.
         23    2    1    2    0    0 -0.90674323130E+02 -0.53597156988E+02  0.59759238900E+02  0.15865714919E+03  0.10250090849E+03 0.  0.
         23    2    1    2    0    0 -0.18210305167E+02  0.77843534622E+02 -0.48428988874E+02  0.13351047166E+03  0.95333351887E+02 0.  0.
        -11    1    3    3    0    0 -0.31339521788E+02 -0.68261371572E+02  0.62149782721E+02  0.97490389101E+02  0.00000000000E+00 0.  1.
         11    1    3    3    0    0 -0.59334801343E+02  0.14664214584E+02 -0.23905438206E+01  0.61166760087E+02  0.00000000000E+00 0. -1.
        -13    1    4    4    0    0 -0.34734024416E+02 -0.66428784492E+01 -0.27809814209E+02  0.44988510228E+02  0.00000000000E+00 0.  1.
         13    1    4    4    0    0  0.16523719248E+02  0.84486413071E+02 -0.20619174665E+02  0.88521961429E+02  0.00000000000E+00 0. -1.
         21    1    1    2  502  501  0.82916960124E+02 -0.12097671025E+02  0.11107771234E+03  0.13913962088E+03  0.00000000000E+00 0.  1.
         21    1    1    2  503  502  0.25967668173E+02 -0.12148706609E+02 -0.50663177197E+02  0.58212270067E+02  0.00000000000E+00 0.  1.
<scales pt_clust_5="13000.00000" pt_clust_6="13000.00000" pt_clust_7="13000.00000" pt_clust_8="13000.00000" pt_clust_9="86.29177" pt_clust_10="28.66899"></scales>
<clustering>
<clus scale="   28.669">  2 10  1 -1</clus>
<clus scale="   86.292">  1  9  2 -1</clus>
<clus scale="   95.333">  7  8 -1 -1</clus>
<clus scale="  102.501">  5  6 -1 -1</clus>
<clus scale="  118.417">  2  7  1 -1</clus>
<clus scale="   28.669">  2  5  1 -1</clus>
</clustering>
</event>
<event>
10    2  0.1133532E-006  0.9502737E+02  0.7546771E-02  0.1291178E+00
         -1   -1    0    0    0  501 -0.00000000000E+00  0.00000000000E+00  0.29502513318E+03  0.29502513318E+03  0.00000000000E+00 0.  1.
          1   -1    0    0  503    0  0.00000000000E+00 -0.00000000000E+00 -0.32989096588E+03  0.32989096588E+03  0.00000000000E+00 0. -1.
         23    2    1    2    0    0 -0.33415038742E+02  0.32182438470E+02  0.36499510815E+02  0.10833192374E+03  0.90836761559E+02 0.  0.
         23    2    1    2    0    0  0.16820902764E+02 -0.96591360163E+01  0.94528919716E+01  0.93479040321E+02  0.90954560822E+02 0.  0.
        -11    1    4    4    0    0  0.81332263588E+01 -0.47092439683E+02  0.22600056643E+02  0.52864069145E+02  0.00000000000E+00 0. -1.
         11    1    4    4    0    0  0.86876764050E+01  0.37433303667E+02 -0.13147164672E+02  0.40614971176E+02  0.00000000000E+00 0.  1.
        -13    1    3    3    0    0 -0.16657272868E+02  0.61489900294E+02  0.38632115662E+02  0.74504449116E+02  0.00000000000E+00 0.  1.
         13    1    3    3    0    0 -0.16757765874E+02 -0.29307461825E+02 -0.21326048469E+01  0.33827474619E+02  0.00000000000E+00 0. -1.
         21    1    1    2  502  501  0.48919786730E+02 -0.13221606076E+02  0.16622738351E+03  0.17378003174E+03  0.00000000000E+00 0.  1.
         21    1    1    2  503  502 -0.32325650752E+02 -0.93016963768E+01 -0.24704561900E+03  0.24932510327E+03  0.00000000000E+00 0. -1.
<scales pt_clust_5="13000.00000" pt_clust_6="13000.00000" pt_clust_7="13000.00000" pt_clust_8="13000.00000" pt_clust_9="49.35144" pt_clust_10="33.63732"></scales>
<clustering>
<clus scale="   33.637">  2 10  1 -1</clus>
<clus scale="   49.351">  1  9  2 -1</clus>
<clus scale="   90.837">  7  8 -1 -1</clus>
<clus scale="   90.955">  5  6 -1 -1</clus>
<clus scale="   94.915">  1  7  2 -1</clus>
<clus scale="   33.637">  2  5  1 -1</clus>
</clustering>
</event>
<event>
10    2  0.2534064E-006  0.1000484E+03  0.7546771E-02  0.1281345E+00
         -2   -1    0    0    0  501 -0.00000000000E+00  0.00000000000E+00  0.76829615953E+02  0.76829615953E+02  0.00000000000E+00 0.  1.
          2   -1    0    0  503    0  0.00000000000E+00 -0.00000000000E+00 -0.49487809199E+03  0.49487809199E+03  0.00000000000E+00 0. -1.
         23    2    1    2    0    0  0.14852269678E+02  0.12978790853E+02  0.24969253260E+02  0.97793725616E+02  0.92472213313E+02 0.  0.
         23    2    1    2    0    0 -0.40274159612E+02 -0.30582211071E+02 -0.38002831221E+03  0.39382933460E+03  0.90126284409E+02 0.  0.
        -13    1    3    3    0    0 -0.38198674740E+02  0.20989667073E+01  0.20632078553E+02  0.43465239888E+02  0.00000000000E+00 0. -1.
         13    1    3    3    0    0  0.53050944418E+02  0.10879824145E+02  0.43371747067E+01  0.54328485728E+02  0.00000000000E+00 0.  1.
        -13    1    4    4    0    0  0.27619106766E+02  0.25327950139E+01 -0.95732610961E+02  0.99669267633E+02  0.00000000000E+00 0.  1.
         13    1    4    4    0    0 -0.67893266377E+02 -0.33115006085E+02 -0.28429570125E+03  0.29416006696E+03  0.00000000000E+00 0. -1.
         21    1    1    2  502  501  0.46128095381E+01  0.21727604508E+02 -0.12895098004E+02  0.25683659436E+02  0.00000000000E+00 0. -1.
         21    1    1    2  503  502  0.20809080396E+02 -0.41241842899E+01 -0.50094319088E+02  0.54400988298E+02  0.00000000000E+00 0.  1.
<scales pt_clust_5="13000.00000" pt_clust_6="13000.00000" pt_clust_7="13000.00000" pt_clust_8="13000.00000" pt_clust_9="22.24359" pt_clust_10="21.21383"></scales>
<clustering>
<clus scale="   21.214">  2 10  1 -1</clus>
<clus scale="   22.244">  1  9  2 -1</clus>
<clus scale="   90.126">  7  8 -1 -1</clus>
<clus scale="   92.472">  5  6 -1 -1</clus>
<clus scale="   97.884">  2  7  1 -1</clus>
<clus scale="   21.214">  2  5  1 -1</clus>
</clustering>
</event>
<event>
10    2  0.1133532E-006  0.1101089E+03  0.7546771E-02  0.1261350E+00
          1   -1    0    0  503    0  0.00000000000E+00  0.00000000000E+00  0.45003450502E+03  0.45003450502E+03  0.00000000000E+00 0. -1.
         -1   -1    0    0    0  501 -0.00000000000E+00 -0.00000000000E+00 -0.10394485340E+03  0.10394485340E+03  0.00000000000E+00 0.  1.
         23    2    1    2    0    0  0.39806148692E+02  0.47161061530E+02 -0.43010855417E+02  0.11812249352E+03  0.91073017919E+02 0.  0.
         23    2    1    2    0    0 -0.13481561126E+02 -0.69823208784E+02  0.27590791702E+03  0.29835904150E+03  0.88520652932E+02 0.  0.
        -13    1    3    3    0    0  0.69466886933E+02  0.29505232458E+02 -0.28402742650E+02  0.80640702581E+02  0.00000000000E+00 0.  1.
         13    1    3    3    0    0 -0.29660738241E+02  0.17655829071E+02 -0.14608112767E+02  0.37481790937E+02  0.00000000000E+00 0. -1.
        -13    1    4    4    0    0  0.30759422327E+02 -0.77899266660E+01  0.12927219985E+03  0.13310945373E+03  0.00000000000E+00 0.  1.
         13    1    4    4    0    0 -0.44240983453E+02 -0.62033282118E+02  0.14663571718E+03  0.16524958777E+03  0.00000000000E+00 0. -1.
         21    1    1    2  502  501  0.35719963444E+01  0.41982146319E+02  0.55038137360E+02  0.69314185644E+02  0.00000000000E+00 0.  1.
         21    1    1    2  503  502 -0.29896583910E+02 -0.19319999065E+02  0.58154452650E+02  0.68183637747E+02  0.00000000000E+00 0. -1.
<scales pt_clust_5="13000.00000" pt_clust_6="13000.00000" pt_clust_7="13000.00000" pt_clust_8="13000.00000" pt_clust_9="38.89662" pt_clust_10="35.59590"></scales>
<clustering>
<clus scale="   35.596">  1 10  2 -1</clus>
<clus scale="   38.897">  1  9  2 -1</clus>
<clus scale="   88.521">  7  8 -1 -1</clus>
<clus scale="   91.073">  5  6 -1 -1</clus>
<clus scale="  108.007">  1  7  2 -1</clus>
<clus scale="   35.596">  1  5  2 -1</clus>
</clustering>
</event>
<event>
10    2  0.1133532E-006  0.1605493E+03  0.7546771E-02  0.1188647E+00
         -1   -1    0    0    0  501 -0.00000000000E+00  0.00000000000E+00  0.59033245474E+03  0.59033245474E+03  0.00000000000E+00 0.  1.
          1   -1    0    0  503    0  0.00000000000E+00 -0.00000000000E+00 -0.11133677652E+03  0.11133677652E+03  0.00000000000E+00 0. -1.
         23    2    1    2    0    0 -0.41283972920E+02  0.11289352378E+03  0.13446372639E+03  0.20393041289E+03  0.95172503667E+02 0.  0.
         23    2    1    2    0    0  0.38931710776E+02 -0.12185789167E+03  0.40705184577E+02  0.16259845043E+03  0.91740504503E+02 0.  0.
        -13    1    4    4    0    0  0.43025501106E+01 -0.27664065108E+02  0.54526075776E+02  0.61293599790E+02  0.00000000000E+00 0.  1.
         13    1    4    4    0    0  0.34629160665E+02 -0.94193826560E+02 -0.13820891199E+02  0.10130485064E+03  0.00000000000E+00 0. -1.
        -13    1    3    3    0    0 -0.11674674557E+02  0.11761134295E+03  0.12604286519E+03  0.17278752814E+03  0.00000000000E+00 0. -1.
         13    1    3    3    0    0 -0.29609298362E+02 -0.47178191661E+01  0.84208612075E+01  0.31142884752E+02  0.00000000000E+00 0.  1.
         21    1    1    2  502  501  0.20816085946E+02  0.43212630979E+02  0.28985917082E+03  0.29380091868E+03  0.00000000000E+00 0. -1.
         21    1    1    2  503  502 -0.18463823802E+02 -0.34248263092E+02  0.13967596431E+02  0.41339449250E+02  0.00000000000E+00 0.  1.
<scales pt_clust_5="13000.00000" pt_clust_6="13000.00000" pt_clust_7="13000.00000" pt_clust_8="13000.00000" pt_clust_9="47.18054" pt_clust_10="38.90831"></scales>
<clustering>
<clus scale="   38.908">  2 10  1 -1</clus>
<clus scale="   47.181">  1  9  2 -1</clus>
<clus scale="   91.741">  5  6 -1 -1</clus>
<clus scale="   95.173">  7  8 -1 -1</clus>
<clus scale="  158.539">  2  5  1 -1</clus>
<clus scale="   38.908">  2  5  1 -1</clus>
</clustering>
</event>
<event>
10    2  0.1437151E-006  0.9962616E+02  0.7546771E-02  0.1281162E+00
         -1   -1    0    0    0  501 -0.00000000000E+00  0.00000000000E+00  0.26275635782E+03  0.26275635782E+03  0.00000000000E+00 0.  1.
          1   -1    0    0  503    0  0.00000000000E+00 -0.00000000000E+00 -0.48477905503E+03  0.48477905503E+03  0.00000000000E+00 0. -1.
         23    2    1    2    0    0  0.12043715416E+02  0.14994532894E+02  0.19994267598E+03  0.22028258621E+03  0.90429292878E+02 0.  0.
         23    2    1    2    0    0  0.63669543066E+02 -0.35278525765E+02 -0.25054729472E+03  0.27608065752E+03  0.90267366567E+02 0.  0.
        -13    1    4    4    0    0  0.80279472230E+02 -0.46687315693E+02 -0.17777882593E+03  0.20057370231E+03  0.00000000000E+00 0.  1.
         13    1    4    4    0    0 -0.16609929164E+02  0.11408789928E+02 -0.72768468788E+02  0.75506955204E+02  0.00000000000E+00 0. -1.
        -13    1    3    3    0    0  0.44354779771E+02 -0.11173276381E+02  0.68069340543E+02  0.82009900107E+02  0.00000000000E+00 0. -1.
         13    1    3    3    0    0 -0.32311064355E+02  0.26167809275E+02  0.13187333544E+03  0.13827268610E+03  0.00000000000E+00 0.  1.
         21    1    1    2  502  501 -0.10398502689E+02  0.29728166668E+02  0.27364104043E+02  0.41721540500E+02  0.00000000000E+00 0.  1.
         21    1    1    2  503  502 -0.65314755794E+02 -0.94441737967E+01 -0.19878218251E+03  0.20945062862E+03  0.00000000000E+00 0. -1.
<scales pt_clust_5="13000.00000" pt_clust_6="13000.00000" pt_clust_7="13000.00000" pt_clust_8="13000.00000" pt_clust_9="31.49433" pt_clust_10="66.13907"></scales>
<clustering>
<clus scale="   31.494">  1  9  2 -1</clus>
<clus scale="   66.139">  2 10  1 -1</clus>
<clus scale="   90.267">  5  6 -1 -1</clus>
<clus scale="   90.429">  7  8 -1 -1</clus>
<clus scale="   99.479">  2  5  1 -1</clus>
<clus scale="   66.139">  2  5  1 -1</clus>
</clustering>
</event>
<event>
10    2  0.1133532E-006  0.1077928E+03  0.7546771E-02  0.1264954E+00
         -1   -1    0    0    0  501 -0.00000000000E+00  0.00000000000E+00  0.10694167066E+03  0.10694167066E+03  0.00000000000E+00 0.  1.
          1   -1    0    0  503    0  0.00000000000E+00 -0.00000000000E+00 -0.38715768212E+03  0.38715768212E+03  0.00000000000E+00 0. -1.
         23    2    1    2    0    0  0.37865925479E+02  0.21222011237E+02 -0.61892913013E+02  0.11770408959E+03  0.90218168634E+02 0.  0.
         23    2    1    2    0    0 -0.68434714350E+02 -0.39752529376E+02 -0.21446171663E+03  0.24597830222E+03  0.90818079389E+02 0.  0.
        -11    1    3    3    0    0  0.62171530915E+02 -0.22122077703E+01 -0.23310009654E+02  0.66434551776E+02  0.00000000000E+00 0. -1.
         11    1    3    3    0    0 -0.24305605436E+02  0.23434219007E+02 -0.38582903359E+02  0.51269537814E+02  0.00000000000E+00 0.  1.
        -13    1    4    4    0    0 -0.90904524929E+02 -0.35438065665E+02 -0.17525504208E+03  0.20058369556E+03  0.00000000000E+00 0.  1.
         13    1    4    4    0    0  0.22469810579E+02 -0.43144637107E+01 -0.39206674550E+02  0.45394606660E+02  0.00000000000E+00 0. -1.
         21    1    1    2  502  501  0.81568634879E+00  0.20971199594E+02  0.58026470922E+02  0.61705169024E+02  0.00000000000E+00 0.  1.
         21    1    1    2  503  502  0.29753102522E+02 -0.24406814547E+01 -0.61887852740E+02  0.68711791946E+02  0.00000000000E+00 0. -1.
<scales pt_clust_5="13000.00000" pt_clust_6="13000.00000" pt_clust_7="13000.00000" pt_clust_8="13000.00000" pt_clust_9="20.98706" pt_clust_10="29.82644"></scales>
<clustering>
<clus scale="   20.987">  1  9  2 -1</clus>
<clus scale="   29.826">  2 10  1 -1</clus>
<clus scale="   90.218">  5  6 -1 -1</clus>
<clus scale="   90.818">  7  8 -1 -1</clus>
<clus scale="  107.288">  1  5  2 -1</clus>
<clus scale="   29.826">  2  5  1 -1</clus>
</clustering>
</event>
<event>
10    2  0.1133532E-006  0.3789296E+03  0.7546771E-02  0.1051476E+00
          2   -1    0    0  503    0  0.00000000000E+00  0.00000000000E+00  0.34668711392E+03  0.34668711392E+03  0.00000000000E+00 0. -1.
         -2   -1    0    0    0  501 -0.00000000000E+00 -0.00000000000E+00 -0.51906389139E+03  0.51906389139E+03  0.00000000000E+00 0.  1.
         23    2    1    2    0    0  0.37730164157E+03 -0.18942193287E+02 -0.73749228406E+02  0.39680859212E+03  0.96450892555E+02 0.  0.
         23    2    1    2    0    0 -0.35183697585E+03  0.58466900514E+02 -0.70766087094E+02  0.37461314814E+03  0.90108465986E+02 0.  0.
        -11    1    4    4    0    0 -0.22393390121E+02  0.56262637043E+01 -0.30917462954E+02  0.38587670051E+02  0.00000000000E+00 0.  1.
         11    1    4    4    0    0 -0.32944358573E+03  0.52840636810E+02 -0.39848624139E+02  0.33602547809E+03  0.00000000000E+00 0. -1.
        -13    1    3    3    0    0  0.34633229520E+03  0.72365846489E+01 -0.50512595867E+02  0.35007134872E+03  0.00000000000E+00 0.  1.
         13    1    3    3    0    0  0.30969346367E+02 -0.26178777936E+02 -0.23236632539E+02  0.46737243397E+02  0.00000000000E+00 0. -1.
         21    1    1    2  502  501 -0.15234636315E+02 -0.18111106788E+02 -0.54039896853E+02  0.58995057290E+02  0.00000000000E+00 0.  1.
         21    1    1    2  503  502 -0.10230029399E+02 -0.21413600439E+02  0.26178434879E+02  0.35334207759E+02  0.00000000000E+00 0.  1.
<scales pt_clust_5="13000.00000" pt_clust_6="13000.00000" pt_clust_7="13000.00000" pt_clust_8="13000.00000" pt_clust_9="23.66657" pt_clust_10="23.95855"></scales>
<clustering>
<clus scale="   23.667">  2  9  1 -1</clus>
<clus scale="   23.959">  1 10  2 -1</clus>
<clus scale="   90.108">  5  6 -1 -1</clus>
<clus scale="   96.451">  7  8 -1 -1</clus>
<clus scale="  377.365">  1  5  2 -1</clus>
<clus scale="   23.959">  1  5  2 -1</clus>
</clustering>
</event>
<event>
10    2  0.1133532E-006  0.1904404E+03  0.7546771E-02  0.1175219E+00
          1   -1    0    0  503    0  0.00000000000E+00  0.00000000000E+00  0.73032430549E+03  0.73032430549E+03  0.00000000000E+00 0. -1.
         -1   -1    0    0    0  501 -0.00000000000E+00 -0.00000000000E+00 -0.78632087336E+03  0.78632087336E+03  0.00000000000E+00 0.  1.
         23    2    1    2    0    0 -0.40171957758E+02 -0.60629945324E+02 -0.38705214754E+02  0.13531408960E+03  0.10734073195E+03 0.  0.
         23    2    1    2    0    0 -0.15304612347E+03 -0.10002836583E+03  0.47705204308E+03  0.51915338446E+03  0.92264808667E+02 0.  0.
        -11    1    4    4    0    0 -0.33853221877E+02  0.64045417572E+01  0.35031260210E+02  0.49134997491E+02  0.00000000000E+00 0.  1.
         11    1    4    4    0    0 -0.11919290159E+03 -0.10643290758E+03  0.44202078286E+03  0.47001838697E+03  0.00000000000E+00 0. -1.
        -13    1    3    3    0    0  0.30828159272E+02 -0.35810479168E+02 -0.37112350256E+02  0.60084044171E+02  0.00000000000E+00 0.  1.
         13    1    3    3    0    0 -0.71000117030E+02 -0.24819466156E+02 -0.15928644973E+01  0.75230045433E+02  0.00000000000E+00 0. -1.
         21    1    1    2  502  501  0.18666200177E+03  0.13126243162E+03 -0.65765106990E+03  0.69611598071E+03  0.00000000000E+00 0.  1.
         21    1    1    2  503  502  0.65560794553E+01  0.29395879535E+02  0.16330767371E+03  0.16606172408E+03  0.00000000000E+00 0.  1.
<scales pt_clust_5="13000.00000" pt_clust_6="13000.00000" pt_clust_7="13000.00000" pt_clust_8="13000.00000" pt_clust_9="166.59753" pt_clust_10="30.11810"></scales>
<clustering>
<clus scale="   30.118">  1 10  2 -1</clus>
<clus scale="   92.265">  5  6 -1 -1</clus>
<clus scale="  107.341">  7  8 -1 -1</clus>
<clus scale="  128.332">  2  7  1 -1</clus>
<clus scale="  166.598">  2  9  1 -1</clus>
<clus scale="   30.118">  1  5  2 -1</clus>
</clustering>
</event>
<event>
10    2  0.1133532E-006  0.1595252E+03  0.7546771E-02  0.1189320E+00
          2   -1    0    0  503    0  0.00000000000E+00  0.00000000000E+00  0.51128834531E+03  0.51128834531E+03  0.00000000000E+00 0. -1.
         -2   -1    0    0    0  501 -0.00000000000E+00 -0.00000000000E+00 -0.85716786398E+02  0.85716786398E+02  0.00000000000E+00 0.  1.
         23    2    1    2    0    0  0.11535108975E+03 -0.48142778389E+02  0.88185256595E+02  0.17771210654E+03  0.90450828161E+02 0.  0.
         23    2    1    2    0    0 -0.13866168114E+03  0.28354078370E+02  0.16218638291E+03  0.23369640160E+03  0.90986645953E+02 0.  0.
        -11    1    3    3    0    0  0.78783160776E+02 -0.37028013468E+02  0.62186347215E+01  0.87272742715E+02  0.00000000000E+00 0.  1.
         11    1    3    3    0    0  0.36567928969E+02 -0.11114764921E+02  0.81966621873E+02  0.90439363828E+02  0.00000000000E+00 0. -1.
        -13    1    4    4    0    0 -0.88555475820E+01 -0.22605642132E+02  0.46700056468E+02  0.52633934427E+02  0.00000000000E+00 0.  1.
         13    1    4    4    0    0 -0.12980613356E+03  0.50959720502E+02  0.11548632644E+03  0.18106246718E+03  0.00000000000E+00 0. -1.
         21    1    1    2  502  501 -0.26381797909E+01  0.27075215645E+02  0.44576588419E+02  0.52221638522E+02  0.00000000000E+00 0. -1.
         21    1    1    2  503  502  0.25948771191E+02 -0.72865156257E+01  0.13062333099E+03  0.13337498504E+03  0.00000000000E+00 0. -1.
<scales pt_clust_5="13000.00000" pt_clust_6="13000.00000" pt_clust_7="13000.00000" pt_clust_8="13000.00000" pt_clust_9="26.15408" pt_clust_10="26.95240"></scales>
<clustering>
<clus scale="   26.952">  1 10  2 -1</clus>
<clus scale="   26.154">  1  9  2 -1</clus>
<clus scale="   90.451">  5  6 -1 -1</clus>
<clus scale="   90.987">  7  8 -1 -1</clus>
<clus scale="  159.220">  2  5  1 -1</clus>
<clus scale="   26.952">  1  5  2 -1</clus>
</clustering>
</event>
<event>
10    2  0.1133532E-006  0.1484802E+03  0.7546771E-02  0.1202560E+00
          1   -1    0    0  503    0  0.00000000000E+00  0.00000000000E+00  0.10360368089E+03  0.10360368089E+03  0.00000000000E+00 0. -1.
         -1   -1    0    0    0  501 -0.00000000000E+00 -0.00000000000E+00 -0.36029280290E+03  0.36029280290E+03  0.00000000000E+00 0.  1.
         23    2    1    2    0    0 -0.10940773361E+03 -0.81245847951E+02 -0.16166353110E+03  0.23040599832E+03  0.91547183421E+02 0.  0.
         23    2    1    2    0    0  0.96428882183E+02  0.25283891364E+02 -0.68765530563E+02  0.15116403164E+03  0.90465804516E+02 0.  0.
        -13    1    4    4    0    0 -0.55059591810E+01  0.31135982986E+02 -0.90841870812E+01  0.32898137910E+02  0.00000000000E+00 0.  1.
         13    1    4    4    0    0  0.10193484136E+03 -0.58520916214E+01 -0.59681343481E+02  0.11826589373E+03  0.00000000000E+00 0. -1.
        -13    1    3    3    0    0 -0.34414728857E+02 -0.16826804897E+02 -0.11475338769E+03  0.12097873744E+03  0.00000000000E+00 0.  1.
         13    1    3    3    0    0 -0.74993004756E+02 -0.64419043053E+02 -0.46910143407E+02  0.10942726088E+03  0.00000000000E+00 0. -1.
         21    1    1    2  502  501 -0.13175909367E+02  0.32775441361E+02 -0.31069985730E+02  0.47044427484E+02  0.00000000000E+00 0. -1.
         21    1    1    2  503  502  0.26154760797E+02  0.23186515225E+02  0.48099253900E+01  0.35282026343E+02  0.00000000000E+00 0.  1.
<scales pt_clust_5="13000.00000" pt_clust_6="13000.00000" pt_clust_7="13000.00000" pt_clust_8="13000.00000" pt_clust_9="36.58415" pt_clust_10="34.95263"></scales>
<clustering>
<clus scale="   34.953">  1 10  2 -1</clus>
<clus scale="   36.584">  2  9  1 -1</clus>
<clus scale="   90.466">  5  6 -1 -1</clus>
<clus scale="   91.547">  7  8 -1 -1</clus>
<clus scale="  147.816">  1  5  2 -1</clus>
<clus scale="   34.953">  1  5  2 -1</clus>
</clustering>
</event>
<event>
10    2  0.1133532E-006  0.1232339E+03  0.7546771E-02  0.1239058E+00
          1   -1    0    0  503    0  0.00000000000E+00  0.00000000000E+00  0.49111406769E+03  0.49111406769E+03  0.00000000000E+00 0. -1.
         -1   -1    0    0    0  501 -0.00000000000E+00 -0.00000000000E+00 -0.56043678542E+02  0.56043678542E+02  0.00000000000E+00 0.  1.
         23    2    1    2    0    0 -0.10955347216E+03 -0.25821257776E+02  0.16780621713E+03  0.21920219482E+03  0.84982204570E+02 0.  0.
         23    2    1    2    0    0  0.51701916424E+02  0.37478083409E+02  0.12813540308E+03  0.16865444021E+03  0.89151241060E+02 0.  0.
        -11    1    3    3    0    0 -0.82802491291E+02  0.17752779642E+02  0.74432378987E+02  0.11274569965E+03  0.00000000000E+00 0. -1.
         11    1    3    3    0    0 -0.26750980864E+02 -0.43574037417E+02  0.93373838142E+02  0.10645649517E+03  0.00000000000E+00 0.  1.
        -13    1    4    4    0    0  0.68060382546E+02  0.37867479629E+01  0.59570730761E+02  0.90527493591E+02  0.00000000000E+00 0.  1.
         13    1    4    4    0    0 -0.16358466123E+02  0.33691335446E+02  0.68564672317E+02  0.78126946619E+02  0.00000000000E+00 0. -1.
         21    1    1    2  502  501  0.36558527807E+02 -0.70432048859E+01  0.29425130749E+02  0.47454936625E+02  0.00000000000E+00 0. -1.
         21    1    1    2  503  502  0.21293027925E+02 -0.46136207475E+01  0.10970363819E+03  0.11184617458E+03  0.00000000000E+00 0.  1.
<scales pt_clust_5="13000.00000" pt_clust_6="13000.00000" pt_clust_7="13000.00000" pt_clust_8="13000.00000" pt_clust_9="39.43223" pt_clust_10="21.78712"></scales>
<clustering>
<clus scale="   21.787">  1 10  2 -1</clus>
<clus scale="   39.432">  2  9  1 -1</clus>
<clus scale="   84.982">  5  6 -1 -1</clus>
<clus scale="   89.151">  7  8 -1 -1</clus>
<clus scale="  120.252">  2  5  1 -1</clus>
<clus scale="   21.787">  1  5  2 -1</clus>
</clustering>
</event>
<event>
10    2  0.1133532E-006  0.9766829E+02  0.7546771E-02  0.1287590E+00
         -1   -1    0    0    0  501 -0.00000000000E+00  0.00000000000E+00  0.19973002217E+03  0.19973002217E+03  0.00000000000E+00 0.  1.
          1   -1    0    0  503    0  0.00000000000E+00 -0.00000000000E+00 -0.26243650165E+03  0.26243650165E+03  0.00000000000E+00 0. -1.
         23    2    1    2    0    0  0.29130666625E+02 -0.22953144762E+02  0.12779169736E+03  0.16184175135E+03  0.92122700642E+02 0.  0.
         23    2    1    2    0    0 -0.55422800925E+02 -0.14167501568E+02 -0.20864613694E+03  0.23344439400E+03  0.87696463272E+02 0.  0.
        -11    1    4    4    0    0 -0.98712296267E+00  0.32534394780E+02 -0.55635286805E+02  0.64457322263E+02  0.00000000000E+00 0.  1.
         11    1    4    4    0    0 -0.54435677963E+02 -0.46701896348E+02 -0.15301085013E+03  0.16898707174E+03  0.00000000000E+00 0. -1.
        -13    1    3    3    0    0  0.50116553115E+02  0.14454130508E+02  0.92938338367E+02  0.10657450691E+03  0.00000000000E+00 0.  1.
         13    1    3    3    0    0 -0.20985886490E+02 -0.37407275270E+02  0.34853358998E+02  0.55267244444E+02  0.00000000000E+00 0. -1.
         21    1    1    2  502  501  0.11846954468E+01  0.26367056318E+02  0.27398060638E+02  0.38043118812E+02  0.00000000000E+00 0.  1.
         21    1    1    2  503  502  0.25107438854E+02  0.10753590012E+02 -0.92501005414E+01  0.28837259648E+02  0.00000000000E+00 0.  1.
<scales pt_clust_5="13000.00000" pt_clust_6="13000.00000" pt_clust_7="13000.00000" pt_clust_8="13000.00000" pt_clust_9="26.39366" pt_clust_10="28.02073"></scales>
<clustering>
<clus scale="   26.394">  1  9  2 -1</clus>
<clus scale="   28.021">  2 10  1 -1</clus>
<clus scale="   87.696">  5  6 -1 -1</clus>
<clus scale="   92.123">  7  8 -1 -1</clus>
<clus scale="   93.505">  2  5  1 -1</clus>
<clus scale="   28.021">  2  5  1 -1</clus>
</clustering>
</event>
<event>
10    2  0.1133532E-006  0.9812891E+02  0.7546771E-02  0.1284634E+00
          1   -1    0    0  503    0  0.00000000000E+00  0.00000000000E+00  0.10238675635E+04  0.10238675635E+04  0.00000000000E+00 0. -1.
         -1   -1    0    0    0  501 -0.00000000000E+00 -0.00000000000E+00 -0.39842495804E+02  0.39842495804E+02  0.00000000000E+00 0.  1.
         23    2    1    2    0    0 -0.27301917516E+02  0.38329371755E+02  0.15525094028E+03  0.18710992868E+03  0.93234840660E+02 0.  0.
         23    2    1    2    0    0  0.27373577905E+02  0.63701925304E+02  0.48941746721E+03  0.50314726356E+03  0.93917323007E+02 0.  0.
        -11    1    4    4    0    0  0.28533186099E+02  0.84767698240E+02  0.44594270502E+03  0.45482370380E+03  0.00000000000E+00 0. -1.
         11    1    4    4    0    0 -0.11596081942E+01 -0.21065772937E+02  0.43474762187E+02  0.48323559759E+02  0.00000000000E+00 0.  1.
        -13    1    3    3    0    0 -0.48428671334E+02 -0.42045821149E+00  0.37169176535E+02  0.61049657465E+02  0.00000000000E+00 0.  1.
         13    1    3    3    0    0  0.21126753818E+02  0.38749829967E+02  0.11808176374E+03  0.12606027121E+03  0.00000000000E+00 0. -1.
         21    1    1    2  502  501 -0.24769488823E+01 -0.22344988048E+02 -0.23176553899E+01  0.22601002039E+02  0.00000000000E+00 0.  1.
         21    1    1    2  503  502  0.24052884931E+01 -0.79686309011E+02  0.34167431559E+03  0.35085186502E+03  0.00000000000E+00 0.  1.
<scales pt_clust_5="13000.00000" pt_clust_6="13000.00000" pt_clust_7="13000.00000" pt_clust_8="13000.00000" pt_clust_9="22.48185" pt_clust_10="83.45454"></scales>
<clustering>
<clus scale="   22.482">  2  9  1 -1</clus>
<clus scale="   83.455">  1 10  2 -1</clus>
<clus scale="   93.235">  7  8 -1 -1</clus>
<clus scale="   93.917">  5  6 -1 -1</clus>
<clus scale="   97.476">  2  7  1 -1</clus>
<clus scale="   83.455">  1  5  2 -1</clus>
</clustering>
</event>
<event>
10    2  0.1133532E-006  0.2462860E+03  0.7546771E-02  0.1138076E+00
          1   -1    0    0  503    0  0.00000000000E+00  0.00000000000E+00  0.12321579253E+04  0.12321579253E+04  0.00000000000E+00 0. -1.
         -1   -1    0    0    0  501 -0.00000000000E+00 -0.00000000000E+00 -0.24303112616E+03  0.24303112616E+03  0.00000000000E+00 0.  1.
         23    2    1    2    0    0  0.65874287664E+02  0.62337188386E+02  0.18466306064E+03  0.22514078030E+03  0.91447133115E+02 0.  0.
         23    2    1    2    0    0  0.94257764618E+02  0.73187243284E+02  0.87712305299E+02  0.17518471483E+03  0.93569957990E+02 0.  0.
        -11    1    4    4    0    0  0.41931166218E+02  0.87242403995E+02  0.64006319558E+02  0.11604425319E+03  0.00000000000E+00 0. -1.
         11    1    4    4    0    0  0.52326598400E+02 -0.14055160711E+02  0.23705985741E+02  0.59140461637E+02  0.00000000000E+00 0.  1.
        -13    1    3    3    0    0  0.83137301566E+02  0.31870224947E+02  0.15709957611E+03  0.18057629679E+03  0.00000000000E+00 0. -1.
         13    1    3    3    0    0 -0.17263013902E+02  0.30466963440E+02  0.27563484534E+02  0.44564483502E+02  0.00000000000E+00 0.  1.
         21    1    1    2  502  501  0.54064224817E+02  0.51719458083E+02 -0.14728210568E+03  0.16519643278E+03  0.00000000000E+00 0.  1.
         21    1    1    2  503  502 -0.21419627710E+03 -0.18724388975E+03  0.86403353884E+03  0.90966712352E+03  0.00000000000E+00 0. -1.
<scales pt_clust_5="13000.00000" pt_clust_6="13000.00000" pt_clust_7="13000.00000" pt_clust_8="13000.00000" pt_clust_9="74.81873" pt_clust_10="227.81886"></scales>
<clustering>
<clus scale="   74.819">  2  9  1 -1</clus>
<clus scale="   91.447">  7  8 -1 -1</clus>
<clus scale="   93.570">  5  6 -1 -1</clus>
<clus scale="  141.622">  2  7  1 -1</clus>
<clus scale="  227.819">  1 10  2 -1</clus>
<clus scale="  227.819">  1  5  2 -1</clus>
</clustering>
</event>
<event>
10    2  0.1133532E-006  0.1086849E+03  0.7546771E-02  0.1267651E+00
         -3   -1    0    0    0  501 -0.00000000000E+00  0.00000000000E+00  0.50293327524E+03  0.50293327524E+03  0.00000000000E+00 0.  1.
          3   -1    0    0  503    0  0.00000000000E+00 -0.00000000000E+00 -0.62996579946E+02  0.62996579946E+02  0.00000000000E+00 0. -1.
         23    2    1    2    0    0  0.21488211442E+02  0.66752127206E+02  0.12685774459E+03  0.17112363281E+03  0.90955047277E+02 0.  0.
         23    2    1    2    0    0 -0.32860929594E+02 -0.44400027232E+02  0.11137053397E+03  0.14757632785E+03  0.79524672864E+02 0.  0.
        -11    1    3    3    0    0  0.50532771284E+02  0.17478186583E+02  0.84313125329E+02  0.99838625204E+02  0.00000000000E+00 0.  1.
         11    1    3    3    0    0 -0.29044559842E+02  0.49273940623E+02  0.42544619259E+02  0.71285007602E+02  0.00000000000E+00 0. -1.
        -13    1    4    4    0    0  0.22276812156E+02 -0.19269677890E+02  0.64709698454E+02  0.71097974091E+02  0.00000000000E+00 0.  1.
         13    1    4    4    0    0 -0.55137741750E+02 -0.25130349343E+02  0.46660835515E+02  0.76478353763E+02  0.00000000000E+00 0. -1.
         21    1    1    2  502  501  0.86107706981E+01 -0.49799929588E+02  0.21188298415E+03  0.21782694354E+03  0.00000000000E+00 0. -1.
         21    1    1    2  503  502  0.27619474534E+01  0.27447829615E+02 -0.10174567419E+02  0.29402950983E+02  0.00000000000E+00 0.  1.
<scales pt_clust_5="13000.00000" pt_clust_6="13000.00000" pt_clust_7="13000.00000" pt_clust_8="13000.00000" pt_clust_9="48.71356" pt_clust_10="27.58644"></scales>
<clustering>
<clus scale="   27.586">  2 10  1 -1</clus>
<clus scale="   48.714">  1  9  2 -1</clus>
<clus scale="   79.525">  7  8 -1 -1</clus>
<clus scale="   90.955">  5  6 -1 -1</clus>
<clus scale="   99.316">  2  7  1 -1</clus>
<clus scale="   27.586">  2  5  1 -1</clus>
</clustering>
</event>
<event>
10    2  0.1133532E-006  0.1387019E+03  0.7546771E-02  0.1215908E+00
         -1   -1    0    0    0  501 -0.00000000000E+00  0.00000000000E+00  0.80604360701E+02  0.80604360701E+02  0.00000000000E+00 0.  1.
          1   -1    0    0  503    0  0.00000000000E+00 -0.00000000000E+00 -0.65317339237E+03  0.65317339237E+03  0.00000000000E+00 0. -1.
         23    2    1    2    0    0  0.71506581032E+02 -0.95873657444E+02 -0.14162903109E+03  0.20692741368E+03  0.91952285259E+02 0.  0.
         23    2    1    2    0    0  0.29615708423E+02  0.10174911580E+03 -0.13917025405E+03  0.19927496853E+03  0.95457743094E+02 0.  0.
        -11    1    4    4    0    0 -0.22793161016E+02  0.19577218448E+02 -0.79520604241E+02  0.85007777116E+02  0.00000000000E+00 0. -1.
         11    1    4    4    0    0  0.52408869438E+02  0.82171897354E+02 -0.59649649813E+02  0.11426719141E+03  0.00000000000E+00 0.  1.
        -11    1    3    3    0    0  0.18636995575E+02 -0.94078491135E+02 -0.74401656508E+02  0.12138248057E+03  0.00000000000E+00 0. -1.
         11    1    3    3    0    0  0.52869585457E+02 -0.17951663088E+01 -0.67227374580E+02  0.85544933114E+02  0.00000000000E+00 0.  1.
         21    1    1    2  502  501  0.55796995534E+01  0.22238909087E+02 -0.10082822019E+02  0.25047263809E+02  0.00000000000E+00 0.  1.
         21    1    1    2  503  502 -0.10670198901E+03 -0.28114367446E+02 -0.28168692450E+03  0.30252810704E+03  0.00000000000E+00 0. -1.
<scales pt_clust_5="13000.00000" pt_clust_6="13000.00000" pt_clust_7="13000.00000" pt_clust_8="13000.00000" pt_clust_9="22.92819" pt_clust_10="108.80494"></scales>
<clustering>
<clus scale="   22.928">  1  9  2 -1</clus>
<clus scale="   91.952">  7  8 -1 -1</clus>
<clus scale="   95.458">  5  6 -1 -1</clus>
<clus scale="  108.805">  2 10  1 -1</clus>
<clus scale="  136.313">  1  7  2 -1</clus>
<clus scale="  108.805">  2  5  1 -1</clus>
</clustering>
</event>
<event>
10    2  0.1133532E-006  0.1109284E+03  0.7546771E-02  0.1263005E+00
          4   -1    0    0  503    0  0.00000000000E+00  0.00000000000E+00  0.53129281956E+03  0.53129281956E+03  0.00000000000E+00 0. -1.
         -4   -1    0    0    0  501 -0.00000000000E+00 -0.00000000000E+00 -0.15260728251E+03  0.15260728251E+03  0.00000000000E+00 0.  1.
         23    2    1    2    0    0 -0.11292242864E+02  0.37209491229E+02  0.38895521355E+02  0.11464429668E+03  0.10059021918E+03 0.  0.
         23    2    1    2    0    0 -0.84808659471E+02  0.26984620776E+01  0.20945867858E+03  0.24360546866E+03  0.90944466073E+02 0.  0.
        -11    1    3    3    0    0  0.13584831614E+02 -0.30648766795E+02  0.22231500835E+01  0.33598168883E+02  0.00000000000E+00 0.  1.
         11    1    3    3    0    0 -0.24877074478E+02  0.67858258023E+02  0.36672371271E+02  0.81046127799E+02  0.00000000000E+00 0. -1.
        -11    1    4    4    0    0 -0.20296670784E+02  0.18315438130E+02  0.39240748614E+01  0.27618987714E+02  0.00000000000E+00 0.  1.
         11    1    4    4    0    0 -0.64511988687E+02 -0.15616976053E+02  0.20553460372E+03  0.21598648094E+03  0.00000000000E+00 0. -1.
         21    1    1    2  502  501  0.68996043853E+02 -0.38318692855E+02 -0.80701343526E+02  0.11287817830E+03  0.00000000000E+00 0.  1.
         21    1    1    2  503  502  0.27104858482E+02 -0.15892604516E+01  0.21103268065E+03  0.21277215843E+03  0.00000000000E+00 0.  1.
<scales pt_clust_5="13000.00000" pt_clust_6="13000.00000" pt_clust_7="13000.00000" pt_clust_8="13000.00000" pt_clust_9="80.15727" pt_clust_10="27.15141"></scales>
<clustering>
<clus scale="   27.151">  1 10  2 -1</clus>
<clus scale="   80.157">  2  9  1 -1</clus>
<clus scale="   90.944">  7  8 -1 -1</clus>
<clus scale="  100.590">  5  6 -1 -1</clus>
<clus scale="  102.262">  1  7  2 -1</clus>
<clus scale="   27.151">  1  5  2 -1</clus>
</clustering>
</event>
<event>
10    2  0.1133532E-006  0.2501731E+03  0.7546771E-02  0.1113257E+00
         -1   -1    0    0    0  501 -0.00000000000E+00  0.00000000000E+00  0.40375544783E+03  0.40375544783E+03  0.00000000000E+00 0.  1.
          1   -1    0    0  503    0  0.00000000000E+00 -0.00000000000E+00 -0.13004732371E+04  0.13004732371E+04  0.00000000000E+00 0. -1.
         23    2    1    2    0    0  0.11258684030E+03 -0.76904248562E+02  0.77070080465E+02  0.17972507645E+03  0.88154669458E+02 0.  0.
         23    2    1    2    0    0 -0.24530555739E+03  0.20404462931E+02 -0.12111576458E+04  0.12391365421E+04  0.89248912337E+02 0.  0.
        -13    1    3    3    0    0  0.77697979388E+02 -0.15918961886E+00  0.42948957866E+02  0.88778456419E+02  0.00000000000E+00 0.  1.
         13    1    3    3    0    0  0.34888860908E+02 -0.76745058943E+02  0.34121122598E+02  0.90946620030E+02  0.00000000000E+00 0. -1.
        -13    1    4    4    0    0 -0.21010932441E+03  0.15125013243E+02 -0.11429677274E+04  0.11622176733E+04  0.00000000000E+00 0. -1.
         13    1    4    4    0    0 -0.35196232984E+02  0.52794496873E+01 -0.68189918404E+02  0.76918868798E+02  0.00000000000E+00 0.  1.
         21    1    1    2  502  501  0.46938196359E+01  0.24488763681E+02  0.53674120940E+02  0.59183128914E+02  0.00000000000E+00 0.  1.
         21    1    1    2  503  502  0.12802489746E+03  0.32011021950E+02  0.18369565508E+03  0.22618393752E+03  0.00000000000E+00 0.  1.
<scales pt_clust_5="13000.00000" pt_clust_6="13000.00000" pt_clust_7="13000.00000" pt_clust_8="13000.00000" pt_clust_9="24.93454" pt_clust_10="138.80123"></scales>
<clustering>
<clus scale="   24.935">  1  9  2 -1</clus>
<clus scale="   88.155">  5  6 -1 -1</clus>
<clus scale="   89.249">  7  8 -1 -1</clus>
<clus scale="  138.801">  1 10  2 -1</clus>
<clus scale="  249.785">  1  5  2 -1</clus>
<clus scale="  250.173">  2  5  1 -1</clus>
</clustering>
</event>
<event>
10    2  0.1133532E-006  0.1085125E+03  0.7546771E-02  0.1265860E+00
          1   -1    0    0  503    0  0.00000000000E+00  0.00000000000E+00  0.48767036221E+03  0.48767036221E+03  0.00000000000E+00 0. -1.
         -1   -1    0    0    0  501 -0.00000000000E+00 -0.00000000000E+00 -0.22385468065E+03  0.22385468065E+03  0.00000000000E+00 0.  1.
         23    2    1    2    0    0  0.84475869337E+01 -0.16420924613E+02 -0.15489913000E+03  0.18267511449E+03  0.95054976135E+02 0.  0.
         23    2    1    2    0    0  0.34265522185E+01  0.21136911494E+02  0.39363644260E+03  0.40415945633E+03  0.89088197388E+02 0.  0.
        -11    1    3    3    0    0  0.37745358646E+02 -0.19063695843E+02 -0.14591237823E+03  0.15191628853E+03  0.00000000000E+00 0.  1.
         11    1    3    3    0    0 -0.29297771712E+02  0.26427712302E+01 -0.89867517666E+01  0.30758825959E+02  0.00000000000E+00 0. -1.
        -13    1    4    4    0    0 -0.23340062782E+01 -0.34843937860E+02  0.17010973935E+03  0.17365733792E+03  0.00000000000E+00 0.  1.
         13    1    4    4    0    0  0.57605584967E+01  0.55980849354E+02  0.22352670325E+03  0.23050211842E+03  0.00000000000E+00 0. -1.
         21    1    1    2  502  501 -0.36995958943E+02 -0.34459962703E+02 -0.28823809574E+02  0.58197955341E+02  0.00000000000E+00 0.  1.
         21    1    1    2  503  502  0.25121819790E+02  0.29743975822E+02  0.53902178530E+02  0.66492516704E+02  0.00000000000E+00 0. -1.
<scales pt_clust_5="13000.00000" pt_clust_6="13000.00000" pt_clust_7="13000.00000" pt_clust_8="13000.00000" pt_clust_9="49.23091" pt_clust_10="38.93340"></scales>
<clustering>
<clus scale="   38.933">  1 10  2 -1</clus>
<clus scale="   49.231">  2  9  1 -1</clus>
<clus scale="   89.088">  7  8 -1 -1</clus>
<clus scale="   95.055">  5  6 -1 -1</clus>
<clus scale="  103.326">  1  7  2 -1</clus>
<clus scale="   38.933">  1  5  2 -1</clus>
</clustering>
</event>
<event>
10    2  0.1133532E-006  0.9515794E+02  0.7546771E-02  0.1291025E+00
         -2   -1    0    0    0  501 -0.00000000000E+00  0.00000000000E+00  0.36776915271E+03  0.36776915271E+03  0.00000000000E+00 0.  1.
          2   -1    0    0  503    0  0.00000000000E+00 -0.00000000000E+00 -0.22611791573E+03  0.22611791573E+03  0.00000000000E+00 0. -1.
         23    2    1    2    0    0 -0.49936320403E+01  0.12637901021E+02  0.99659290116E+02  0.13424606083E+03  0.88912191732E+02 0.  0.
         23    2    1    2    0    0  0.91337047860E+02  0.37274169892E+02 -0.37249827135E+02  0.13817950623E+03  0.89298411338E+02 0.  0.
        -11    1    4    4    0    0  0.75962394086E+02 -0.15032975642E+02 -0.30572076588E+02  0.83252192396E+02  0.00000000000E+00 0. -1.
         11    1    4    4    0    0  0.15374653774E+02  0.52307145534E+02 -0.66777505464E+01  0.54927313834E+02  0.00000000000E+00 0.  1.
        -13    1    3    3    0    0  0.12210891978E+02  0.31020075058E+02  0.10353720393E+03  0.10877179569E+03  0.00000000000E+00 0.  1.
         13    1    3    3    0    0 -0.17204524019E+02 -0.18382174037E+02 -0.38779138121E+01  0.25474265143E+02  0.00000000000E+00 0. -1.
         21    1    1    2  502  501 -0.22562733960E+02 -0.17984235021E+02  0.18865729111E+03  0.19085094488E+03  0.00000000000E+00 0.  1.
         21    1    1    2  503  502 -0.63780681859E+02 -0.31927835892E+02 -0.10941551711E+03  0.13061055650E+03  0.00000000000E+00 0. -1.
<scales pt_clust_5="13000.00000" pt_clust_6="13000.00000" pt_clust_7="13000.00000" pt_clust_8="13000.00000" pt_clust_9="28.85324" pt_clust_10="73.00697"></scales>
<clustering>
<clus scale="   28.853">  1  9  2 -1</clus>
<clus scale="   73.007">  2 10  1 -1</clus>
<clus scale="   88.912">  7  8 -1 -1</clus>
<clus scale="   89.298">  5  6 -1 -1</clus>
<clus scale="   94.796">  1  7  2 -1</clus>
<clus scale="   73.007">  2  5  1 -1</clus>
</clustering>
</event>
<event>
10    2  0.1133532E-006  0.1349791E+03  0.7546771E-02  0.1222853E+00
          1   -1    0    0  503    0  0.00000000000E+00  0.00000000000E+00  0.46448936126E+03  0.46448936126E+03  0.00000000000E+00 0. -1.
         -1   -1    0    0    0  501 -0.00000000000E+00 -0.00000000000E+00 -0.11540580575E+03  0.11540580575E+03  0.00000000000E+00 0.  1.
         23    2    1    2    0    0  0.13974066056E+03 -0.14492436369E+02  0.20180366261E+03  0.26019581775E+03  0.85086205718E+02 0.  0.
         23    2    1    2    0    0 -0.58837169035E+02  0.16180392231E+02  0.15265993321E+03  0.19013310842E+03  0.95508775282E+02 0.  0.
        -11    1    4    4    0    0 -0.55005063111E+02  0.51936352182E+02  0.11813944821E+03  0.14028496309E+03  0.00000000000E+00 0. -1.
         11    1    4    4    0    0 -0.38321059239E+01 -0.35755959951E+02  0.34520484996E+02  0.49848145324E+02  0.00000000000E+00 0.  1.
        -13    1    3    3    0    0  0.49130159608E+02 -0.42136856125E+02  0.52342818948E+02  0.83240963009E+02  0.00000000000E+00 0.  1.
         13    1    3    3    0    0  0.90610500952E+02  0.27644419756E+02  0.14946084366E+03  0.17695485474E+03  0.00000000000E+00 0. -1.
         21    1    1    2  502  501 -0.62153263665E+02  0.76373690400E+01 -0.50093595347E+02  0.80191806844E+02  0.00000000000E+00 0.  1.
         21    1    1    2  503  502 -0.18750227860E+02 -0.93253249012E+01  0.44713555033E+02  0.49374434002E+02  0.00000000000E+00 0.  1.
<scales pt_clust_5="13000.00000" pt_clust_6="13000.00000" pt_clust_7="13000.00000" pt_clust_8="13000.00000" pt_clust_9="63.25202" pt_clust_10="20.94117"></scales>
<clustering>
<clus scale="   20.941">  1 10  2 -1</clus>
<clus scale="   63.252">  2  9  1 -1</clus>
<clus scale="   85.086">  7  8 -1 -1</clus>
<clus scale="   95.509">  5  6 -1 -1</clus>
<clus scale="  127.817">  2  7  1 -1</clus>
<clus scale="   20.941">  1  5  2 -1</clus>
</clustering>
</event>
<event>
10    2  0.1133532E-006  0.1753103E+03  0.7546771E-02  0.1197575E+00
         -2   -1    0    0    0  501 -0.00000000000E+00  0.00000000000E+00  0.28278008192E+03  0.28278008192E+03  0.00000000000E+00 0.  1.
          2   -1    0    0  503    0  0.00000000000E+00 -0.00000000000E+00 -0.58346581065E+03  0.58346581065E+03  0.00000000000E+00 0. -1.
         23    2    1    2    0    0  0.41196383168E+02 -0.11804592005E+02  0.14700902911E+03  0.17791296063E+03  0.90580773589E+02 0.  0.
         23    2    1    2    0    0  0.41224068521E+02  0.17540488099E+03 -0.15249752799E+02  0.20197426458E+03  0.89970842447E+02 0.  0.
        -11    1    3    3    0    0  0.21599711209E+02  0.39203543311E+02  0.77501080908E+02  0.89497948995E+02  0.00000000000E+00 0.  1.
         11    1    3    3    0    0  0.19596671959E+02 -0.51008135316E+02  0.69507948198E+02  0.88415011638E+02  0.00000000000E+00 0. -1.
        -13    1    4    4    0    0  0.68094403115E+02  0.12945615291E+03 -0.23375500748E+02  0.14812885369E+03  0.00000000000E+00 0.  1.
         13    1    4    4    0    0 -0.26870334594E+02  0.45948728083E+02  0.81257479484E+01  0.53845410885E+02  0.00000000000E+00 0. -1.
         21    1    1    2  502  501 -0.55512797020E+02 -0.10065631833E+03 -0.11871419577E+03  0.16524655921E+03  0.00000000000E+00 0. -1.
         21    1    1    2  503  502 -0.26907654669E+02 -0.62943970659E+02 -0.31373080926E+03  0.32111210815E+03  0.00000000000E+00 0. -1.
<scales pt_clust_5="13000.00000" pt_clust_6="13000.00000" pt_clust_7="13000.00000" pt_clust_8="13000.00000" pt_clust_9="150.46249" pt_clust_10="68.45411"></scales>
<clustering>
<clus scale="   68.454">  2 10  1 -1</clus>
<clus scale="   89.971">  7  8 -1 -1</clus>
<clus scale="   90.581">  5  6 -1 -1</clus>
<clus scale="  100.074">  1  5  2 -1</clus>
<clus scale="  150.462">  2  9  1 -1</clus>
<clus scale="   68.454">  2  5  1 -1</clus>
</clustering>
</event>
<event>
10    2  0.1133532E-006  0.2197621E+03  0.7546771E-02  0.1134229E+00
         -1   -1    0    0    0  501 -0.00000000000E+00  0.00000000000E+00  0.47583489811E+03  0.47583489811E+03  0.00000000000E+00 0.  1.
          1   -1    0    0  503    0  0.00000000000E+00 -0.00000000000E+00 -0.29589366725E+03  0.29589366725E+03  0.00000000000E+00 0. -1.
         23    2    1    2    0    0 -0.22745052640E+02 -0.16058320877E+03  0.11706178878E+03  0.21983048090E+03  0.91201280600E+02 0.  0.
         23    2    1    2    0    0 -0.51043985303E+02  0.25698732210E+03  0.15168259152E+03  0.31680917238E+03  0.93340618049E+02 0.  0.
        -11    1    3    3    0    0  0.32654822260E+02 -0.93180375101E+02  0.58831795334E+02  0.11493519854E+03  0.00000000000E+00 0.  1.
         11    1    3    3    0    0 -0.55399874901E+02 -0.67402833667E+02  0.58229993442E+02  0.10489528236E+03  0.00000000000E+00 0. -1.
        -13    1    4    4    0    0 -0.76296201630E+01  0.43293356499E+02  0.72561429217E+02  0.84839182167E+02  0.00000000000E+00 0.  1.
         13    1    4    4    0    0 -0.43414365140E+02  0.21369396561E+03  0.79121162306E+02  0.23196999022E+03  0.00000000000E+00 0. -1.
         21    1    1    2  502  501  0.45674071240E+02  0.24154100121E+01  0.46483045079E+02  0.65212180373E+02  0.00000000000E+00 0.  1.
         21    1    1    2  503  502  0.28114966703E+02 -0.98819523348E+02 -0.13528619452E+03  0.16987673170E+03  0.00000000000E+00 0.  1.
<scales pt_clust_5="13000.00000" pt_clust_6="13000.00000" pt_clust_7="13000.00000" pt_clust_8="13000.00000" pt_clust_9="45.73789" pt_clust_10="103.17655"></scales>
<clustering>
<clus scale="   45.738">  1  9  2 -1</clus>
<clus scale="   91.201">  5  6 -1 -1</clus>
<clus scale="   93.341">  7  8 -1 -1</clus>
<clus scale="  103.177">  2 10  1 -1</clus>
<clus scale="  218.862">  1  5  2 -1</clus>
<clus scale="  103.177">  2  5  1 -1</clus>
</clustering>
</event>
<event>
10    2  0.1133532E-006  0.1007464E+03  0.7546771E-02  0.1279503E+00
          2   -1    0    0  503    0  0.00000000000E+00  0.00000000000E+00  0.22827690266E+03  0.22827690266E+03  0.00000000000E+00 0. -1.
         -2   -1    0    0    0  501 -0.00000000000E+00 -0.00000000000E+00 -0.13860991127E+03  0.13860991127E+03  0.00000000000E+00 0.  1.
         23    2    1    2    0    0 -0.70322903209E+01  0.64241477870E+02 -0.59145296943E+02  0.12540940705E+03  0.89738133705E+02 0.  0.
         23    2    1    2    0    0 -0.32399721208E+01  0.84150991773E+01  0.95791403066E+02  0.13267819930E+03  0.91357541310E+02 0.  0.
        -11    1    4    4    0    0 -0.44630303871E+02  0.17434263211E+02  0.62765071668E+02  0.78963737113E+02  0.00000000000E+00 0.  1.
         11    1    4    4    0    0  0.41390331750E+02 -0.90191640337E+01  0.33026331399E+02  0.53714462186E+02  0.00000000000E+00 0. -1.
        -13    1    3    3    0    0 -0.12021878454E+02 -0.20401935209E+02 -0.23716994739E+02  0.33515076627E+02  0.00000000000E+00 0. -1.
         13    1    3    3    0    0  0.49895881328E+01  0.84643413079E+02 -0.35428302203E+02  0.91894330426E+02  0.00000000000E+00 0.  1.
         21    1    1    2  502  501  0.21973817755E+02 -0.78356076698E+01 -0.13802912341E+01  0.23369865600E+02  0.00000000000E+00 0. -1.
         21    1    1    2  503  502 -0.11701555313E+02 -0.64820969378E+02  0.54401176500E+02  0.85429341987E+02  0.00000000000E+00 0. -1.
<scales pt_clust_5="13000.00000" pt_clust_6="13000.00000" pt_clust_7="13000.00000" pt_clust_8="13000.00000" pt_clust_9="23.32907" pt_clust_10="66.39689"></scales>
<clustering>
<clus scale="   23.329">  2  9  1 -1</clus>
<clus scale="   66.397">  1 10  2 -1</clus>
<clus scale="   89.738">  7  8 -1 -1</clus>
<clus scale="   91.358">  5  6 -1 -1</clus>
<clus scale="   99.280">  2  7  1 -1</clus>
<clus scale="   66.397">  1  5  2 -1</clus>
</clustering>
</event>
<event>
10    2  0.1133532E-006  0.9528319E+02  0.7546771E-02  0.1290683E+00
         -2   -1    0    0    0  501 -0.00000000000E+00  0.00000000000E+00  0.47427378318E+02  0.47427378318E+02  0.00000000000E+00 0.  1.
          2   -1    0    0  503    0  0.00000000000E+00 -0.00000000000E+00 -0.50119409098E+03  0.50119409098E+03  0.00000000000E+00 0. -1.
         23    2    1    2    0    0  0.55481735300E+01  0.10496606293E+01 -0.90842861543E+02  0.12861846406E+03  0.90875738170E+02 0.  0.
         23    2    1    2    0    0 -0.50481330080E+02 -0.32402710385E+01 -0.22016221113E+03  0.24359277182E+03  0.91143706471E+02 0.  0.
        -11    1    4    4    0    0 -0.31694923283E+02  0.27217191890E+02 -0.33552294093E+02  0.53582647707E+02  0.00000000000E+00 0.  1.
         11    1    4    4    0    0 -0.18786406797E+02 -0.30457462929E+02 -0.18660991704E+03  0.19001012411E+03  0.00000000000E+00 0. -1.
        -13    1    3    3    0    0  0.35217403489E+02  0.79741162940E+01 -0.91265377327E+02  0.98148974206E+02  0.00000000000E+00 0. -1.
         13    1    3    3    0    0 -0.29669229959E+02 -0.69244556646E+01  0.42251578389E+00  0.30469489858E+02  0.00000000000E+00 0.  1.
         21    1    1    2  502  501  0.23608759902E+02  0.35952825661E+01  0.71927946635E+01  0.24940647464E+02  0.00000000000E+00 0. -1.
         21    1    1    2  503  502  0.21324396648E+02 -0.14046721569E+01 -0.14995443465E+03  0.15146958595E+03  0.00000000000E+00 0. -1.
<scales pt_clust_5="13000.00000" pt_clust_6="13000.00000" pt_clust_7="13000.00000" pt_clust_8="13000.00000" pt_clust_9="24.40963" pt_clust_10="21.37061"></scales>
<clustering>
<clus scale="   21.371">  2 10  1 -1</clus>
<clus scale="   24.410">  1  9  2 -1</clus>
<clus scale="   90.876">  7  8 -1 -1</clus>
<clus scale="   91.144">  5  6 -1 -1</clus>
<clus scale="   95.027">  1  7  2 -1</clus>
<clus scale="   21.371">  2  5  1 -1</clus>
</clustering>
</event>
<event>
10    2  0.1133532E-006  0.1781087E+03  0.7546771E-02  0.1169722E+00
         -1   -1    0    0    0  501 -0.00000000000E+00  0.00000000000E+00  0.23320056512E+03  0.23320056512E+03  0.00000000000E+00 0.  1.
          1   -1    0    0  503    0  0.00000000000E+00 -0.00000000000E+00 -0.33967498747E+03  0.33967498747E+03  0.00000000000E+00 0. -1.
         23    2    1    2    0    0  0.97970171906E+02  0.13631581741E+03  0.12937566814E+03  0.22942748531E+03  0.87856421779E+02 0.  0.
         23    2    1    2    0    0 -0.74503197495E+02 -0.96376128395E+02 -0.77660447371E+02  0.16940604253E+03  0.88476989085E+02 0.  0.
        -11    1    4    4    0    0 -0.12759893392E+02 -0.56223188617E+02 -0.76440833550E+02  0.95744779761E+02  0.00000000000E+00 0. -1.
         11    1    4    4    0    0 -0.61743304104E+02 -0.40152939778E+02 -0.12196138207E+01  0.73661262766E+02  0.00000000000E+00 0.  1.
        -13    1    3    3    0    0  0.39765712415E+02  0.11482745591E+03  0.11134519505E+03  0.16481628857E+03  0.00000000000E+00 0.  1.
         13    1    3    3    0    0  0.58204459491E+02  0.21488361499E+02  0.18030473086E+02  0.64611196741E+02  0.00000000000E+00 0. -1.
         21    1    1    2  502  501 -0.15410596777E+02 -0.21387592992E+02 -0.16902902219E+02  0.31314912269E+02  0.00000000000E+00 0. -1.
         21    1    1    2  503  502 -0.80563776336E+01 -0.18552096027E+02 -0.14128674090E+03  0.14272711249E+03  0.00000000000E+00 0.  1.
<scales pt_clust_5="13000.00000" pt_clust_6="13000.00000" pt_clust_7="13000.00000" pt_clust_8="13000.00000" pt_clust_9="28.77630" pt_clust_10="20.22586"></scales>
<clustering>
<clus scale="   20.226">  2 10  1 -1</clus>
<clus scale="   28.776">  2  9  1 -1</clus>
<clus scale="   87.856">  7  8 -1 -1</clus>
<clus scale="   88.477">  5  6 -1 -1</clus>
<clus scale="  177.801">  1  7  2 -1</clus>
<clus scale="   20.226">  2  5  1 -1</clus>
</clustering>
</event>
<event>
10    2  0.1133532E-006  0.1008372E+03  0.7546771E-02  0.1280263E+00
         -1   -1    0    0    0  501 -0.00000000000E+00  0.00000000000E+00  0.47389057321E+03  0.47389057321E+03  0.00000000000E+00 0.  1.
          1   -1    0    0  503    0  0.00000000000E+00 -0.00000000000E+00 -0.32630912699E+03  0.32630912699E+03  0.00000000000E+00 0. -1.
         23    2    1    2    0    0 -0.48602181926E+01 -0.17297976655E+02  0.34246651757E+03  0.35402267509E+03  0.87897082454E+02 0.  0.
         23    2    1    2    0    0  0.69183573510E+02  0.40086954132E+02 -0.70925021800E+02  0.14068996994E+03  0.91487584892E+02 0.  0.
        -11    1    3    3    0    0 -0.26114003093E+02  0.25794401028E+02  0.93201299189E+02  0.10016872991E+03  0.00000000000E+00 0. -1.
         11    1    3    3    0    0  0.21253784901E+02 -0.43092377683E+02  0.24926521838E+03  0.25385394518E+03  0.00000000000E+00 0.  1.
        -11    1    4    4    0    0  0.68603404579E+02  0.65146301773E+02 -0.65430493264E+02  0.11502876685E+03  0.00000000000E+00 0. -1.
         11    1    4    4    0    0  0.58016893090E+00 -0.25059347641E+02 -0.54945285356E+01  0.25661203090E+02  0.00000000000E+00 0.  1.
         21    1    1    2  502  501 -0.23745176610E+02 -0.13608073123E+02  0.86617846902E+02  0.90838672757E+02  0.00000000000E+00 0.  1.
         21    1    1    2  503  502 -0.40578178707E+02 -0.91809043543E+01 -0.21057789646E+03  0.21464838241E+03  0.00000000000E+00 0.  1.
<scales pt_clust_5="13000.00000" pt_clust_6="13000.00000" pt_clust_7="13000.00000" pt_clust_8="13000.00000" pt_clust_9="27.36810" pt_clust_10="41.74209"></scales>
<clustering>
<clus scale="   27.368">  1  9  2 -1</clus>
<clus scale="   41.742">  2 10  1 -1</clus>
<clus scale="   87.897">  5  6 -1 -1</clus>
<clus scale="   91.488">  7  8 -1 -1</clus>
<clus scale="   97.591">  1  5  2 -1</clus>
<clus scale="   41.742">  2  5  1 -1</clus>
</clustering>
</event>
<event>
10    2  0.1133532E-006  0.1461874E+03  0.7546771E-02  0.1216224E+00
          1   -1    0    0  503    0  0.00000000000E+00  0.00000000000E+00  0.25768348363E+03  0.25768348363E+03  0.00000000000E+00 0. -1.
         -1   -1    0    0    0  501 -0.00000000000E+00 -0.00000000000E+00 -0.42267765646E+03  0.42267765646E+03  0.00000000000E+00 0.  1.
         23    2    1    2    0    0 -0.93045493965E+02  0.78731417646E+02 -0.18409011954E+03  0.24253439791E+03  0.10038755890E+03 0.  0.
         23    2    1    2    0    0  0.46091161016E+02  0.50842558047E+02  0.11486057377E+03  0.16355904407E+03  0.94070445184E+02 0.  0.
        -13    1    4    4    0    0  0.33076459181E+02  0.68624750060E+01  0.11268787101E+03  0.11764226276E+03  0.00000000000E+00 0. -1.
         13    1    4    4    0    0  0.13014701835E+02  0.43980083041E+02  0.21727027592E+01  0.45916781305E+02  0.00000000000E+00 0.  1.
        -13    1    3    3    0    0 -0.61084167211E+02 -0.12763741237E+01 -0.12165242973E+03  0.13613309029E+03  0.00000000000E+00 0.  1.
         13    1    3    3    0    0 -0.31961326754E+02  0.80007791770E+02 -0.62437689818E+02  0.10640130761E+03  0.00000000000E+00 0. -1.
         21    1    1    2  502  501  0.40837757647E+01 -0.24520104579E+02 -0.14748936429E+03  0.14956946657E+03  0.00000000000E+00 0. -1.
         21    1    1    2  503  502  0.42870557185E+02 -0.10505387111E+03  0.51724737231E+02  0.12469823155E+03  0.00000000000E+00 0. -1.
<scales pt_clust_5="13000.00000" pt_clust_6="13000.00000" pt_clust_7="13000.00000" pt_clust_8="13000.00000" pt_clust_9="24.85785" pt_clust_10="106.26894"></scales>
<clustering>
<clus scale="   24.858">  2  9  1 -1</clus>
<clus scale="   94.070">  5  6 -1 -1</clus>
<clus scale="  100.388">  7  8 -1 -1</clus>
<clus scale="  115.652">  1  5  2 -1</clus>
<clus scale="  106.269">  1 10  2 -1</clus>
<clus scale="  115.652">  1  5  2 -1</clus>
</clustering>
</event>
<event>
10    2  0.1133532E-006  0.1301714E+03  0.7546771E-02  0.1228395E+00
          1   -1    0    0  502    0  0.00000000000E+00  0.00000000000E+00  0.53906707697E+03  0.53906707697E+03  0.00000000000E+00 0. -1.
         -1   -1    0    0    0  501 -0.00000000000E+00 -0.00000000000E+00 -0.93364792332E+02  0.93364792332E+02  0.00000000000E+00 0.  1.
         23    2    1    2    0    0 -0.41827984678E+02  0.83234298787E+02 -0.20344043159E+02  0.13486751139E+03  0.95382580899E+02 0.  0.
         23    2    1    2    0    0  0.78459079126E+01 -0.66090711461E+02  0.31031704006E+03  0.33016111083E+03  0.90995347899E+02 0.  0.
        -11    1    3    3    0    0 -0.52687620122E+02  0.35661025322E+01 -0.53744543697E+01  0.53080949136E+02  0.00000000000E+00 0. -1.
         11    1    3    3    0    0  0.10859635444E+02  0.79668196254E+02 -0.14969588789E+02  0.81786562251E+02  0.00000000000E+00 0.  1.
        -13    1    4    4    0    0  0.41816105383E+02 -0.66512797167E+02  0.22542594473E+03  0.23872451783E+03  0.00000000000E+00 0. -1.
         13    1    4    4    0    0 -0.33970197470E+02  0.42208570590E+00  0.84891095327E+02  0.91436592994E+02  0.00000000000E+00 0.  1.
         21    1    1    2  502  503  0.23209145446E+02  0.53016026075E+01  0.25782062567E+02  0.35092537280E+02  0.00000000000E+00 0. -1.
         21    1    1    2  503  501  0.10772931320E+02 -0.22445189933E+02  0.12994722517E+03  0.13231070980E+03  0.00000000000E+00 0. -1.
<scales pt_clust_5="13000.00000" pt_clust_6="13000.00000" pt_clust_7="13000.00000" pt_clust_8="13000.00000" pt_clust_9="23.80696" pt_clust_10="26.92725"></scales>
<clustering>
<clus scale="   23.807">  1  9  2 -1</clus>
<clus scale="   26.927">  1 10  2 -1</clus>
<clus scale="   90.995">  7  8 -1 -1</clus>
<clus scale="   95.383">  5  6 -1 -1</clus>
<clus scale="  126.992">  1  7  2 -1</clus>
<clus scale="   23.807">  1  5  2 -1</clus>
</clustering>
</event>
<event>
10    2  0.1133532E-006  0.1481776E+03  0.7546771E-02  0.1203028E+00
          1   -1    0    0  503    0  0.00000000000E+00  0.00000000000E+00  0.23881748958E+03  0.23881748958E+03  0.00000000000E+00 0. -1.
         -1   -1    0    0    0  501 -0.00000000000E+00 -0.00000000000E+00 -0.26183514572E+03  0.26183514572E+03  0.00000000000E+00 0.  1.
         23    2    1    2    0    0  0.67171025476E+02  0.13088414297E+03 -0.52324943574E+00  0.17350595332E+03  0.91986066906E+02 0.  0.
         23    2    1    2    0    0  0.20744498004E+02 -0.10315691177E+03  0.42229378256E+02  0.14503823898E+03  0.90449365587E+02 0.  0.
        -11    1    4    4    0    0  0.56614232225E+02 -0.66864364146E+02  0.23840277533E+02  0.90798531463E+02  0.00000000000E+00 0.  1.
         11    1    4    4    0    0 -0.35869734220E+02 -0.36292547622E+02  0.18389100723E+02  0.54239707515E+02  0.00000000000E+00 0. -1.
        -13    1    3    3    0    0  0.33810874610E+02  0.10060223109E+02 -0.28175878659E+02  0.45147131350E+02  0.00000000000E+00 0.  1.
         13    1    3    3    0    0  0.33360150866E+02  0.12082391986E+03  0.27652629223E+02  0.12835882197E+03  0.00000000000E+00 0. -1.
         21    1    1    2  502  501 -0.27146327613E+02 -0.32462977616E+02 -0.10215927905E+03  0.11057706053E+03  0.00000000000E+00 0.  1.
         21    1    1    2  503  502 -0.60769195868E+02  0.47357464177E+01  0.37435494092E+02  0.71531382473E+02  0.00000000000E+00 0.  1.
<scales pt_clust_5="13000.00000" pt_clust_6="13000.00000" pt_clust_7="13000.00000" pt_clust_8="13000.00000" pt_clust_9="42.31747" pt_clust_10="63.75681"></scales>
<clustering>
<clus scale="   42.317">  2  9  1 -1</clus>
<clus scale="   63.757">  1 10  2 -1</clus>
<clus scale="   90.449">  5  6 -1 -1</clus>
<clus scale="   91.986">  7  8 -1 -1</clus>
<clus scale="  147.229">  1  5  2 -1</clus>
<clus scale="   63.757">  1  5  2 -1</clus>
</clustering>
</event>
<event>
10    2  0.1133532E-006  0.1290439E+03  0.7546771E-02  0.1229085E+00
         -4   -1    0    0    0  501 -0.00000000000E+00  0.00000000000E+00  0.85566807299E+02  0.85566807299E+02  0.00000000000E+00 0.  1.
          4   -1    0    0  503    0  0.00000000000E+00 -0.00000000000E+00 -0.50018943635E+03  0.50018943635E+03  0.00000000000E+00 0. -1.
         23    2    1    2    0    0  0.11093977969E+03  0.20723513650E+02 -0.19896994756E+03  0.24647970684E+03  0.91793829389E+02 0.  0.
         23    2    1    2    0    0 -0.69090104234E+02 -0.34161607247E+02 -0.20399694588E+03  0.23630824265E+03  0.91029521038E+02 0.  0.
        -13    1    4    4    0    0 -0.89540130157E+02 -0.20738830229E+02 -0.17964540041E+03  0.20179198170E+03  0.00000000000E+00 0.  1.
         13    1    4    4    0    0  0.20450025923E+02 -0.13422777018E+02 -0.24351545469E+02  0.34516260948E+02  0.00000000000E+00 0. -1.
        -13    1    3    3    0    0  0.40858826580E+01 -0.26881990666E+02 -0.25668829808E+02  0.37392842671E+02  0.00000000000E+00 0.  1.
         13    1    3    3    0    0  0.10685389703E+03  0.47605504316E+02 -0.17330111776E+03  0.20908686417E+03  0.00000000000E+00 0. -1.
         21    1    1    2  502  501 -0.87750623334E+01 -0.18167043228E+02  0.33231952167E+02  0.38876803154E+02  0.00000000000E+00 0.  1.
         21    1    1    2  503  502 -0.33074613119E+02  0.31605136826E+02 -0.44887687772E+02  0.64091491013E+02  0.00000000000E+00 0.  1.
<scales pt_clust_5="13000.00000" pt_clust_6="13000.00000" pt_clust_7="13000.00000" pt_clust_8="13000.00000" pt_clust_9="20.17531" pt_clust_10="44.69893"></scales>
<clustering>
<clus scale="   20.175">  1  9  2 -1</clus>
<clus scale="   44.699">  1 10  2 -1</clus>
<clus scale="   91.030">  5  6 -1 -1</clus>
<clus scale="   91.794">  7  8 -1 -1</clus>
<clus scale="  128.501">  2  5  1 -1</clus>
<clus scale="  128.501">  2  5  1 -1</clus>
</clustering>
</event>
<event>
10    2  0.1133532E-006  0.1332137E+03  0.7546771E-02  0.1223035E+00
         -2   -1    0    0    0  501 -0.00000000000E+00  0.00000000000E+00  0.19416596329E+03  0.19416596329E+03  0.00000000000E+00 0.  1.
          2   -1    0    0  503    0  0.00000000000E+00 -0.00000000000E+00 -0.80549516112E+03  0.80549516112E+03  0.00000000000E+00 0. -1.
         23    2    1    2    0    0  0.77036160775E+02  0.74690572157E+02  0.73848308690E+02  0.15957002745E+03  0.92172497683E+02 0.  0.
         23    2    1    2    0    0 -0.20531640281E+02 -0.50369801418E+02 -0.24450020341E+03  0.26652361955E+03  0.91081420521E+02 0.  0.
        -13    1    4    4    0    0 -0.45063811960E+02 -0.62947865694E+02 -0.19601193452E+03  0.21074595944E+03  0.00000000000E+00 0. -1.
         13    1    4    4    0    0  0.24532171679E+02  0.12578064276E+02 -0.48488268889E+02  0.55777660116E+02  0.00000000000E+00 0.  1.
        -13    1    3    3    0    0  0.22633045121E+02  0.71256474422E+02  0.73807679211E+02  0.10505861882E+03  0.00000000000E+00 0.  1.
         13    1    3    3    0    0  0.54403115654E+02  0.34340977346E+01  0.40629479206E-01  0.54511408631E+02  0.00000000000E+00 0. -1.
         21    1    1    2  502  501  0.16826840364E+02 -0.25661579834E+02  0.60082369818E+02  0.67465179160E+02  0.00000000000E+00 0. -1.
         21    1    1    2  503  502 -0.73331360858E+02  0.13408090955E+01 -0.50075967293E+03  0.50610229824E+03  0.00000000000E+00 0. -1.
<scales pt_clust_5="13000.00000" pt_clust_6="13000.00000" pt_clust_7="13000.00000" pt_clust_8="13000.00000" pt_clust_9="30.68647" pt_clust_10="72.99118"></scales>
<clustering>
<clus scale="   30.686">  1  9  2 -1</clus>
<clus scale="   72.991">  2 10  1 -1</clus>
<clus scale="   91.081">  5  6 -1 -1</clus>
<clus scale="   92.172">  7  8 -1 -1</clus>
<clus scale="  132.461">  2  5  1 -1</clus>
<clus scale="   72.991">  2  5  1 -1</clus>
</clustering>
</event>
<event>
10    2  0.1133532E-006  0.1086570E+03  0.7546771E-02  0.1263465E+00
          1   -1    0    0  502    0  0.00000000000E+00  0.00000000000E+00  0.39492321757E+03  0.39492321757E+03  0.00000000000E+00 0. -1.
         -1   -1    0    0    0  501 -0.00000000000E+00 -0.00000000000E+00 -0.99394827349E+02  0.99394827349E+02  0.00000000000E+00 0.  1.
         23    2    1    2    0    0  0.57770185220E+02  0.57922088036E+01 -0.27857726734E+02  0.11270136311E+03  0.92491082409E+02 0.  0.
         23    2    1    2    0    0 -0.50439841937E+02 -0.56555308318E+01  0.24617584327E+03  0.26749857972E+03  0.91524759799E+02 0.  0.
        -13    1    4    4    0    0 -0.34918311159E+02 -0.39451215596E+02  0.70962548796E+02  0.88381956291E+02  0.00000000000E+00 0.  1.
         13    1    4    4    0    0 -0.15521530778E+02  0.33795684764E+02  0.17521329448E+03  0.17911662343E+03  0.00000000000E+00 0. -1.
        -13    1    3    3    0    0  0.91558156034E+01 -0.33983524373E+02  0.13278714246E+02  0.37616926246E+02  0.00000000000E+00 0.  1.
         13    1    3    3    0    0  0.48614369617E+02  0.39775733176E+02 -0.41136440980E+02  0.75084436866E+02  0.00000000000E+00 0. -1.
         21    1    1    2  502  503  0.35827313076E+02  0.14223113305E+02  0.35770928484E+02  0.52587571145E+02  0.00000000000E+00 0. -1.
         21    1    1    2  503  501 -0.43157656359E+02 -0.14359791277E+02  0.41439345200E+02  0.61530530946E+02  0.00000000000E+00 0. -1.
<scales pt_clust_5="13000.00000" pt_clust_6="13000.00000" pt_clust_7="13000.00000" pt_clust_8="13000.00000" pt_clust_9="38.54729" pt_clust_10="39.83603"></scales>
<clustering>
<clus scale="   38.547">  1  9  2 -1</clus>
<clus scale="   39.836">  1 10  2 -1</clus>
<clus scale="   91.525">  5  6 -1 -1</clus>
<clus scale="   92.491">  7  8 -1 -1</clus>
<clus scale="  107.836">  1  5  2 -1</clus>
<clus scale="   38.547">  1  5  2 -1</clus>
</clustering>
</event>
<event>
10    2  0.1133532E-006  0.1160975E+03  0.7546771E-02  0.1250422E+00
         -2   -1    0    0    0  501 -0.00000000000E+00  0.00000000000E+00  0.93932322296E+02  0.93932322296E+02  0.00000000000E+00 0.  1.
          2   -1    0    0  503    0  0.00000000000E+00 -0.00000000000E+00 -0.33315753882E+03  0.33315753882E+03  0.00000000000E+00 0. -1.
         23    2    1    2    0    0  0.51010813797E+02  0.65844166660E+02 -0.73499907675E+02  0.14559145550E+03  0.94112050652E+02 0.  0.
         23    2    1    2    0    0 -0.19621071006E+02 -0.60927880891E+02 -0.16875666942E+03  0.20257838668E+03  0.91989109033E+02 0.  0.
        -13    1    3    3    0    0  0.36744766576E+02  0.90083158830E+02 -0.60855685248E+02  0.11475438032E+03  0.00000000000E+00 0. -1.
         13    1    3    3    0    0  0.14266047222E+02 -0.24238992169E+02 -0.12644222427E+02  0.30837075178E+02  0.00000000000E+00 0.  1.
        -13    1    4    4    0    0  0.23989529834E+02  0.12137423136E+02 -0.37085430475E+02  0.45805498966E+02  0.00000000000E+00 0. -1.
         13    1    4    4    0    0 -0.43610600840E+02 -0.73065304026E+02 -0.13167123894E+03  0.15677288772E+03  0.00000000000E+00 0.  1.
         21    1    1    2  502  501 -0.15267078757E+02 -0.19150605153E+02  0.33578392759E+02  0.41561253973E+02  0.00000000000E+00 0.  1.
         21    1    1    2  503  502 -0.16122664035E+02  0.14234319384E+02 -0.30547032190E+02  0.37358764962E+02  0.00000000000E+00 0. -1.
<scales pt_clust_5="13000.00000" pt_clust_6="13000.00000" pt_clust_7="13000.00000" pt_clust_8="13000.00000" pt_clust_9="24.47868" pt_clust_10="21.50712"></scales>
<clustering>
<clus scale="   21.507">  2 10  1 -1</clus>
<clus scale="   24.479">  1  9  2 -1</clus>
<clus scale="   91.989">  7  8 -1 -1</clus>
<clus scale="   94.112">  5  6 -1 -1</clus>
<clus scale="  114.383">  2  7  1 -1</clus>
<clus scale="   21.507">  2  5  1 -1</clus>
</clustering>
</event>
<event>
10    2  0.1133532E-006  0.1182204E+03  0.7546771E-02  0.1246210E+00
         -1   -1    0    0    0  501 -0.00000000000E+00  0.00000000000E+00  0.28481566485E+03  0.28481566485E+03  0.00000000000E+00 0.  1.
          1   -1    0    0  503    0  0.00000000000E+00 -0.00000000000E+00 -0.18121779827E+03  0.18121779827E+03  0.00000000000E+00 0. -1.
         23    2    1    2    0    0 -0.28830419021E+02  0.65341380413E+01  0.16833308839E+03  0.19394618449E+03  0.91679909522E+02 0.  0.
         23    2    1    2    0    0  0.83419605427E+02 -0.54728512842E+02 -0.11399390468E+03  0.17683638531E+03  0.91227496825E+02 0.  0.
        -11    1    4    4    0    0  0.41621634809E+02  0.11981750512E+02 -0.68027914401E+01  0.43842910497E+02  0.00000000000E+00 0.  1.
         11    1    4    4    0    0  0.41797970618E+02 -0.66710263354E+02 -0.10719111324E+03  0.13299347481E+03  0.00000000000E+00 0. -1.
        -13    1    3    3    0    0 -0.28796418703E+02 -0.29418329724E+02  0.14583657908E+03  0.15153540726E+03  0.00000000000E+00 0.  1.
         13    1    3    3    0    0 -0.34000317612E-01  0.35952467765E+02  0.22496509306E+02  0.42410777231E+02  0.00000000000E+00 0. -1.
         21    1    1    2  502  501 -0.32993154724E+02  0.45988057982E+02  0.46727151328E+02  0.73395343223E+02  0.00000000000E+00 0.  1.
         21    1    1    2  503  502 -0.21596031682E+02  0.22063168185E+01  0.25315315384E+01  0.21855550102E+02  0.00000000000E+00 0.  1.
<scales pt_clust_5="13000.00000" pt_clust_6="13000.00000" pt_clust_7="13000.00000" pt_clust_8="13000.00000" pt_clust_9="57.73067" pt_clust_10="21.70844"></scales>
<clustering>
<clus scale="   21.708">  2 10  1 -1</clus>
<clus scale="   57.731">  1  9  2 -1</clus>
<clus scale="   91.227">  5  6 -1 -1</clus>
<clus scale="   91.680">  7  8 -1 -1</clus>
<clus scale="  117.870">  2  5  1 -1</clus>
<clus scale="   21.708">  2  5  1 -1</clus>
</clustering>
</event>
<event>
10    2  0.1133532E-006  0.1016237E+03  0.7546771E-02  0.1277453E+00
          1   -1    0    0  503    0  0.00000000000E+00  0.00000000000E+00  0.51372190172E+02  0.51372190172E+02  0.00000000000E+00 0. -1.
         -1   -1    0    0    0  501 -0.00000000000E+00 -0.00000000000E+00 -0.32950429389E+03  0.32950429389E+03  0.00000000000E+00 0.  1.
         23    2    1    2    0    0  0.31650736924E+02  0.22821885284E+02 -0.14148889802E+03  0.17355289860E+03  0.92622312388E+02 0.  0.
         23    2    1    2    0    0 -0.40051606903E+02 -0.75195962610E+01 -0.62615997278E+02  0.11987310530E+03  0.93744987686E+02 0.  0.
        -11    1    4    4    0    0  0.25279470124E+02 -0.23684826452E+02 -0.25508177400E+02  0.43019643514E+02  0.00000000000E+00 0.  1.
         11    1    4    4    0    0 -0.65331077027E+02  0.16165230191E+02 -0.37107819879E+02  0.76853461788E+02  0.00000000000E+00 0. -1.
        -13    1    3    3    0    0 -0.24904583656E+02  0.32522847547E+01 -0.93583428111E+02  0.96895168405E+02  0.00000000000E+00 0. -1.
         13    1    3    3    0    0  0.56555320581E+02  0.19569600529E+02 -0.47905469914E+02  0.76657730194E+02  0.00000000000E+00 0.  1.
         21    1    1    2  502  501  0.22227699312E+02  0.36821417364E+01 -0.42904773098E+02  0.48460791771E+02  0.00000000000E+00 0.  1.
         21    1    1    2  503  502 -0.13826829333E+02 -0.18984430760E+02 -0.31122435315E+02  0.38989688388E+02  0.00000000000E+00 0. -1.
<scales pt_clust_5="13000.00000" pt_clust_6="13000.00000" pt_clust_7="13000.00000" pt_clust_8="13000.00000" pt_clust_9="22.53062" pt_clust_10="21.59038"></scales>
<clustering>
<clus scale="   22.531">  2  9  1 -1</clus>
<clus scale="   21.590">  2 10  1 -1</clus>
<clus scale="   92.622">  7  8 -1 -1</clus>
<clus scale="   93.745">  5  6 -1 -1</clus>
<clus scale="  100.589">  2  7  1 -1</clus>
<clus scale="  101.624">  1  5  2 -1</clus>
</clustering>
</event>
<event>
10    2  0.1133532E-006  0.1374564E+03  0.7546771E-02  0.1216911E+00
          3   -1    0    0  503    0  0.00000000000E+00  0.00000000000E+00  0.43859285329E+03  0.43859285329E+03  0.00000000000E+00 0. -1.
         -3   -1    0    0    0  501 -0.00000000000E+00 -0.00000000000E+00 -0.10607639464E+03  0.10607639464E+03  0.00000000000E+00 0.  1.
         23    2    1    2    0    0  0.44029677438E+02 -0.90675494574E+02  0.85068780428E+02  0.16008689553E+03  0.90721876659E+02 0.  0.
         23    2    1    2    0    0 -0.27145151202E+00  0.12658933087E+03  0.23341812515E+03  0.28077322597E+03  0.91239524861E+02 0.  0.
        -13    1    4    4    0    0 -0.35217372833E+02  0.14063426824E+02  0.49652203723E+02  0.62477073057E+02  0.00000000000E+00 0.  1.
         13    1    4    4    0    0  0.34945921321E+02  0.11252590405E+03  0.18376592143E+03  0.21829615292E+03  0.00000000000E+00 0. -1.
        -13    1    3    3    0    0 -0.12885016799E+02 -0.40080992552E+02 -0.47071112530E+01  0.42363504555E+02  0.00000000000E+00 0. -1.
         13    1    3    3    0    0  0.56914694236E+02 -0.50594502022E+02  0.89775891681E+02  0.11772339097E+03  0.00000000000E+00 0.  1.
         21    1    1    2  502  501 -0.42440204684E+02  0.34237850447E+01 -0.24170264523E+02  0.48960136486E+02  0.00000000000E+00 0.  1.
         21    1    1    2  503  502 -0.13180212415E+01 -0.39337621344E+02  0.38199817593E+02  0.54848989937E+02  0.00000000000E+00 0.  1.
<scales pt_clust_5="13000.00000" pt_clust_6="13000.00000" pt_clust_7="13000.00000" pt_clust_8="13000.00000" pt_clust_9="42.53778" pt_clust_10="39.35970"></scales>
<clustering>
<clus scale="   39.360">  1 10  2 -1</clus>
<clus scale="   42.538">  2  9  1 -1</clus>
<clus scale="   90.722">  7  8 -1 -1</clus>
<clus scale="   91.240">  5  6 -1 -1</clus>
<clus scale="  137.113">  2  7  1 -1</clus>
<clus scale="   39.360">  1  5  2 -1</clus>
</clustering>
</event>
<event>
10    2  0.1133532E-006  0.1392692E+03  0.7546771E-02  0.1214638E+00
          1   -1    0    0  503    0  0.00000000000E+00  0.00000000000E+00  0.30024543905E+03  0.30024543905E+03  0.00000000000E+00 0. -1.
         -1   -1    0    0    0  501 -0.00000000000E+00 -0.00000000000E+00 -0.24109485760E+03  0.24109485760E+03  0.00000000000E+00 0.  1.
         23    2    1    2    0    0 -0.56285792772E+01  0.12108177665E+03 -0.50094811065E+02  0.16012164784E+03  0.91853004695E+02 0.  0.
         23    2    1    2    0    0 -0.42510133990E+01 -0.13695218545E+03  0.83732516298E+02  0.18427869355E+03  0.90407579309E+02 0.  0.
        -13    1    3    3    0    0 -0.42220160041E+02  0.64093374611E+02 -0.14960012555E+01  0.76764188283E+02  0.00000000000E+00 0.  1.
         13    1    3    3    0    0  0.36591580764E+02  0.56988402037E+02 -0.48598809809E+02  0.83357459561E+02  0.00000000000E+00 0. -1.
        -13    1    4    4    0    0 -0.13552114337E+02 -0.91037080878E+02  0.43987110414E+01  0.92145312179E+02  0.00000000000E+00 0. -1.
         13    1    4    4    0    0  0.93011009382E+01 -0.45915104576E+02  0.79333805256E+02  0.92133381373E+02  0.00000000000E+00 0.  1.
         21    1    1    2  502  501  0.10639824473E+01 -0.48340907255E+02 -0.67830932350E+02  0.83300724825E+02  0.00000000000E+00 0.  1.
         21    1    1    2  503  502  0.88156102289E+01  0.64211316060E+02  0.93343808569E+02  0.11363923043E+03  0.00000000000E+00 0. -1.
<scales pt_clust_5="13000.00000" pt_clust_6="13000.00000" pt_clust_7="13000.00000" pt_clust_8="13000.00000" pt_clust_9="48.35261" pt_clust_10="61.88830"></scales>
<clustering>
<clus scale="   48.353">  2  9  1 -1</clus>
<clus scale="   61.888">  1 10  2 -1</clus>
<clus scale="   90.408">  7  8 -1 -1</clus>
<clus scale="   91.853">  5  6 -1 -1</clus>
<clus scale="  138.320">  1  7  2 -1</clus>
<clus scale="   61.888">  1  5  2 -1</clus>
</clustering>
</event>
<event>
10    2  0.1133532E-006  0.1252448E+03  0.7546771E-02  0.1236022E+00
         -1   -1    0    0    0  501 -0.00000000000E+00  0.00000000000E+00  0.33394121824E+03  0.33394121824E+03  0.00000000000E+00 0.  1.
          1   -1    0    0  503    0  0.00000000000E+00 -0.00000000000E+00 -0.20298394580E+03  0.20298394580E+03  0.00000000000E+00 0. -1.
         23    2    1    2    0    0  0.63988343246E+02 -0.10222056115E+03  0.18336638544E+02  0.15297530765E+03  0.92312844420E+02 0.  0.
         23    2    1    2    0    0 -0.41483391081E+02  0.30136687123E+02 -0.98956582284E+01  0.10992060296E+03  0.96723953893E+02 0.  0.
        -11    1    3    3    0    0  0.35581993795E+02  0.40964849206E+01  0.23448808832E+02  0.42810116874E+02  0.00000000000E+00 0.  1.
         11    1    3    3    0    0  0.28406349451E+02 -0.10631704607E+03 -0.51121702878E+01  0.11016519078E+03  0.00000000000E+00 0. -1.
        -11    1    4    4    0    0 -0.34263728268E+02  0.57975599167E+02 -0.31110738541E+02  0.74182553382E+02  0.00000000000E+00 0.  1.
         11    1    4    4    0    0 -0.72196628130E+01 -0.27838912044E+02  0.21215080312E+02  0.35738049577E+02  0.00000000000E+00 0. -1.
         21    1    1    2  502  501 -0.34185766152E+02  0.40303833331E+02  0.19070741890E+03  0.19789488425E+03  0.00000000000E+00 0. -1.
         21    1    1    2  503  502  0.11680813987E+02  0.31780040693E+02 -0.68191126768E+02  0.76134369188E+02  0.00000000000E+00 0. -1.
<scales pt_clust_5="13000.00000" pt_clust_6="13000.00000" pt_clust_7="13000.00000" pt_clust_8="13000.00000" pt_clust_9="53.31382" pt_clust_10="33.85871"></scales>
<clustering>
<clus scale="   33.859">  2 10  1 -1</clus>
<clus scale="   53.314">  1  9  2 -1</clus>
<clus scale="   92.313">  5  6 -1 -1</clus>
<clus scale="   96.724">  7  8 -1 -1</clus>
<clus scale="  121.870">  1  5  2 -1</clus>
<clus scale="   33.859">  2  5  1 -1</clus>
</clustering>
</event>
<event>
10    2  0.1133532E-006  0.4670148E+03  0.7546771E-02  0.1022774E+00
         -1   -1    0    0    0  501 -0.00000000000E+00  0.00000000000E+00  0.15874881979E+03  0.15874881979E+03  0.00000000000E+00 0.  1.
          1   -1    0    0  503    0  0.00000000000E+00 -0.00000000000E+00 -0.17804904209E+04  0.17804904209E+04  0.00000000000E+00 0. -1.
         23    2    1    2    0    0 -0.38458288586E+03 -0.28008152678E+03 -0.46450539901E+03  0.67109654432E+03  0.90860598419E+02 0.  0.
         23    2    1    2    0    0  0.37182010099E+03  0.23718585355E+03 -0.11121940513E+04  0.11999321346E+04  0.91401330454E+02 0.  0.
        -11    1    4    4    0    0  0.18151925571E+03  0.14758797054E+03 -0.48645248534E+03  0.53978465126E+03  0.00000000000E+00 0.  1.
         11    1    4    4    0    0  0.19030084528E+03  0.89597883005E+02 -0.62574156597E+03  0.66014748332E+03  0.00000000000E+00 0. -1.
        -11    1    3    3    0    0 -0.26098064072E+03 -0.23565853617E+03 -0.31499898462E+03  0.47209130559E+03  0.00000000000E+00 0.  1.
         11    1    3    3    0    0 -0.12360224515E+03 -0.44422990618E+02 -0.14950641439E+03  0.19900523873E+03  0.00000000000E+00 0. -1.
         21    1    1    2  502  501  0.65345196226E+01  0.21227248821E+02 -0.58036029960E+01  0.22955998061E+02  0.00000000000E+00 0. -1.
         21    1    1    2  503  502  0.62282652540E+01  0.21668424415E+02 -0.39238547746E+02  0.45254563681E+02  0.00000000000E+00 0.  1.
<scales pt_clust_5="13000.00000" pt_clust_6="13000.00000" pt_clust_7="13000.00000" pt_clust_8="13000.00000" pt_clust_9="22.21027" pt_clust_10="22.99058"></scales>
<clustering>
<clus scale="   22.210">  1  9  2 -1</clus>
<clus scale="   22.991">  2 10  1 -1</clus>
<clus scale="   90.861">  7  8 -1 -1</clus>
<clus scale="   91.401">  5  6 -1 -1</clus>
<clus scale="  466.909">  1  7  2 -1</clus>
<clus scale="   22.991">  2  5  1 -1</clus>
</clustering>
</event>
<event>
10    2  0.1133532E-006  0.9777755E+02  0.7546771E-02  0.1285817E+00
          1   -1    0    0  503    0  0.00000000000E+00  0.00000000000E+00  0.52318150549E+03  0.52318150549E+03  0.00000000000E+00 0. -1.
         -1   -1    0    0    0  501 -0.00000000000E+00 -0.00000000000E+00 -0.44567105891E+03  0.44567105891E+03  0.00000000000E+00 0.  1.
         23    2    1    2    0    0  0.53724495825E+02 -0.17643424470E+02 -0.25618572871E+03  0.27814813936E+03  0.92399393696E+02 0.  0.
         23    2    1    2    0    0 -0.10232549954E+02 -0.78303653549E+02  0.38656399358E+03  0.40556334207E+03  0.93881500133E+02 0.  0.
        -11    1    3    3    0    0 -0.24939662084E+02 -0.14118740859E+02 -0.85481181600E+02  0.90157406773E+02  0.00000000000E+00 0. -1.
         11    1    3    3    0    0  0.78664157909E+02 -0.35246836110E+01 -0.17070454711E+03  0.18799073258E+03  0.00000000000E+00 0.  1.
        -11    1    4    4    0    0  0.16185386928E+02 -0.17342876662E+02  0.14912617792E+02  0.28020140798E+02  0.00000000000E+00 0.  1.
         11    1    4    4    0    0 -0.26417936882E+02 -0.60960776887E+02  0.37165137578E+03  0.37754320128E+03  0.00000000000E+00 0. -1.
         21    1    1    2  502  501 -0.54805448801E+02  0.44817320441E+02 -0.15497957832E+03  0.17038456247E+03  0.00000000000E+00 0. -1.
         21    1    1    2  503  502  0.11313502930E+02  0.51129757578E+02  0.10211176004E+03  0.11475652050E+03  0.00000000000E+00 0.  1.
<scales pt_clust_5="13000.00000" pt_clust_6="13000.00000" pt_clust_7="13000.00000" pt_clust_8="13000.00000" pt_clust_9="71.24085" pt_clust_10="52.36647"></scales>
<clustering>
<clus scale="   52.366">  1 10  2 -1</clus>
<clus scale="   71.241">  2  9  1 -1</clus>
<clus scale="   92.399">  5  6 -1 -1</clus>
<clus scale="   93.882">  7  8 -1 -1</clus>
<clus scale="   96.355">  2  5  1 -1</clus>
<clus scale="   52.366">  1  5  2 -1</clus>
</clustering>
</event>
<event>
10    2  0.1133532E-006  0.1511331E+03  0.7546771E-02  0.1222004E+00
          1   -1    0    0  503    0  0.00000000000E+00  0.00000000000E+00  0.45274213086E+03  0.45274213086E+03  0.00000000000E+00 0. -1.
         -1   -1    0    0    0  501 -0.00000000000E+00 -0.00000000000E+00 -0.18689557925E+03  0.18689557925E+03  0.00000000000E+00 0.  1.
         23    2    1    2    0    0  0.14275659866E+00  0.69997015445E+01 -0.73837104833E+02  0.11730815406E+03  0.90886020698E+02 0.  0.
         23    2    1    2    0    0  0.10547296471E+03 -0.70192362197E+02  0.30164534064E+03  0.33982715126E+03  0.91875280723E+02 0.  0.
        -13    1    3    3    0    0 -0.20796645796E+01 -0.41253630298E+02 -0.44852873699E+02  0.60975136709E+02  0.00000000000E+00 0.  1.
         13    1    3    3    0    0  0.22224211783E+01  0.48253331843E+02 -0.28984231134E+02  0.56333017354E+02  0.00000000000E+00 0. -1.
        -13    1    4    4    0    0  0.10752024796E+03 -0.39683256514E+02  0.17244066095E+03  0.20705348613E+03  0.00000000000E+00 0.  1.
         13    1    4    4    0    0 -0.20472832546E+01 -0.30509105684E+02  0.12920467969E+03  0.13277366513E+03  0.00000000000E+00 0. -1.
         21    1    1    2  502  501 -0.27192208735E+02 -0.15457619029E+02 -0.37009351301E+02  0.48456643359E+02  0.00000000000E+00 0.  1.
         21    1    1    2  503  502 -0.78423512569E+02  0.78650279681E+02  0.75047667107E+02  0.13404576142E+03  0.00000000000E+00 0.  1.
<scales pt_clust_5="13000.00000" pt_clust_6="13000.00000" pt_clust_7="13000.00000" pt_clust_8="13000.00000" pt_clust_9="31.27865" pt_clust_10="120.00063"></scales>
<clustering>
<clus scale="   31.279">  2  9  1 -1</clus>
<clus scale="   90.886">  5  6 -1 -1</clus>
<clus scale="   91.875">  7  8 -1 -1</clus>
<clus scale="   92.686">  2  5  1 -1</clus>
<clus scale="  120.001">  2 10  1 -1</clus>
<clus scale="  151.133">  1  5  2 -1</clus>
</clustering>
</event>
<event>
10    2  0.1133532E-006  0.1323694E+03  0.7546771E-02  0.1225668E+00
          1   -1    0    0  503    0  0.00000000000E+00  0.00000000000E+00  0.33564950216E+03  0.33564950216E+03  0.00000000000E+00 0. -1.
         -1   -1    0    0    0  501 -0.00000000000E+00 -0.00000000000E+00 -0.11860482301E+03  0.11860482301E+03  0.00000000000E+00 0.  1.
         23    2    1    2    0    0  0.69158161721E+02  0.20050205258E+01 -0.16414943058E+02  0.11909392216E+03  0.95535545744E+02 0.  0.
         23    2    1    2    0    0 -0.89185324483E+02  0.43498156169E+02  0.23408160378E+03  0.26940474775E+03  0.89098873109E+02 0.  0.
        -13    1    4    4    0    0 -0.23504190060E+02  0.49433725740E+02  0.51025507556E+02  0.74831427971E+02  0.00000000000E+00 0.  1.
         13    1    4    4    0    0 -0.65681134423E+02 -0.59355695712E+01  0.18305609622E+03  0.19457331978E+03  0.00000000000E+00 0. -1.
        -13    1    3    3    0    0  0.14262325114E+02  0.45595547916E+02 -0.44305593844E+01  0.47979138841E+02  0.00000000000E+00 0.  1.
         13    1    3    3    0    0  0.54895836607E+02 -0.43590527390E+02 -0.11984383673E+02  0.71114783322E+02  0.00000000000E+00 0. -1.
         21    1    1    2  502  501  0.21107799847E+02 -0.60509169145E+01 -0.11540740676E+02  0.24806077990E+02  0.00000000000E+00 0.  1.
         21    1    1    2  503  502 -0.10806370850E+01 -0.39452259780E+02  0.10918759102E+02  0.40949577270E+02  0.00000000000E+00 0.  1.
<scales pt_clust_5="13000.00000" pt_clust_6="13000.00000" pt_clust_7="13000.00000" pt_clust_8="13000.00000" pt_clust_9="21.95798" pt_clust_10="40.41024"></scales>
<clustering>
<clus scale="   21.958">  2  9  1 -1</clus>
<clus scale="   40.410">  2 10  1 -1</clus>
<clus scale="   89.099">  5  6 -1 -1</clus>
<clus scale="   95.536">  7  8 -1 -1</clus>
<clus scale="  127.802">  1  5  2 -1</clus>
<clus scale="  127.802">  1  5  2 -1</clus>
</clustering>
</event>
<event>
10    2  0.1133532E-006  0.1147076E+03  0.7546771E-02  0.1252451E+00
          1   -1    0    0  503    0  0.00000000000E+00  0.00000000000E+00  0.59589803294E+02  0.59589803294E+02  0.00000000000E+00 0. -1.
         -1   -1    0    0    0  501 -0.00000000000E+00 -0.00000000000E+00 -0.38707430388E+03  0.38707430388E+03  0.00000000000E+00 0.  1.
         23    2    1    2    0    0  0.78282843514E+02  0.41212719771E+01 -0.12477178358E+03  0.17335615218E+03  0.91319050859E+02 0.  0.
         23    2    1    2    0    0 -0.62727626601E+02  0.15957529729E+01 -0.85388607212E+02  0.13921594400E+03  0.90291545877E+02 0.  0.
        -11    1    4    4    0    0  0.22698713890E+02  0.67698397537E+01 -0.12401589462E+02  0.26736898917E+02  0.00000000000E+00 0.  1.
         11    1    4    4    0    0 -0.85426340491E+02 -0.51740867808E+01 -0.72987017750E+02  0.11247904509E+03  0.00000000000E+00 0. -1.
        -13    1    3    3    0    0  0.72786975029E+02  0.40158034207E+02 -0.95435348202E+02  0.12656428063E+03  0.00000000000E+00 0.  1.
         13    1    3    3    0    0  0.54958684850E+01 -0.36036762230E+02 -0.29336435381E+02  0.46791871551E+02  0.00000000000E+00 0. -1.
         21    1    1    2  502  501  0.20008306544E+02 -0.51304802935E+01 -0.79631867915E+02  0.82267177819E+02  0.00000000000E+00 0.  1.
         21    1    1    2  503  502 -0.35563523457E+02 -0.58654465646E+00 -0.37692241879E+02  0.51824833170E+02  0.00000000000E+00 0.  1.
<scales pt_clust_5="13000.00000" pt_clust_6="13000.00000" pt_clust_7="13000.00000" pt_clust_8="13000.00000" pt_clust_9="20.65561" pt_clust_10="32.66547"></scales>
<clustering>
<clus scale="   20.656">  2  9  1 -1</clus>
<clus scale="   32.665">  2 10  1 -1</clus>
<clus scale="   90.292">  5  6 -1 -1</clus>
<clus scale="   91.319">  7  8 -1 -1</clus>
<clus scale="  113.891">  1  5  2 -1</clus>
<clus scale="  113.891">  1  5  2 -1</clus>
</clustering>
</event>
<event>
10    2  0.1133532E-006  0.1703264E+03  0.7546771E-02  0.1177582E+00
         -1   -1    0    0    0  501 -0.00000000000E+00  0.00000000000E+00  0.10541242484E+03  0.10541242484E+03  0.00000000000E+00 0.  1.
          1   -1    0    0  503    0  0.00000000000E+00 -0.00000000000E+00 -0.11076614186E+04  0.11076614186E+04  0.00000000000E+00 0. -1.
         23    2    1    2    0    0 -0.15666545865E+03 -0.20282649214E+02 -0.25993835738E+02  0.18368158914E+03  0.90043294580E+02 0.  0.
         23    2    1    2    0    0  0.14953013921E+03 -0.35190411163E+02 -0.68496653119E+03  0.70780046937E+03  0.90579953794E+02 0.  0.
        -11    1    3    3    0    0 -0.86710123926E+02  0.31588717616E+02  0.16858152661E+01  0.92300241846E+02  0.00000000000E+00 0. -1.
         11    1    3    3    0    0 -0.69955334725E+02 -0.51871366830E+02 -0.27679651004E+02  0.91381347292E+02  0.00000000000E+00 0.  1.
        -11    1    4    4    0    0  0.46217561435E+02 -0.53560992527E+02 -0.21810115678E+03  0.22928793578E+03  0.00000000000E+00 0.  1.
         11    1    4    4    0    0  0.10331257777E+03  0.18370581364E+02 -0.46686537441E+03  0.47851253359E+03  0.00000000000E+00 0. -1.
         21    1    1    2  502  501  0.15684101719E+02  0.13864769242E+02  0.56079745900E+01  0.21671923123E+02  0.00000000000E+00 0. -1.
         21    1    1    2  503  502 -0.85487822764E+01  0.41608291135E+02 -0.29689660141E+03  0.29991986179E+03  0.00000000000E+00 0.  1.
<scales pt_clust_5="13000.00000" pt_clust_6="13000.00000" pt_clust_7="13000.00000" pt_clust_8="13000.00000" pt_clust_9="20.93377" pt_clust_10="42.65018"></scales>
<clustering>
<clus scale="   20.934">  1  9  2 -1</clus>
<clus scale="   42.650">  2 10  1 -1</clus>
<clus scale="   90.043">  5  6 -1 -1</clus>
<clus scale="   90.580">  7  8 -1 -1</clus>
<clus scale="  170.042">  1  5  2 -1</clus>
<clus scale="   42.650">  2  5  1 -1</clus>
</clustering>
</event>
<event>
10    2  0.1133532E-006  0.1203712E+03  0.7546771E-02  0.1245863E+00
          1   -1    0    0  503    0  0.00000000000E+00  0.00000000000E+00  0.92078912343E+02  0.92078912343E+02  0.00000000000E+00 0. -1.
         -1   -1    0    0    0  501 -0.00000000000E+00 -0.00000000000E+00 -0.43084449829E+03  0.43084449829E+03  0.00000000000E+00 0.  1.
         23    2    1    2    0    0 -0.85514989489E+01  0.43098733571E+02 -0.21289185368E+03  0.23607649884E+03  0.92079003963E+02 0.  0.
         23    2    1    2    0    0 -0.22664942291E+02 -0.81388454648E+02 -0.54320917819E+02  0.14287297627E+03  0.10160780028E+03 0.  0.
        -11    1    3    3    0    0  0.26144782324E+02 -0.53121855987E+00 -0.14290395435E+02  0.29800121436E+02  0.00000000000E+00 0. -1.
         11    1    3    3    0    0 -0.34696281273E+02  0.43629952131E+02 -0.19860145825E+03  0.20627637741E+03  0.00000000000E+00 0.  1.
        -13    1    4    4    0    0 -0.24426013653E+02  0.12069343957E+02 -0.39867364351E+02  0.48287741165E+02  0.00000000000E+00 0.  1.
         13    1    4    4    0    0  0.17610713622E+01 -0.93457798605E+02 -0.14453553469E+02  0.94585235107E+02  0.00000000000E+00 0. -1.
         21    1    1    2  502  501 -0.64208991946E+01  0.26904817943E+02 -0.94487306582E+02  0.98452771825E+02  0.00000000000E+00 0.  1.
         21    1    1    2  503  502  0.37637340434E+02  0.11384903134E+02  0.22934492139E+02  0.45521163694E+02  0.00000000000E+00 0. -1.
<scales pt_clust_5="13000.00000" pt_clust_6="13000.00000" pt_clust_7="13000.00000" pt_clust_8="13000.00000" pt_clust_9="27.66039" pt_clust_10="39.38813"></scales>
<clustering>
<clus scale="   27.660">  2  9  1 -1</clus>
<clus scale="   39.388">  1 10  2 -1</clus>
<clus scale="   92.079">  5  6 -1 -1</clus>
<clus scale="  101.608">  7  8 -1 -1</clus>
<clus scale="  112.444">  2  5  1 -1</clus>
<clus scale="   39.388">  1  5  2 -1</clus>
</clustering>
</event>
<event>
10    2  0.1133532E-006  0.1012691E+03  0.7546771E-02  0.1282829E+00
         -2   -1    0    0    0  501 -0.00000000000E+00  0.00000000000E+00  0.77430569384E+02  0.77430569384E+02  0.00000000000E+00 0.  1.
          2   -1    0    0  503    0  0.00000000000E+00 -0.00000000000E+00 -0.29516063243E+03  0.29516063243E+03  0.00000000000E+00 0. -1.
         23    2    1    2    0    0 -0.15920350483E+02  0.51774331314E+02 -0.48089249094E+02  0.10883387931E+03  0.81229295613E+02 0.  0.
         23    2    1    2    0    0  0.24940203599E+02 -0.33333929722E+02 -0.13271973359E+03  0.16667376825E+03  0.91828387281E+02 0.  0.
        -13    1    4    4    0    0  0.32854337804E+02 -0.61084297401E+02 -0.10957547241E+03  0.12968223878E+03  0.00000000000E+00 0.  1.
         13    1    4    4    0    0 -0.79141342050E+01  0.27750367679E+02 -0.23144261178E+02  0.36991529463E+02  0.00000000000E+00 0. -1.
        -13    1    3    3    0    0 -0.45424048155E+02  0.39209289506E+02 -0.47876918567E+02  0.76765303789E+02  0.00000000000E+00 0. -1.
         13    1    3    3    0    0  0.29503697673E+02  0.12565041808E+02 -0.21233052741E+00  0.32068575526E+02  0.00000000000E+00 0.  1.
         21    1    1    2  502  501  0.31761513622E+02 -0.15933709331E+02  0.79340292419E+01  0.36409142541E+02  0.00000000000E+00 0. -1.
         21    1    1    2  503  502 -0.40781366738E+02 -0.25066922607E+01 -0.44855109603E+02  0.60674411712E+02  0.00000000000E+00 0.  1.
<scales pt_clust_5="13000.00000" pt_clust_6="13000.00000" pt_clust_7="13000.00000" pt_clust_8="13000.00000" pt_clust_9="35.53416" pt_clust_10="36.54998"></scales>
<clustering>
<clus scale="   35.534">  1  9  2 -1</clus>
<clus scale="   36.550">  2 10  1 -1</clus>
<clus scale="   81.229">  7  8 -1 -1</clus>
<clus scale="   91.767">  1  7  2 -1</clus>
<clus scale="   91.828">  5  6 -1 -1</clus>
<clus scale="   36.550">  2  5  1 -1</clus>
</clustering>
</event>
<event>
10    2  0.1133532E-006  0.1924370E+03  0.7546771E-02  0.1156534E+00
          2   -1    0    0  503    0  0.00000000000E+00  0.00000000000E+00  0.37572289471E+03  0.37572289471E+03  0.00000000000E+00 0. -1.
         -2   -1    0    0    0  501 -0.00000000000E+00 -0.00000000000E+00 -0.39462831139E+03  0.39462831139E+03  0.00000000000E+00 0.  1.
         23    2    1    2    0    0 -0.98977614783E+02  0.11623983131E+03 -0.20023037854E+03  0.26779964730E+03  0.91193091809E+02 0.  0.
         23    2    1    2    0    0  0.15296417169E+03 -0.16082910104E+03 -0.74709229314E+01  0.24098100960E+03  0.93552096386E+02 0.  0.
        -13    1    4    4    0    0  0.14336026876E+02 -0.78127498445E+02 -0.35206664227E+01  0.79509891032E+02  0.00000000000E+00 0.  1.
         13    1    4    4    0    0  0.13862814481E+03 -0.82701602591E+02 -0.39502565087E+01  0.16147111857E+03  0.00000000000E+00 0. -1.
        -13    1    3    3    0    0 -0.92349370102E+02  0.79614129416E+02 -0.19532405597E+03  0.23025703594E+03  0.00000000000E+00 0.  1.
         13    1    3    3    0    0 -0.66282446815E+01  0.36625701894E+02 -0.49063225763E+01  0.37542611363E+02  0.00000000000E+00 0. -1.
         21    1    1    2  502  501 -0.17775881015E+02  0.58181052159E+02 -0.76845748634E+01  0.61319405306E+02  0.00000000000E+00 0.  1.
         21    1    1    2  503  502 -0.36210675891E+02 -0.13591782433E+02  0.19648045966E+03  0.20025114389E+03  0.00000000000E+00 0.  1.
<scales pt_clust_5="13000.00000" pt_clust_6="13000.00000" pt_clust_7="13000.00000" pt_clust_8="13000.00000" pt_clust_9="60.75139" pt_clust_10="38.67751"></scales>
<clustering>
<clus scale="   38.678">  1 10  2 -1</clus>
<clus scale="   60.751">  1  9  2 -1</clus>
<clus scale="   91.193">  7  8 -1 -1</clus>
<clus scale="   93.552">  5  6 -1 -1</clus>
<clus scale="  191.301">  2  7  1 -1</clus>
<clus scale="   38.678">  1  5  2 -1</clus>
</clustering>
</event>
<event>
10    2  0.1133532E-006  0.9311617E+02  0.7546771E-02  0.1296485E+00
         -3   -1    0    0    0  501 -0.00000000000E+00  0.00000000000E+00  0.12229886546E+03  0.12229886546E+03  0.00000000000E+00 0.  1.
          3   -1    0    0  502    0  0.00000000000E+00 -0.00000000000E+00 -0.20963895837E+03  0.20963895837E+03  0.00000000000E+00 0. -1.
         23    2    1    2    0    0 -0.12913709952E+01 -0.11343352236E+02  0.28084924649E+02  0.97094442424E+02  0.92240058966E+02 0.  0.
         23    2    1    2    0    0 -0.19766458684E+02 -0.60598999678E+02 -0.32568690144E+02  0.11538300898E+03  0.90496229380E+02 0.  0.
        -11    1    4    4    0    0 -0.10030200952E+02 -0.84279965195E+02 -0.28001556962E+02  0.89374519057E+02  0.00000000000E+00 0.  1.
         11    1    4    4    0    0 -0.97362577314E+01  0.23680965517E+02 -0.45671331827E+01  0.26008489920E+02  0.00000000000E+00 0. -1.
        -11    1    3    3    0    0  0.21223649176E+02 -0.32941311855E+02 -0.16631423926E+02  0.42569679032E+02  0.00000000000E+00 0.  1.
         11    1    3    3    0    0 -0.22515020171E+02  0.21597959619E+02  0.44716348576E+02  0.54524763392E+02  0.00000000000E+00 0. -1.
         21    1    1    2  502  503  0.27723927089E+02  0.21822614619E+02 -0.38218549320E+02  0.52014422559E+02  0.00000000000E+00 0.  1.
         21    1    1    2  503  501 -0.66660974097E+01  0.50119737296E+02 -0.44637778089E+02  0.67445949871E+02  0.00000000000E+00 0. -1.
<scales pt_clust_5="13000.00000" pt_clust_6="13000.00000" pt_clust_7="13000.00000" pt_clust_8="13000.00000" pt_clust_9="35.28233" pt_clust_10="57.62024"></scales>
<clustering>
<clus scale="   35.282">  2  9  1 -1</clus>
<clus scale="   57.620">  2 10  1 -1</clus>
<clus scale="   90.496">  5  6 -1 -1</clus>
<clus scale="   91.389">  2  5  1 -1</clus>
<clus scale="   92.240">  7  8 -1 -1</clus>
<clus scale="   35.282">  2  5  1 -1</clus>
</clustering>
</event>
<event>
10    2  0.1133532E-006  0.1739387E+03  0.7546771E-02  0.1174769E+00
          2   -1    0    0  503    0  0.00000000000E+00  0.00000000000E+00  0.15991382702E+03  0.15991382702E+03  0.00000000000E+00 0. -1.
         -2   -1    0    0    0  501 -0.00000000000E+00 -0.00000000000E+00 -0.45157330307E+03  0.45157330307E+03  0.00000000000E+00 0.  1.
         23    2    1    2    0    0 -0.12464030841E+03 -0.64694525574E+02 -0.18733768133E+03  0.24851744036E+03  0.83336205784E+02 0.  0.
         23    2    1    2    0    0  0.15763788844E+03  0.36146828027E+02 -0.16948028441E+03  0.25124816430E+03  0.90806256460E+02 0.  0.
        -11    1    3    3    0    0 -0.10887796801E+03 -0.83433003791E+02 -0.17036982710E+03  0.21872666967E+03  0.00000000000E+00 0.  1.
         11    1    3    3    0    0 -0.15762340391E+02  0.18738478217E+02 -0.16967854236E+02  0.29790770683E+02  0.00000000000E+00 0. -1.
        -13    1    4    4    0    0  0.59510592048E+02 -0.10007512208E+02 -0.14442920395E+02  0.62050453794E+02  0.00000000000E+00 0. -1.
         13    1    4    4    0    0  0.98127296388E+02  0.46154340235E+02 -0.15503736402E+03  0.18919771051E+03  0.00000000000E+00 0.  1.
         21    1    1    2  502  501 -0.21211191139E+02  0.11539309645E+02 -0.15338957888E+02  0.28606885984E+02  0.00000000000E+00 0.  1.
         21    1    1    2  503  502 -0.11786388891E+02  0.17008387902E+02  0.80497447589E+02  0.83114639447E+02  0.00000000000E+00 0. -1.
<scales pt_clust_5="13000.00000" pt_clust_6="13000.00000" pt_clust_7="13000.00000" pt_clust_8="13000.00000" pt_clust_9="25.72869" pt_clust_10="20.69310"></scales>
<clustering>
<clus scale="   20.693">  1 10  2 -1</clus>
<clus scale="   25.729">  1  9  2 -1</clus>
<clus scale="   83.336">  5  6 -1 -1</clus>
<clus scale="   90.806">  7  8 -1 -1</clus>
<clus scale="  170.158">  2  5  1 -1</clus>
<clus scale="   20.693">  1  5  2 -1</clus>
</clustering>
</event>
<event>
10    2  0.1133532E-006  0.1249284E+03  0.7546771E-02  0.1235800E+00
         -2   -1    0    0    0  501 -0.00000000000E+00  0.00000000000E+00  0.65455045675E+02  0.65455045675E+02  0.00000000000E+00 0.  1.
          2   -1    0    0  503    0  0.00000000000E+00 -0.00000000000E+00 -0.56405841786E+03  0.56405841786E+03  0.00000000000E+00 0. -1.
         23    2    1    2    0    0  0.62952221083E+02  0.57996660006E+02 -0.96746519226E+02  0.15921101392E+03  0.93068057135E+02 0.  0.
         23    2    1    2    0    0 -0.62774621444E+02 -0.30594500480E+02 -0.19430993733E+03  0.22561958628E+03  0.90945969752E+02 0.  0.
        -11    1    3    3    0    0 -0.37736343885E+01  0.48391029519E+02 -0.73146440677E+02  0.87785726847E+02  0.00000000000E+00 0. -1.
         11    1    3    3    0    0  0.66725855472E+02  0.96056304870E+01 -0.23600078550E+02  0.71425287070E+02  0.00000000000E+00 0.  1.
        -11    1    4    4    0    0 -0.83146608837E+02 -0.38749183518E+02 -0.16750280776E+03  0.19097656504E+03  0.00000000000E+00 0. -1.
         11    1    4    4    0    0  0.20371987393E+02  0.81546830383E+01 -0.26807129562E+02  0.34643021248E+02  0.00000000000E+00 0.  1.
         21    1    1    2  502  501  0.19091426587E+02  0.21210250941E+02  0.20987027348E+01  0.28614015224E+02  0.00000000000E+00 0. -1.
         21    1    1    2  503  502 -0.19269026226E+02 -0.48612410467E+02 -0.20964561837E+03  0.21606884811E+03  0.00000000000E+00 0. -1.
<scales pt_clust_5="13000.00000" pt_clust_6="13000.00000" pt_clust_7="13000.00000" pt_clust_8="13000.00000" pt_clust_9="28.53695" pt_clust_10="50.58109"></scales>
<clustering>
<clus scale="   28.537">  1  9  2 -1</clus>
<clus scale="   50.581">  2 10  1 -1</clus>
<clus scale="   90.946">  7  8 -1 -1</clus>
<clus scale="   93.068">  5  6 -1 -1</clus>
<clus scale="  123.356">  2  7  1 -1</clus>
<clus scale="   50.581">  2  5  1 -1</clus>
</clustering>
</event>
<event>
10    2  0.1133532E-006  0.9772329E+02  0.7546771E-02  0.1286007E+00
         -1   -1    0    0    0  501 -0.00000000000E+00  0.00000000000E+00  0.46007072363E+02  0.46007072363E+02  0.00000000000E+00 0.  1.
          1   -1    0    0  503    0  0.00000000000E+00 -0.00000000000E+00 -0.53212033744E+03  0.53212033744E+03  0.00000000000E+00 0. -1.
         23    2    1    2    0    0 -0.56646037455E+02 -0.14317571857E+02 -0.23799564566E+03  0.26147176936E+03  0.91169031997E+02 0.  0.
         23    2    1    2    0    0  0.13501241551E+02  0.42360315896E+01 -0.21344140421E+03  0.23187926534E+03  0.89501581967E+02 0.  0.
        -11    1    3    3    0    0 -0.69937938853E+02  0.18599584525E+02 -0.14859182548E+03  0.16527791878E+03  0.00000000000E+00 0.  1.
         11    1    3    3    0    0  0.13291901398E+02 -0.32917156383E+02 -0.89403820180E+02  0.96193850582E+02  0.00000000000E+00 0. -1.
        -13    1    4    4    0    0  0.39394284571E+02 -0.28655738575E+02 -0.11815743381E+03  0.12780547787E+03  0.00000000000E+00 0. -1.
         13    1    4    4    0    0 -0.25893043020E+02  0.32891770165E+02 -0.95283970404E+02  0.10407378746E+03  0.00000000000E+00 0.  1.
         21    1    1    2  502  501  0.23822298721E+02  0.46296940849E+01  0.16805190877E+02  0.29518645363E+02  0.00000000000E+00 0. -1.
         21    1    1    2  503  502  0.19322497183E+02  0.54518461829E+01 -0.51481406077E+02  0.55257729739E+02  0.00000000000E+00 0. -1.
<scales pt_clust_5="13000.00000" pt_clust_6="13000.00000" pt_clust_7="13000.00000" pt_clust_8="13000.00000" pt_clust_9="24.53367" pt_clust_10="20.07689"></scales>
<clustering>
<clus scale="   20.077">  2 10  1 -1</clus>
<clus scale="   24.534">  1  9  2 -1</clus>
<clus scale="   89.502">  7  8 -1 -1</clus>
<clus scale="   91.169">  5  6 -1 -1</clus>
<clus scale="   96.170">  2  7  1 -1</clus>
<clus scale="   20.077">  2  5  1 -1</clus>
</clustering>
</event>
<event>
10    2  0.1133532E-006  0.1719950E+03  0.7546771E-02  0.1178390E+00
         -1   -1    0    0    0  501 -0.00000000000E+00  0.00000000000E+00  0.21170542700E+03  0.21170542700E+03  0.00000000000E+00 0.  1.
          1   -1    0    0  503    0  0.00000000000E+00 -0.00000000000E+00 -0.74629643295E+03  0.74629643295E+03  0.00000000000E+00 0. -1.
         23    2    1    2    0    0  0.79342572053E+02 -0.14450326806E+03  0.95467368887E+02  0.21030160379E+03  0.89085957462E+02 0.  0.
         23    2    1    2    0    0 -0.24868595972E+02  0.37484246209E+02 -0.55633257818E+03  0.56811396481E+03  0.10594349293E+03 0.  0.
        -11    1    4    4    0    0 -0.56489534427E+02 -0.80783645453E+01 -0.22222990186E+03  0.22943944027E+03  0.00000000000E+00 0.  1.
         11    1    4    4    0    0  0.31620938454E+02  0.45562610755E+02 -0.33410267632E+03  0.33867452454E+03  0.00000000000E+00 0. -1.
        -11    1    3    3    0    0  0.17714956274E+02 -0.42117990246E+02 -0.14464161308E+02  0.47926576557E+02  0.00000000000E+00 0. -1.
         11    1    3    3    0    0  0.61627615779E+02 -0.10238527781E+03  0.10993153020E+03  0.16237502724E+03  0.00000000000E+00 0.  1.
         21    1    1    2  502  501 -0.28567027960E+02  0.13138830346E+02  0.25550905052E+02  0.40516079503E+02  0.00000000000E+00 0. -1.
         21    1    1    2  503  502 -0.25906948121E+02  0.93880191501E+02 -0.99276701715E+02  0.13907021184E+03  0.00000000000E+00 0. -1.
<scales pt_clust_5="13000.00000" pt_clust_6="13000.00000" pt_clust_7="13000.00000" pt_clust_8="13000.00000" pt_clust_9="31.44366" pt_clust_10="99.68184"></scales>
<clustering>
<clus scale="   31.444">  1  9  2 -1</clus>
<clus scale="   89.086">  7  8 -1 -1</clus>
<clus scale="   99.682">  2 10  1 -1</clus>
<clus scale="  105.943">  5  6 -1 -1</clus>
<clus scale="  162.156">  1  7  2 -1</clus>
<clus scale="   99.682">  2  5  1 -1</clus>
</clustering>
</event>
<event>
10    2  0.1133532E-006  0.1560629E+03  0.7546771E-02  0.1195644E+00
          2   -1    0    0  503    0  0.00000000000E+00  0.00000000000E+00  0.50289892653E+03  0.50289892653E+03  0.00000000000E+00 0. -1.
         -2   -1    0    0    0  501 -0.00000000000E+00 -0.00000000000E+00 -0.26878885278E+03  0.26878885278E+03  0.00000000000E+00 0.  1.
         23    2    1    2    0    0  0.88282193461E+02  0.96945175345E+02 -0.17144618231E+03  0.23426387038E+03  0.91069505503E+02 0.  0.
         23    2    1    2    0    0 -0.55930005818E+02 -0.50639764979E+02  0.36220977114E+03  0.38424428213E+03  0.10370727404E+03 0.  0.
        -11    1    4    4    0    0 -0.72426192867E+02 -0.23155362206E+02  0.33057742386E+03  0.33920960685E+03  0.00000000000E+00 0. -1.
         11    1    4    4    0    0  0.16496187049E+02 -0.27484402772E+02  0.31632347278E+02  0.45034675276E+02  0.00000000000E+00 0.  1.
        -13    1    3    3    0    0  0.43298430884E+02  0.68302858432E+01 -0.11617280329E+02  0.45347195327E+02  0.00000000000E+00 0. -1.
         13    1    3    3    0    0  0.44983762576E+02  0.90114889502E+02 -0.15982890198E+03  0.18891667505E+03  0.00000000000E+00 0.  1.
         21    1    1    2  502  501  0.27425729821E+01 -0.20156153436E+02 -0.47866902784E+02  0.52009927995E+02  0.00000000000E+00 0. -1.
         21    1    1    2  503  502 -0.35094760625E+02 -0.26149256930E+02  0.91213387704E+02  0.10116969881E+03  0.00000000000E+00 0.  1.
<scales pt_clust_5="13000.00000" pt_clust_6="13000.00000" pt_clust_7="13000.00000" pt_clust_8="13000.00000" pt_clust_9="20.34188" pt_clust_10="43.99136"></scales>
<clustering>
<clus scale="   20.342">  2  9  1 -1</clus>
<clus scale="   43.991">  1 10  2 -1</clus>
<clus scale="   91.070">  7  8 -1 -1</clus>
<clus scale="  103.707">  5  6 -1 -1</clus>
<clus scale="  147.966">  2  7  1 -1</clus>
<clus scale="   43.991">  1  5  2 -1</clus>
</clustering>
</event>
<event>
10    2  0.1133532E-006  0.1125120E+03  0.7546771E-02  0.1256544E+00
         -2   -1    0    0    0  501 -0.00000000000E+00  0.00000000000E+00  0.11729215614E+03  0.11729215614E+03  0.00000000000E+00 0.  1.
          2   -1    0    0  503    0  0.00000000000E+00 -0.00000000000E+00 -0.30170027064E+03  0.30170027064E+03  0.00000000000E+00 0. -1.
         23    2    1    2    0    0 -0.46054813547E+02  0.23638701171E+01 -0.69687157372E+02  0.12620830688E+03  0.94581198397E+02 0.  0.
         23    2    1    2    0    0  0.77928286599E+02 -0.26681605590E+01 -0.92459216079E+02  0.15263852125E+03  0.93112161394E+02 0.  0.
        -11    1    3    3    0    0  0.23009735732E+02 -0.78564474292E+01 -0.46794526596E+02  0.52734233891E+02  0.00000000000E+00 0.  1.
         11    1    3    3    0    0 -0.69064549279E+02  0.10220317546E+02 -0.22892630775E+02  0.73474072989E+02  0.00000000000E+00 0. -1.
        -13    1    4    4    0    0  0.49663325219E+02  0.88938201599E+01 -0.10738570732E+03  0.11864752861E+03  0.00000000000E+00 0. -1.
         13    1    4    4    0    0  0.28264961380E+02 -0.11561980719E+02  0.14926491242E+02  0.33990992642E+02  0.00000000000E+00 0.  1.
         21    1    1    2  502  501 -0.74633117586E+01 -0.33691608573E+02  0.47548597214E+02  0.58751124309E+02  0.00000000000E+00 0.  1.
         21    1    1    2  503  502 -0.24410161294E+02  0.33995899015E+02 -0.69810338262E+02  0.81394474337E+02  0.00000000000E+00 0. -1.
<scales pt_clust_5="13000.00000" pt_clust_6="13000.00000" pt_clust_7="13000.00000" pt_clust_8="13000.00000" pt_clust_9="34.50834" pt_clust_10="39.84135"></scales>
<clustering>
<clus scale="   34.508">  1  9  2 -1</clus>
<clus scale="   39.841">  2 10  1 -1</clus>
<clus scale="   93.112">  7  8 -1 -1</clus>
<clus scale="   94.581">  5  6 -1 -1</clus>
<clus scale="  111.280">  2  7  1 -1</clus>
<clus scale="   39.841">  2  5  1 -1</clus>
</clustering>
</event>
<event>
10    2  0.1133532E-006  0.1354304E+03  0.7546771E-02  0.1239977E+00
          1   -1    0    0  503    0  0.00000000000E+00  0.00000000000E+00  0.62306165457E+02  0.62306165457E+02  0.00000000000E+00 0. -1.
         -1   -1    0    0    0  501 -0.00000000000E+00 -0.00000000000E+00 -0.69637238467E+03  0.69637238467E+03  0.00000000000E+00 0.  1.
         23    2    1    2    0    0  0.83707092950E+02 -0.77173987366E+02 -0.13386176831E+03  0.19948796122E+03  0.94412774139E+02 0.  0.
         23    2    1    2    0    0 -0.18378913753E+02  0.50398070341E+00 -0.91669036142E+02  0.12796376000E+03  0.87369750022E+02 0.  0.
        -11    1    4    4    0    0 -0.25301904097E+01  0.43001869913E+02 -0.35869378524E+02  0.56055106772E+02  0.00000000000E+00 0.  1.
         11    1    4    4    0    0 -0.15848723343E+02 -0.42497889209E+02 -0.55799657618E+02  0.71908653228E+02  0.00000000000E+00 0. -1.
        -13    1    3    3    0    0  0.34343998683E+02 -0.37092769270E+02  0.81233335528E+00  0.50557330459E+02  0.00000000000E+00 0. -1.
         13    1    3    3    0    0  0.49363094268E+02 -0.40081218096E+02 -0.13467410167E+03  0.14893063076E+03  0.00000000000E+00 0.  1.
         21    1    1    2  502  501 -0.76262420470E+02  0.55514818646E+02 -0.38944407238E+03  0.40070505035E+03  0.00000000000E+00 0.  1.
         21    1    1    2  503  502  0.10934241273E+02  0.21155188016E+02 -0.19091342383E+02  0.30521778556E+02  0.00000000000E+00 0. -1.
<scales pt_clust_5="13000.00000" pt_clust_6="13000.00000" pt_clust_7="13000.00000" pt_clust_8="13000.00000" pt_clust_9="97.09594" pt_clust_10="23.81385"></scales>
<clustering>
<clus scale="   23.814">  1 10  2 -1</clus>
<clus scale="   87.370">  5  6 -1 -1</clus>
<clus scale="   88.926">  1  5  2 -1</clus>
<clus scale="   94.413">  7  8 -1 -1</clus>
<clus scale="   97.096">  2  9  1 -1</clus>
<clus scale="   23.814">  1  5  2 -1</clus>
</clustering>
</event>
<event>
10    2  0.1133532E-006  0.3510102E+03  0.7546771E-02  0.1062213E+00
         -2   -1    0    0    0  501 -0.00000000000E+00  0.00000000000E+00  0.12239437015E+03  0.12239437015E+03  0.00000000000E+00 0.  1.
          2   -1    0    0  503    0  0.00000000000E+00 -0.00000000000E+00 -0.19073974047E+04  0.19073974047E+04  0.00000000000E+00 0. -1.
         23    2    1    2    0    0  0.29714516270E+03 -0.14942113675E+03 -0.34365730579E+03  0.48683872877E+03  0.91047680835E+02 0.  0.
         23    2    1    2    0    0 -0.30738892780E+03  0.18460072786E+03 -0.90642827772E+03  0.97905346246E+03  0.91477199612E+02 0.  0.
        -11    1    4    4    0    0 -0.23202017966E+03  0.18075913082E+03 -0.70104849262E+03  0.76024747033E+03  0.00000000000E+00 0.  1.
         11    1    4    4    0    0 -0.75368748138E+02  0.38415970439E+01 -0.20537978510E+03  0.21880599213E+03  0.00000000000E+00 0. -1.
        -13    1    3    3    0    0  0.23815550129E+03 -0.77198492559E+02 -0.23155602888E+03  0.34102176551E+03  0.00000000000E+00 0. -1.
         13    1    3    3    0    0  0.58989661413E+02 -0.72222644189E+02 -0.11210127692E+03  0.14581696326E+03  0.00000000000E+00 0.  1.
         21    1    1    2  502  501  0.16794758157E+02  0.44340438524E+02 -0.38405385398E+02  0.61017309164E+02  0.00000000000E+00 0.  1.
         21    1    1    2  503  502 -0.65509930533E+01 -0.79520029640E+02 -0.49651206563E+03  0.50288227444E+03  0.00000000000E+00 0. -1.
<scales pt_clust_5="13000.00000" pt_clust_6="13000.00000" pt_clust_7="13000.00000" pt_clust_8="13000.00000" pt_clust_9="47.41454" pt_clust_10="78.48375"></scales>
<clustering>
<clus scale="   47.415">  1  9  2 -1</clus>
<clus scale="   78.484">  2 10  1 -1</clus>
<clus scale="   91.048">  7  8 -1 -1</clus>
<clus scale="   91.477">  5  6 -1 -1</clus>
<clus scale="  350.898">  1  7  2 -1</clus>
<clus scale="   78.484">  2  5  1 -1</clus>
</clustering>
</event>
<event>
10    2  0.1133532E-006  0.2494532E+03  0.7546771E-02  0.1113980E+00
         -2   -1    0    0    0  501 -0.00000000000E+00  0.00000000000E+00  0.86576692861E+03  0.86576692861E+03  0.00000000000E+00 0.  1.
          2   -1    0    0  503    0  0.00000000000E+00 -0.00000000000E+00 -0.22613939315E+03  0.22613939315E+03  0.00000000000E+00 0. -1.
         23    2    1    2    0    0  0.95955101427E+02 -0.27537262066E+03  0.27860952405E+03  0.41242842792E+03  0.86235025194E+02 0.  0.
         23    2    1    2    0    0 -0.56837341158E+02  0.17247264825E+03 -0.25943040193E+02  0.20521517535E+03  0.91994179782E+02 0.  0.
        -11    1    4    4    0    0  0.23390843280E+02  0.18041900600E+02 -0.35209726792E+01  0.29749604622E+02  0.00000000000E+00 0.  1.
         11    1    4    4    0    0 -0.80228184438E+02  0.15443074765E+03 -0.22422067514E+02  0.17546557072E+03  0.00000000000E+00 0. -1.
        -13    1    3    3    0    0 -0.21052131694E+01 -0.91733819318E+02  0.11809286299E+03  0.14955082687E+03  0.00000000000E+00 0. -1.
         13    1    3    3    0    0  0.98060314596E+02 -0.18363880134E+03  0.16051666106E+03  0.26287760105E+03  0.00000000000E+00 0.  1.
         21    1    1    2  502  501 -0.17329979374E+02  0.54727529453E+02  0.41184669848E+03  0.41582825026E+03  0.00000000000E+00 0. -1.
         21    1    1    2  503  502 -0.21787780894E+02  0.48172442955E+02 -0.24885646879E+02  0.58434468229E+02  0.00000000000E+00 0. -1.
<scales pt_clust_5="13000.00000" pt_clust_6="13000.00000" pt_clust_7="13000.00000" pt_clust_8="13000.00000" pt_clust_9="57.97245" pt_clust_10="52.87052"></scales>
<clustering>
<clus scale="   52.871">  2 10  1 -1</clus>
<clus scale="   57.972">  1  9  2 -1</clus>
<clus scale="   86.235">  7  8 -1 -1</clus>
<clus scale="   91.994">  5  6 -1 -1</clus>
<clus scale="  247.387">  1  7  2 -1</clus>
<clus scale="   52.871">  2  5  1 -1</clus>
</clustering>
</event>
<event>
10    2  0.1133532E-006  0.9857786E+02  0.7546771E-02  0.1283550E+00
         -3   -1    0    0    0  501 -0.00000000000E+00  0.00000000000E+00  0.43912427080E+03  0.43912427080E+03  0.00000000000E+00 0.  1.
          3   -1    0    0  503    0  0.00000000000E+00 -0.00000000000E+00 -0.82353372706E+02  0.82353372706E+02  0.00000000000E+00 0. -1.
         23    2    1    2    0    0 -0.22993242474E+02 -0.47504237603E+02  0.83130605808E+02  0.13462344209E+03  0.91801044381E+02 0.  0.
         23    2    1    2    0    0  0.51108210157E+02 -0.14903798367E+02  0.31583246548E+02  0.11033252052E+03  0.91332312307E+02 0.  0.
        -13    1    4    4    0    0  0.57165860259E+02  0.24415515216E+02  0.47436648022E+01  0.62342243448E+02  0.00000000000E+00 0. -1.
         13    1    4    4    0    0 -0.60576501022E+01 -0.39319313583E+02  0.26839581746E+02  0.47990277075E+02  0.00000000000E+00 0.  1.
        -13    1    3    3    0    0 -0.47880583966E+02 -0.48029379488E+02  0.86047011989E+02  0.10956030251E+03  0.00000000000E+00 0.  1.
         13    1    3    3    0    0  0.24887341492E+02  0.52514188463E+00 -0.29164061807E+01  0.25063139579E+02  0.00000000000E+00 0. -1.
         21    1    1    2  502  501  0.10588701069E+02  0.34391551200E+02  0.22167424500E+03  0.22457597885E+03  0.00000000000E+00 0. -1.
         21    1    1    2  503  502 -0.38703668751E+02  0.28016484771E+02  0.20382800744E+02  0.51945702035E+02  0.00000000000E+00 0.  1.
<scales pt_clust_5="13000.00000" pt_clust_6="13000.00000" pt_clust_7="13000.00000" pt_clust_8="13000.00000" pt_clust_9="35.98471" pt_clust_10="50.04606"></scales>
<clustering>
<clus scale="   35.985">  1  9  2 -1</clus>
<clus scale="   50.046">  2 10  1 -1</clus>
<clus scale="   91.332">  5  6 -1 -1</clus>
<clus scale="   91.801">  7  8 -1 -1</clus>
<clus scale="   98.142">  2  5  1 -1</clus>
<clus scale="   50.046">  2  5  1 -1</clus>
</clustering>
</event>
<event>
10    2  0.1133532E-006  0.1097784E+03  0.7546771E-02  0.1261307E+00
         -2   -1    0    0    0  501 -0.00000000000E+00  0.00000000000E+00  0.19386211968E+03  0.19386211968E+03  0.00000000000E+00 0.  1.
          2   -1    0    0  503    0  0.00000000000E+00 -0.00000000000E+00 -0.13344746272E+03  0.13344746272E+03  0.00000000000E+00 0. -1.
         23    2    1    2    0    0 -0.61830121172E+02 -0.48160298310E+02  0.88101177387E+02  0.14792430628E+03  0.89316318299E+02 0.  0.
         23    2    1    2    0    0  0.19398565254E+02  0.60462174665E+02 -0.26967010197E+02  0.11353309748E+03  0.90169649467E+02 0.  0.
        -13    1    4    4    0    0 -0.27092751350E+02 -0.57250953454E+01 -0.15801265573E+02  0.31882187600E+02  0.00000000000E+00 0. -1.
         13    1    4    4    0    0  0.46491316605E+02  0.66187270011E+02 -0.11165744624E+02  0.81650909879E+02  0.00000000000E+00 0.  1.
        -13    1    3    3    0    0  0.18872340989E+02 -0.20728749698E+02  0.43428086979E+02  0.51689893182E+02  0.00000000000E+00 0.  1.
         13    1    3    3    0    0 -0.80702462161E+02 -0.27431548613E+02  0.44673090408E+02  0.96234413100E+02  0.00000000000E+00 0. -1.
         21    1    1    2  502  501  0.18739913527E+02  0.12196319121E+02  0.16385469757E+02  0.27720356749E+02  0.00000000000E+00 0. -1.
         21    1    1    2  503  502  0.23691642391E+02 -0.24498195476E+02 -0.17104979985E+02  0.38131821895E+02  0.00000000000E+00 0. -1.
<scales pt_clust_5="13000.00000" pt_clust_6="13000.00000" pt_clust_7="13000.00000" pt_clust_8="13000.00000" pt_clust_9="22.35922" pt_clust_10="34.36709"></scales>
<clustering>
<clus scale="   22.359">  1  9  2 -1</clus>
<clus scale="   34.367">  2 10  1 -1</clus>
<clus scale="   89.316">  7  8 -1 -1</clus>
<clus scale="   90.170">  5  6 -1 -1</clus>
<clus scale="  109.079">  1  7  2 -1</clus>
<clus scale="   34.367">  2  5  1 -1</clus>
</clustering>
</event>
<event>
10    2  0.1133532E-006  0.1912779E+03  0.7546771E-02  0.1182991E+00
         -1   -1    0    0    0  501 -0.00000000000E+00  0.00000000000E+00  0.23802156582E+03  0.23802156582E+03  0.00000000000E+00 0.  1.
          1   -1    0    0  503    0  0.00000000000E+00 -0.00000000000E+00 -0.60704309727E+03  0.60704309727E+03  0.00000000000E+00 0. -1.
         23    2    1    2    0    0  0.35410259147E+02  0.10748245757E+02  0.11712284005E+03  0.15374728898E+03  0.92471930697E+02 0.  0.
         23    2    1    2    0    0  0.15585321571E+03 -0.94506298972E+02 -0.31763664135E+03  0.38231021530E+03  0.10975609051E+03 0.  0.
        -13    1    4    4    0    0  0.11312558796E+03 -0.48523302746E+01 -0.17783173468E+03  0.21081999341E+03  0.00000000000E+00 0. -1.
         13    1    4    4    0    0  0.42727627744E+02 -0.89653968698E+02 -0.13980490667E+03  0.17149022189E+03  0.00000000000E+00 0.  1.
        -13    1    3    3    0    0  0.26749126760E+02  0.38160101479E+02  0.11596276120E+03  0.12497628220E+03  0.00000000000E+00 0.  1.
         13    1    3    3    0    0  0.86611323865E+01 -0.27411855722E+02  0.11600788563E+01  0.28771006783E+02  0.00000000000E+00 0. -1.
         21    1    1    2  502  501 -0.51379602938E+02  0.59257087718E+02  0.11988203417E+02  0.79340929311E+02  0.00000000000E+00 0.  1.
         21    1    1    2  503  502 -0.13988387192E+03  0.24500965498E+02 -0.18049593357E+03  0.22966622949E+03  0.00000000000E+00 0.  1.
<scales pt_clust_5="13000.00000" pt_clust_6="13000.00000" pt_clust_7="13000.00000" pt_clust_8="13000.00000" pt_clust_9="78.43001" pt_clust_10="156.65520"></scales>
<clustering>
<clus scale="   78.430">  1  9  2 -1</clus>
<clus scale="   92.472">  7  8 -1 -1</clus>
<clus scale="  106.324">  1  7  2 -1</clus>
<clus scale="  109.756">  5  6 -1 -1</clus>
<clus scale="  156.655">  2 10  1 -1</clus>
<clus scale="  156.655">  2  5  1 -1</clus>
</clustering>
</event>
<event>
10    2  0.1133532E-006  0.1483249E+03  0.7546771E-02  0.1202686E+00
          1   -1    0    0  503    0  0.00000000000E+00  0.00000000000E+00  0.81361912966E+03  0.81361912966E+03  0.00000000000E+00 0. -1.
         -1   -1    0    0    0  501 -0.00000000000E+00 -0.00000000000E+00 -0.49326977082E+02  0.49326977082E+02  0.00000000000E+00 0.  1.
         23    2    1    2    0    0 -0.99034819216E+02  0.35635531264E+00  0.13351061941E+03  0.19016584065E+03  0.92357669145E+02 0.  0.
         23    2    1    2    0    0  0.11142466362E+03 -0.54779326473E+02  0.43720218631E+03  0.46363698526E+03  0.91636630871E+02 0.  0.
        -11    1    4    4    0    0  0.31319345428E+02 -0.34960020027E+02  0.53543573642E+02  0.71204063625E+02  0.00000000000E+00 0.  1.
         11    1    4    4    0    0  0.80105318188E+02 -0.19819306446E+02  0.38365861267E+03  0.39243292164E+03  0.00000000000E+00 0. -1.
        -13    1    3    3    0    0 -0.29745897043E+02  0.43988051618E+02  0.45179349195E+02  0.69720446569E+02  0.00000000000E+00 0. -1.
         13    1    3    3    0    0 -0.69288922174E+02 -0.43631696306E+02  0.88331270211E+02  0.12044539408E+03  0.00000000000E+00 0.  1.
         21    1    1    2  502  501 -0.27116790890E+02  0.35322446678E+02  0.68100757174E+02  0.81367737557E+02  0.00000000000E+00 0.  1.
         21    1    1    2  503  502  0.14726946491E+02  0.19100524483E+02  0.12547858969E+03  0.12777554327E+03  0.00000000000E+00 0.  1.
<scales pt_clust_5="13000.00000" pt_clust_6="13000.00000" pt_clust_7="13000.00000" pt_clust_8="13000.00000" pt_clust_9="45.27453" pt_clust_10="24.11873"></scales>
<clustering>
<clus scale="   24.119">  1 10  2 -1</clus>
<clus scale="   45.275">  2  9  1 -1</clus>
<clus scale="   91.637">  5  6 -1 -1</clus>
<clus scale="   92.358">  7  8 -1 -1</clus>
<clus scale="  147.877">  1  5  2 -1</clus>
<clus scale="   24.119">  1  5  2 -1</clus>
</clustering>
</event>
<event>
10    2  0.1133532E-006  0.9763280E+02  0.7546771E-02  0.1285702E+00
         -1   -1    0    0    0  501 -0.00000000000E+00  0.00000000000E+00  0.54593557269E+03  0.54593557269E+03  0.00000000000E+00 0.  1.
          1   -1    0    0  503    0  0.00000000000E+00 -0.00000000000E+00 -0.76158041248E+02  0.76158041248E+02  0.00000000000E+00 0. -1.
         23    2    1    2    0    0  0.19652882610E+02 -0.81862220343E+02  0.31492347487E+03  0.33811084158E+03  0.89746795231E+02 0.  0.
         23    2    1    2    0    0 -0.17189834297E+02  0.59338753062E+01 -0.53719217611E+01  0.91048494728E+02  0.89052061006E+02 0.  0.
        -11    1    4    4    0    0 -0.46037382579E+02  0.27730017913E+02  0.33746534408E+01  0.53849631141E+02  0.00000000000E+00 0. -1.
         11    1    4    4    0    0  0.28847548282E+02 -0.21796142607E+02 -0.87465752018E+01  0.37198863587E+02  0.00000000000E+00 0.  1.
        -13    1    3    3    0    0 -0.25994941930E+02 -0.48495062709E+02  0.84379720936E+02  0.10073452942E+03  0.00000000000E+00 0. -1.
         13    1    3    3    0    0  0.45647824540E+02 -0.33367157634E+02  0.23054375393E+03  0.23737631215E+03  0.00000000000E+00 0.  1.
         21    1    1    2  502  501 -0.17886496063E+02  0.45361019284E+02  0.14919852991E+03  0.15696416833E+03  0.00000000000E+00 0. -1.
         21    1    1    2  503  502  0.15423447750E+02  0.30567325753E+02  0.11027448415E+02  0.35970109296E+02  0.00000000000E+00 0. -1.
<scales pt_clust_5="13000.00000" pt_clust_6="13000.00000" pt_clust_7="13000.00000" pt_clust_8="13000.00000" pt_clust_9="50.17309" pt_clust_10="34.23805"></scales>
<clustering>
<clus scale="   34.238">  2 10  1 -1</clus>
<clus scale="   50.173">  1  9  2 -1</clus>
<clus scale="   89.052">  5  6 -1 -1</clus>
<clus scale="   89.747">  7  8 -1 -1</clus>
<clus scale="   96.995">  2  5  1 -1</clus>
<clus scale="   34.238">  2  5  1 -1</clus>
</clustering>
</event>
<event>
10    2  0.1133532E-006  0.2744401E+03  0.7546771E-02  0.1098804E+00
         -1   -1    0    0    0  501 -0.00000000000E+00  0.00000000000E+00  0.63609719342E+03  0.63609719342E+03  0.00000000000E+00 0.  1.
          1   -1    0    0  503    0  0.00000000000E+00 -0.00000000000E+00 -0.25131167965E+03  0.25131167965E+03  0.00000000000E+00 0. -1.
         23    2    1    2    0    0  0.28598931235E+03  0.52832137109E+02  0.11794546201E+03  0.32673391371E+03  0.90899927785E+02 0.  0.
         23    2    1    2    0    0 -0.24856827230E+03 -0.25718677491E+02  0.72873615022E+01  0.26630183590E+03  0.91738355110E+02 0.  0.
        -11    1    3    3    0    0  0.60310857534E+02 -0.25505787175E+02  0.19175651963E+02  0.68232326240E+02  0.00000000000E+00 0.  1.
         11    1    3    3    0    0  0.22567845481E+03  0.78337924284E+02  0.98769810043E+02  0.25850158747E+03  0.00000000000E+00 0. -1.
        -13    1    4    4    0    0 -0.21351274040E+03 -0.12604091654E+02  0.38798547216E+02  0.21737497718E+03  0.00000000000E+00 0.  1.
         13    1    4    4    0    0 -0.35055531899E+02 -0.13114585837E+02 -0.31511185713E+02  0.48926858712E+02  0.00000000000E+00 0. -1.
         21    1    1    2  502  501 -0.65779557813E+02 -0.24390657232E+02  0.25626564271E+03  0.26569519006E+03  0.00000000000E+00 0.  1.
         21    1    1    2  503  502  0.28358517766E+02 -0.27228023857E+01  0.32870475527E+01  0.28677933404E+02  0.00000000000E+00 0. -1.
<scales pt_clust_5="13000.00000" pt_clust_6="13000.00000" pt_clust_7="13000.00000" pt_clust_8="13000.00000" pt_clust_9="69.64969" pt_clust_10="28.48893"></scales>
<clustering>
<clus scale="   28.489">  2 10  1 -1</clus>
<clus scale="   69.650">  1  9  2 -1</clus>
<clus scale="   90.900">  5  6 -1 -1</clus>
<clus scale="   91.738">  7  8 -1 -1</clus>
<clus scale="  274.161">  1  5  2 -1</clus>
<clus scale="   28.489">  2  5  1 -1</clus>
</clustering>
</event>
<event>
10    2  0.1133532E-006  0.9323512E+02  0.7546771E-02  0.1295309E+00
          1   -1    0    0  503    0  0.00000000000E+00  0.00000000000E+00  0.44701987144E+03  0.44701987144E+03  0.00000000000E+00 0. -1.
         -1   -1    0    0    0  501 -0.00000000000E+00 -0.00000000000E+00 -0.74936152539E+03  0.74936152539E+03  0.00000000000E+00 0.  1.
         23    2    1    2    0    0  0.39523315895E+01 -0.35669547074E+02 -0.26237132046E+03  0.27971600942E+03  0.90079956778E+02 0.  0.
         23    2    1    2    0    0 -0.31103913151E+02  0.24486076708E+02  0.22482791556E+03  0.24548692921E+03  0.90273027139E+02 0.  0.
        -11    1    4    4    0    0 -0.32470927401E+02 -0.19136889103E+02  0.17602577542E+03  0.18001570838E+03  0.00000000000E+00 0. -1.
         11    1    4    4    0    0  0.13670142504E+01  0.43622965811E+02  0.48802140143E+02  0.65471220827E+02  0.00000000000E+00 0.  1.
        -13    1    3    3    0    0 -0.23492505419E+02  0.19705316868E+02 -0.13089250112E+03  0.13443602260E+03  0.00000000000E+00 0.  1.
         13    1    3    3    0    0  0.27444837009E+02 -0.55374863942E+02 -0.13147881934E+03  0.14527998682E+03  0.00000000000E+00 0. -1.
         21    1    1    2  502  501  0.11017247925E+02  0.58418090572E+02 -0.46299356229E+03  0.46679448559E+03  0.00000000000E+00 0.  1.
         21    1    1    2  503  502  0.16134333637E+02 -0.47234620207E+02  0.19819531324E+03  0.20438397261E+03  0.00000000000E+00 0. -1.
<scales pt_clust_5="13000.00000" pt_clust_6="13000.00000" pt_clust_7="13000.00000" pt_clust_8="13000.00000" pt_clust_9="59.11235" pt_clust_10="49.91419"></scales>
<clustering>
<clus scale="   49.914">  1 10  2 -1</clus>
<clus scale="   59.112">  2  9  1 -1</clus>
<clus scale="   90.080">  7  8 -1 -1</clus>
<clus scale="   90.273">  5  6 -1 -1</clus>
<clus scale="   93.048">  2  7  1 -1</clus>
<clus scale="   49.914">  1  5  2 -1</clus>
</clustering>
</event>
<event>
10    2  0.1133532E-006  0.9327770E+02  0.7546771E-02  0.1296291E+00
          1   -1    0    0  503    0  0.00000000000E+00  0.00000000000E+00  0.50217407532E+03  0.50217407532E+03  0.00000000000E+00 0. -1.
         -1   -1    0    0    0  501 -0.00000000000E+00 -0.00000000000E+00 -0.78475590196E+02  0.78475590196E+02  0.00000000000E+00 0.  1.
         23    2    1    2    0    0 -0.19826272217E+02  0.21089790391E+02  0.44634391764E+02  0.10422447136E+03  0.89625058845E+02 0.  0.
         23    2    1    2    0    0 -0.25825622951E+02 -0.15758535748E+02  0.27908707939E+03  0.29531859297E+03  0.91696124364E+02 0.  0.
        -11    1    4    4    0    0 -0.53390234347E+02 -0.90181635476E+01  0.24525720629E+03  0.25116317730E+03  0.00000000000E+00 0.  1.
         11    1    4    4    0    0  0.27564611396E+02 -0.67403722004E+01  0.33829873104E+02  0.44155415671E+02  0.00000000000E+00 0. -1.
        -13    1    3    3    0    0 -0.21930964272E+02 -0.13028166746E+02 -0.19123596719E+02  0.31881221340E+02  0.00000000000E+00 0.  1.
         13    1    3    3    0    0  0.21046920549E+01  0.34117957137E+02  0.63757988483E+02  0.72343250018E+02  0.00000000000E+00 0. -1.
         21    1    1    2  502  501 -0.10735684341E+02 -0.25578494534E+02 -0.28238056591E+02  0.39584114755E+02  0.00000000000E+00 0.  1.
         21    1    1    2  503  502  0.56387579509E+02  0.20247239890E+02  0.12821507056E+03  0.14152248643E+03  0.00000000000E+00 0. -1.
<scales pt_clust_5="13000.00000" pt_clust_6="13000.00000" pt_clust_7="13000.00000" pt_clust_8="13000.00000" pt_clust_9="27.74012" pt_clust_10="57.19483"></scales>
<clustering>
<clus scale="   27.740">  2  9  1 -1</clus>
<clus scale="   57.195">  1 10  2 -1</clus>
<clus scale="   89.625">  7  8 -1 -1</clus>
<clus scale="   91.243">  2  7  1 -1</clus>
<clus scale="   91.696">  5  6 -1 -1</clus>
<clus scale="   57.195">  1  5  2 -1</clus>
</clustering>
</event>
<event>
10    2  0.1133532E-006  0.1622353E+03  0.7546771E-02  0.1212176E+00
          2   -1    0    0  502    0  0.00000000000E+00  0.00000000000E+00  0.28768974172E+03  0.28768974172E+03  0.00000000000E+00 0. -1.
         -2   -1    0    0    0  501 -0.00000000000E+00 -0.00000000000E+00 -0.18124862195E+03  0.18124862195E+03  0.00000000000E+00 0.  1.
         23    2    1    2    0    0  0.74349635369E+02 -0.10607484499E+03 -0.37721902774E+02  0.16302884069E+03  0.91518959402E+02 0.  0.
         23    2    1    2    0    0 -0.41631315610E+01 -0.14639034122E+02  0.13401490121E+03  0.16266673325E+03  0.90933158836E+02 0.  0.
        -11    1    4    4    0    0 -0.35623570257E+02 -0.25983991536E+02  0.11722879537E+03  0.12524694422E+03  0.00000000000E+00 0. -1.
         11    1    4    4    0    0  0.31460438696E+02  0.11344957414E+02  0.16786105846E+02  0.37419789031E+02  0.00000000000E+00 0.  1.
        -11    1    3    3    0    0  0.32573386784E+02 -0.11876671067E+02 -0.48283976567E+02  0.59442604547E+02  0.00000000000E+00 0.  1.
         11    1    3    3    0    0  0.41776248585E+02 -0.94198173922E+02  0.10562073793E+02  0.10358623615E+03  0.00000000000E+00 0. -1.
         21    1    1    2  502  503 -0.29983211734E+02  0.41281618392E+02 -0.99332162646E+01  0.51979166868E+02  0.00000000000E+00 0. -1.
         21    1    1    2  503  501 -0.40203292074E+02  0.79432260719E+02  0.20081337603E+02  0.91263622854E+02  0.00000000000E+00 0.  1.
<scales pt_clust_5="13000.00000" pt_clust_6="13000.00000" pt_clust_7="13000.00000" pt_clust_8="13000.00000" pt_clust_9="22.93106" pt_clust_10="137.33941"></scales>
<clustering>
<clus scale="   22.931">  9 10 -1 -1</clus>
<clus scale="   90.933">  5  6 -1 -1</clus>
<clus scale="   91.519">  7  8 -1 -1</clus>
<clus scale="   92.198">  1  5  2 -1</clus>
<clus scale="  137.339">  1  9  2 -1</clus>
<clus scale="   92.198">  1  5  2 -1</clus>
</clustering>
</event>
<event>
10    2  0.1133532E-006  0.2185304E+03  0.7546771E-02  0.1134992E+00
         -3   -1    0    0    0  501 -0.00000000000E+00  0.00000000000E+00  0.11825505106E+04  0.11825505106E+04  0.00000000000E+00 0.  1.
          3   -1    0    0  503    0  0.00000000000E+00 -0.00000000000E+00 -0.14072166986E+03  0.14072166986E+03  0.00000000000E+00 0. -1.
         23    2    1    2    0    0 -0.10891986384E+02  0.15376585495E+03  0.23283115800E+03  0.29400349018E+03  0.92006144290E+02 0.  0.
         23    2    1    2    0    0  0.63686150759E+01 -0.24435842271E+03  0.10613571168E+03  0.28189059511E+03  0.91901688294E+02 0.  0.
        -11    1    3    3    0    0 -0.24990472474E+02  0.16522675440E+02  0.93817068256E+01  0.31393294525E+02  0.00000000000E+00 0. -1.
         11    1    3    3    0    0  0.14098486091E+02  0.13724317951E+03  0.22344945118E+03  0.26261019566E+03  0.00000000000E+00 0.  1.
        -11    1    4    4    0    0 -0.21501114550E+02 -0.17822014497E+03  0.39182201009E+02  0.18373884422E+03  0.00000000000E+00 0. -1.
         11    1    4    4    0    0  0.27869729626E+02 -0.66138277738E+02  0.66953510667E+02  0.98151750887E+02  0.00000000000E+00 0.  1.
         21    1    1    2  502  501 -0.87007857757E+02  0.60459421975E+02  0.58789846320E+03  0.59736949374E+03  0.00000000000E+00 0.  1.
         21    1    1    2  503  502  0.91531229064E+02  0.30133145779E+02  0.11496350789E+03  0.15000860147E+03  0.00000000000E+00 0. -1.
<scales pt_clust_5="13000.00000" pt_clust_6="13000.00000" pt_clust_7="13000.00000" pt_clust_8="13000.00000" pt_clust_9="103.76536" pt_clust_10="96.36375"></scales>
<clustering>
<clus scale="   91.902">  7  8 -1 -1</clus>
<clus scale="   92.006">  5  6 -1 -1</clus>
<clus scale="   96.364">  2 10  1 -1</clus>
<clus scale="  103.765">  1  9  2 -1</clus>
<clus scale="  218.486">  2  7  1 -1</clus>
<clus scale="   96.364">  2  5  1 -1</clus>
</clustering>
</event>
<event>
10    2  0.1133532E-006  0.1244720E+03  0.7546771E-02  0.1238166E+00
         -2   -1    0    0    0  501 -0.00000000000E+00  0.00000000000E+00  0.11075040076E+03  0.11075040076E+03  0.00000000000E+00 0.  1.
          2   -1    0    0  503    0  0.00000000000E+00 -0.00000000000E+00 -0.11286071014E+04  0.11286071014E+04  0.00000000000E+00 0. -1.
         23    2    1    2    0    0  0.92072362391E+02  0.86825365657E+01 -0.74430613341E+02  0.14764697269E+03  0.87789555100E+02 0.  0.
         23    2    1    2    0    0 -0.72099086789E+02  0.78344573793E+02 -0.44572009234E+03  0.46806001646E+03  0.95276585446E+02 0.  0.
        -13    1    3    3    0    0  0.98179786479E+02  0.32012846851E+02 -0.62905217103E+02  0.12091798533E+03  0.00000000000E+00 0.  1.
         13    1    3    3    0    0 -0.61074240881E+01 -0.23330310286E+02 -0.11525396239E+02  0.26728987364E+02  0.00000000000E+00 0. -1.
        -13    1    4    4    0    0 -0.57367082007E+02  0.13740762805E+02 -0.10046027250E+03  0.11649917172E+03  0.00000000000E+00 0.  1.
         13    1    4    4    0    0 -0.14732004781E+02  0.64603810988E+02 -0.34525981984E+03  0.35156084474E+03  0.00000000000E+00 0. -1.
         21    1    1    2  502  501 -0.18412210322E+02 -0.19052660106E+02  0.58018468479E+02  0.63782098043E+02  0.00000000000E+00 0.  1.
         21    1    1    2  503  502 -0.15610652806E+01 -0.67974450253E+02 -0.55572446348E+03  0.55986841500E+03  0.00000000000E+00 0.  1.
<scales pt_clust_5="13000.00000" pt_clust_6="13000.00000" pt_clust_7="13000.00000" pt_clust_8="13000.00000" pt_clust_9="26.49553" pt_clust_10="68.80570"></scales>
<clustering>
<clus scale="   26.496">  1  9  2 -1</clus>
<clus scale="   68.806">  2 10  1 -1</clus>
<clus scale="   87.790">  5  6 -1 -1</clus>
<clus scale="   95.277">  7  8 -1 -1</clus>
<clus scale="  118.839">  1  5  2 -1</clus>
<clus scale="   68.806">  2  5  1 -1</clus>
</clustering>
</event>
<event>
10    2  0.1133532E-006  0.2386710E+03  0.7546771E-02  0.1120696E+00
         -1   -1    0    0    0  501 -0.00000000000E+00  0.00000000000E+00  0.52856567887E+02  0.52856567887E+02  0.00000000000E+00 0.  1.
          1   -1    0    0  503    0  0.00000000000E+00 -0.00000000000E+00 -0.17780990650E+04  0.17780990650E+04  0.00000000000E+00 0. -1.
         23    2    1    2    0    0 -0.20992697410E+03 -0.10945010194E+03 -0.40160353772E+03  0.47480281705E+03  0.90020299355E+02 0.  0.
         23    2    1    2    0    0  0.16616562556E+03  0.11270710856E+03 -0.11496667753E+04  0.11705526801E+04  0.90255055862E+02 0.  0.
        -11    1    4    4    0    0  0.16039591169E+03  0.72802365172E+02 -0.10073623386E+04  0.10226465245E+04  0.00000000000E+00 0. -1.
         11    1    4    4    0    0  0.57697138779E+01  0.39904743390E+02 -0.14230443673E+03  0.14790615557E+03  0.00000000000E+00 0.  1.
        -13    1    3    3    0    0 -0.50243892576E+02 -0.46370443405E+02 -0.19227922741E+03  0.20407343790E+03  0.00000000000E+00 0. -1.
         13    1    3    3    0    0 -0.15968308152E+03 -0.63079658534E+02 -0.20932431031E+03  0.27072937914E+03  0.00000000000E+00 0.  1.
         21    1    1    2  502  501  0.21073586573E+02 -0.12467455749E+02 -0.26386366159E+02  0.35996858515E+02  0.00000000000E+00 0. -1.
         21    1    1    2  503  502  0.22687761964E+02  0.92104491265E+01 -0.14758581793E+03  0.14960327727E+03  0.00000000000E+00 0.  1.
<scales pt_clust_5="13000.00000" pt_clust_6="13000.00000" pt_clust_7="13000.00000" pt_clust_8="13000.00000" pt_clust_9="24.48537" pt_clust_10="24.80088"></scales>
<clustering>
<clus scale="   24.485">  1  9  2 -1</clus>
<clus scale="   24.801">  2 10  1 -1</clus>
<clus scale="   90.020">  7  8 -1 -1</clus>
<clus scale="   90.255">  5  6 -1 -1</clus>
<clus scale="  238.582">  1  7  2 -1</clus>
<clus scale="   24.801">  2  5  1 -1</clus>
</clustering>
</event>
<event>
10    2  0.1133532E-006  0.1381247E+03  0.7546771E-02  0.1224292E+00
          1   -1    0    0  503    0  0.00000000000E+00  0.00000000000E+00  0.25893565905E+03  0.25893565905E+03  0.00000000000E+00 0. -1.
         -1   -1    0    0    0  501 -0.00000000000E+00 -0.00000000000E+00 -0.13706026247E+03  0.13706026247E+03  0.00000000000E+00 0.  1.
         23    2    1    2    0    0  0.63963922273E+01 -0.90162126600E+02  0.39034126697E+02  0.15391919472E+03  0.11831032309E+03 0.  0.
         23    2    1    2    0    0  0.66797203745E+02  0.38878266984E+02  0.52937390461E+02  0.13073979848E+03  0.91198363612E+02 0.  0.
        -13    1    4    4    0    0  0.85477598499E+02  0.12641221751E+02  0.31130524489E+02  0.91844051998E+02  0.00000000000E+00 0. -1.
         13    1    4    4    0    0 -0.18680394754E+02  0.26237045233E+02  0.21806865972E+02  0.38895746480E+02  0.00000000000E+00 0.  1.
        -13    1    3    3    0    0  0.48642695035E+02 -0.80016446420E+02 -0.26917143840E+01  0.93680247675E+02  0.00000000000E+00 0.  1.
         13    1    3    3    0    0 -0.42246302808E+02 -0.10145680180E+02  0.41725841081E+02  0.60238947046E+02  0.00000000000E+00 0. -1.
         21    1    1    2  502  501 -0.60465903062E+02  0.23350420504E+02 -0.48118372119E+01  0.64996317959E+02  0.00000000000E+00 0. -1.
         21    1    1    2  503  502 -0.12727692911E+02  0.27933439112E+02  0.34715716633E+02  0.46340610362E+02  0.00000000000E+00 0. -1.
<scales pt_clust_5="13000.00000" pt_clust_6="13000.00000" pt_clust_7="13000.00000" pt_clust_8="13000.00000" pt_clust_9="67.90479" pt_clust_10="30.69644"></scales>
<clustering>
<clus scale="   30.696">  1 10  2 -1</clus>
<clus scale="   67.905">  2  9  1 -1</clus>
<clus scale="   91.198">  5  6 -1 -1</clus>
<clus scale="  115.751">  1  5  2 -1</clus>
<clus scale="  118.310">  7  8 -1 -1</clus>
<clus scale="   30.696">  1  5  2 -1</clus>
</clustering>
</event>
<event>
10    2  0.1133532E-006  0.1518132E+03  0.7546771E-02  0.1216071E+00
         -2   -1    0    0    0  501 -0.00000000000E+00  0.00000000000E+00  0.38885948466E+03  0.38885948466E+03  0.00000000000E+00 0.  1.
          2   -1    0    0  503    0  0.00000000000E+00 -0.00000000000E+00 -0.20930303379E+03  0.20930303379E+03  0.00000000000E+00 0. -1.
         23    2    1    2    0    0 -0.21508783668E+02 -0.11560374297E+03  0.23405491269E+03  0.27825960328E+03  0.93914064440E+02 0.  0.
         23    2    1    2    0    0  0.37218863331E+02  0.10035768830E+02  0.74606661530E+01  0.98861055748E+02  0.90729743527E+02 0.  0.
        -11    1    3    3    0    0  0.58110266349E+01 -0.11239569593E+03  0.13657329669E+03  0.17697125716E+03  0.00000000000E+00 0.  1.
         11    1    3    3    0    0 -0.27319810302E+02 -0.32080470432E+01  0.97481616002E+02  0.10128834612E+03  0.00000000000E+00 0. -1.
        -13    1    4    4    0    0  0.28638075203E+02 -0.37406243577E+02  0.16290786315E+02  0.49847328200E+02  0.00000000000E+00 0.  1.
         13    1    4    4    0    0  0.85807881280E+01  0.47442012407E+02 -0.88301201617E+01  0.49013727548E+02  0.00000000000E+00 0. -1.
         21    1    1    2  502  501 -0.53881426627E+02  0.13055920371E+03  0.34614876308E+01  0.14128303403E+03  0.00000000000E+00 0. -1.
         21    1    1    2  503  502  0.38171346963E+02 -0.24991229564E+02 -0.65420615593E+02  0.79758825397E+02  0.00000000000E+00 0. -1.
<scales pt_clust_5="13000.00000" pt_clust_6="13000.00000" pt_clust_7="13000.00000" pt_clust_8="13000.00000" pt_clust_9="119.27859" pt_clust_10="45.62470"></scales>
<clustering>
<clus scale="   45.625">  2 10  1 -1</clus>
<clus scale="   90.730">  7  8 -1 -1</clus>
<clus scale="   93.914">  5  6 -1 -1</clus>
<clus scale="  103.598">  2  7  1 -1</clus>
<clus scale="  119.279">  2  9  1 -1</clus>
<clus scale="   45.625">  2  5  1 -1</clus>
</clustering>
</event>
<event>
10    2  0.1133532E-006  0.2739859E+03  0.7546771E-02  0.1100114E+00
          2   -1    0    0  503    0  0.00000000000E+00  0.00000000000E+00  0.10318322224E+04  0.10318322224E+04  0.00000000000E+00 0. -1.
         -2   -1    0    0    0  501 -0.00000000000E+00 -0.00000000000E+00 -0.12347771931E+03  0.12347771931E+03  0.00000000000E+00 0.  1.
         23    2    1    2    0    0 -0.25445457723E+03 -0.16190127010E+02  0.26896984240E+03  0.38720381219E+03  0.11212833704E+03 0.  0.
         23    2    1    2    0    0  0.23507684340E+03 -0.56006098357E+02  0.57661930868E+03  0.63191197243E+03  0.91788389305E+02 0.  0.
        -11    1    3    3    0    0 -0.23462429810E+03 -0.24832331250E+02  0.18309178884E+03  0.29864328064E+03  0.00000000000E+00 0.  1.
         11    1    3    3    0    0 -0.19830279133E+02  0.86422042403E+01  0.85878053559E+02  0.88560531546E+02  0.00000000000E+00 0. -1.
        -13    1    4    4    0    0  0.42077817652E+02 -0.30820239552E+02  0.21504219187E+03  0.22127714339E+03  0.00000000000E+00 0.  1.
         13    1    4    4    0    0  0.19299902574E+03 -0.25185858805E+02  0.36157711681E+03  0.41063482904E+03  0.00000000000E+00 0. -1.
         21    1    1    2  502  501 -0.39220777986E+01  0.59153145905E+02 -0.86863777886E+01  0.59916028939E+02  0.00000000000E+00 0. -1.
         21    1    1    2  503  502  0.23299811630E+02  0.13043079461E+02  0.71451729819E+02  0.76278128175E+02  0.00000000000E+00 0. -1.
<scales pt_clust_5="13000.00000" pt_clust_6="13000.00000" pt_clust_7="13000.00000" pt_clust_8="13000.00000" pt_clust_9="59.59329" pt_clust_10="26.70212"></scales>
<clustering>
<clus scale="   26.702">  1 10  2 -1</clus>
<clus scale="   59.593">  2  9  1 -1</clus>
<clus scale="   91.788">  7  8 -1 -1</clus>
<clus scale="  112.128">  5  6 -1 -1</clus>
<clus scale="  266.309">  1  7  2 -1</clus>
<clus scale="   26.702">  1  5  2 -1</clus>
</clustering>
</event>
<event>
10    2  0.1133532E-006  0.1012401E+03  0.7546771E-02  0.1278486E+00
         -1   -1    0    0    0  501 -0.00000000000E+00  0.00000000000E+00  0.18853842447E+03  0.18853842447E+03  0.00000000000E+00 0.  1.
          1   -1    0    0  503    0  0.00000000000E+00 -0.00000000000E+00 -0.46743959665E+03  0.46743959665E+03  0.00000000000E+00 0. -1.
         23    2    1    2    0    0 -0.10237203939E+01 -0.47745423686E+02 -0.12781008076E+03  0.16453103683E+03  0.91947658205E+02 0.  0.
         23    2    1    2    0    0  0.74297503813E+02  0.32069279809E+01 -0.20647366796E+03  0.23731181731E+03  0.90305700879E+02 0.  0.
        -11    1    4    4    0    0 -0.77393431699E+01  0.29677756684E+02 -0.58869180167E+02  0.66379568001E+02  0.00000000000E+00 0.  1.
         11    1    4    4    0    0  0.82036846983E+02 -0.26470828703E+02 -0.14760448779E+03  0.17093224930E+03  0.00000000000E+00 0. -1.
        -11    1    3    3    0    0  0.21285069388E+02 -0.68906244445E+02 -0.80223139644E+02  0.10787435672E+03  0.00000000000E+00 0. -1.
         11    1    3    3    0    0 -0.22308789782E+02  0.21160820759E+02 -0.47586941113E+02  0.56656680111E+02  0.00000000000E+00 0.  1.
         21    1    1    2  502  501 -0.46589206036E+02  0.72796436920E+02  0.13800083607E+03  0.16283152675E+03  0.00000000000E+00 0.  1.
         21    1    1    2  503  502 -0.26684577383E+02 -0.28257941215E+02 -0.82618259532E+02  0.91303640234E+02  0.00000000000E+00 0. -1.
<scales pt_clust_5="13000.00000" pt_clust_6="13000.00000" pt_clust_7="13000.00000" pt_clust_8="13000.00000" pt_clust_9="86.12996" pt_clust_10="38.86615"></scales>
<clustering>
<clus scale="   38.866">  2 10  1 -1</clus>
<clus scale="   86.130">  1  9  2 -1</clus>
<clus scale="   90.306">  5  6 -1 -1</clus>
<clus scale="   91.948">  7  8 -1 -1</clus>
<clus scale="   99.751">  2  5  1 -1</clus>
<clus scale="   38.866">  2  5  1 -1</clus>
</clustering>
</event>
<event>
10    2  0.1133532E-006  0.2039531E+03  0.7546771E-02  0.1162685E+00
         -1   -1    0    0    0  501 -0.00000000000E+00  0.00000000000E+00  0.22328821076E+03  0.22328821076E+03  0.00000000000E+00 0.  1.
          1   -1    0    0  503    0  0.00000000000E+00 -0.00000000000E+00 -0.41916127022E+03  0.41916127022E+03  0.00000000000E+00 0. -1.
         23    2    1    2    0    0 -0.93190606900E+02 -0.48264907748E+02  0.66162218263E+02  0.15415966225E+03  0.91508315493E+02 0.  0.
         23    2    1    2    0    0  0.23567395607E+03  0.63339145469E+02 -0.17820039887E+03  0.31575955066E+03  0.91622326727E+02 0.  0.
        -13    1    3    3    0    0 -0.23481747448E+02 -0.63357082921E+02  0.37631177671E+02  0.77340920297E+02  0.00000000000E+00 0.  1.
         13    1    3    3    0    0 -0.69708859452E+02  0.15092175173E+02  0.28531040592E+02  0.76818741950E+02  0.00000000000E+00 0. -1.
        -13    1    4    4    0    0  0.17178361506E+03  0.86673530397E+02 -0.12561769271E+03  0.22978623979E+03  0.00000000000E+00 0. -1.
         13    1    4    4    0    0  0.63890341017E+02 -0.23334384929E+02 -0.52582706156E+02  0.85973310870E+02  0.00000000000E+00 0.  1.
         21    1    1    2  502  501 -0.27968217089E+02 -0.58133913020E+01  0.27065104671E+01  0.28693934629E+02  0.00000000000E+00 0. -1.
         21    1    1    2  503  502 -0.11451513208E+03 -0.92608464184E+01 -0.86541389320E+02  0.14383633344E+03  0.00000000000E+00 0. -1.
<scales pt_clust_5="13000.00000" pt_clust_6="13000.00000" pt_clust_7="13000.00000" pt_clust_8="13000.00000" pt_clust_9="23.43955" pt_clust_10="188.18047"></scales>
<clustering>
<clus scale="   23.440">  9 10 -1 -1</clus>
<clus scale="   91.508">  5  6 -1 -1</clus>
<clus scale="   91.622">  7  8 -1 -1</clus>
<clus scale="  139.240">  1  5  2 -1</clus>
<clus scale="  188.180">  2  9  1 -1</clus>
<clus scale="  188.180">  2  5  1 -1</clus>
</clustering>
</event>
<event>
10    2  0.1133532E-006  0.1196208E+03  0.7546771E-02  0.1244136E+00
          1   -1    0    0  503    0  0.00000000000E+00  0.00000000000E+00  0.16494483251E+03  0.16494483251E+03  0.00000000000E+00 0. -1.
         -1   -1    0    0    0  501 -0.00000000000E+00 -0.00000000000E+00 -0.16963867635E+03  0.16963867635E+03  0.00000000000E+00 0.  1.
         23    2    1    2    0    0 -0.68193923290E+02 -0.29303386823E+02 -0.26102631721E+02  0.12066058233E+03  0.91479664911E+02 0.  0.
         23    2    1    2    0    0  0.60670892372E+02  0.25067601844E+02  0.38273637237E+02  0.11991201941E+03  0.92761410342E+02 0.  0.
        -13    1    4    4    0    0 -0.99681622587E+01 -0.24232608085E+02  0.14888104106E+01  0.26245001616E+02  0.00000000000E+00 0.  1.
         13    1    4    4    0    0  0.70639054630E+02  0.49300209928E+02  0.36784826826E+02  0.93667017795E+02  0.00000000000E+00 0. -1.
        -13    1    3    3    0    0 -0.85542360794E+02 -0.42167287563E+02 -0.15575686445E+02  0.96634246718E+02  0.00000000000E+00 0.  1.
         13    1    3    3    0    0  0.17348437504E+02  0.12863900739E+02 -0.10526945276E+02  0.24026335611E+02  0.00000000000E+00 0. -1.
         21    1    1    2  502  501 -0.37175524023E+02  0.90219349787E+01 -0.28348120542E+02  0.47613347240E+02  0.00000000000E+00 0.  1.
         21    1    1    2  503  502  0.44698554942E+02 -0.47861499990E+01  0.11483271186E+02  0.46397559880E+02  0.00000000000E+00 0. -1.
<scales pt_clust_5="13000.00000" pt_clust_6="13000.00000" pt_clust_7="13000.00000" pt_clust_8="13000.00000" pt_clust_9="38.25461" pt_clust_10="39.93097"></scales>
<clustering>
<clus scale="   38.255">  2  9  1 -1</clus>
<clus scale="   39.931">  1 10  2 -1</clus>
<clus scale="   91.480">  7  8 -1 -1</clus>
<clus scale="   92.761">  5  6 -1 -1</clus>
<clus scale="  118.630">  2  7  1 -1</clus>
<clus scale="   39.931">  1  5  2 -1</clus>
</clustering>
</event>
<event>
10    2  0.1133532E-006  0.1153753E+03  0.7546771E-02  0.1251834E+00
          1   -1    0    0  503    0  0.00000000000E+00  0.00000000000E+00  0.66254645737E+02  0.66254645737E+02  0.00000000000E+00 0. -1.
         -1   -1    0    0    0  501 -0.00000000000E+00 -0.00000000000E+00 -0.49249977266E+03  0.49249977266E+03  0.00000000000E+00 0.  1.
         23    2    1    2    0    0  0.47555127645E+02  0.38986220017E+02 -0.16945377347E+03  0.20145010807E+03  0.89923018091E+02 0.  0.
         23    2    1    2    0    0 -0.57546993342E+01 -0.75203078752E+02 -0.69726679257E+02  0.13823662949E+03  0.92514519475E+02 0.  0.
        -13    1    3    3    0    0  0.63726139739E+02  0.27023730669E+02 -0.16750213306E+03  0.18124091007E+03  0.00000000000E+00 0.  1.
         13    1    3    3    0    0 -0.16171012094E+02  0.11962489348E+02 -0.19516404151E+01  0.20209198001E+02  0.00000000000E+00 0. -1.
        -13    1    4    4    0    0  0.18598841921E+02  0.14380190459E+02 -0.27701451181E+02  0.36332866608E+02  0.00000000000E+00 0.  1.
         13    1    4    4    0    0 -0.24353541255E+02 -0.89583269210E+02 -0.42025228076E+02  0.10190376288E+03  0.00000000000E+00 0. -1.
         21    1    1    2  502  501  0.46532094235E+00  0.37217238822E+02 -0.16907237079E+03  0.17312078430E+03  0.00000000000E+00 0.  1.
         21    1    1    2  503  502 -0.42265749253E+02 -0.10003800865E+01 -0.17992303403E+02  0.45946896544E+02  0.00000000000E+00 0. -1.
<scales pt_clust_5="13000.00000" pt_clust_6="13000.00000" pt_clust_7="13000.00000" pt_clust_8="13000.00000" pt_clust_9="37.22015" pt_clust_10="42.30581"></scales>
<clustering>
<clus scale="   37.220">  2  9  1 -1</clus>
<clus scale="   42.306">  1 10  2 -1</clus>
<clus scale="   89.923">  5  6 -1 -1</clus>
<clus scale="   92.515">  7  8 -1 -1</clus>
<clus scale="  113.308">  2  5  1 -1</clus>
<clus scale="   42.306">  1  5  2 -1</clus>
</clustering>
</event>
<event>
10    2  0.1133532E-006  0.1340878E+03  0.7546771E-02  0.1223177E+00
         -1   -1    0    0    0  501 -0.00000000000E+00  0.00000000000E+00  0.48278421267E+03  0.48278421267E+03  0.00000000000E+00 0.  1.
          1   -1    0    0  503    0  0.00000000000E+00 -0.00000000000E+00 -0.72305662689E+02  0.72305662689E+02  0.00000000000E+00 0. -1.
         23    2    1    2    0    0  0.48849992930E+02  0.63904008813E+02  0.12797401655E+03  0.17231621070E+03  0.82737436532E+02 0.  0.
         23    2    1    2    0    0 -0.57504956690E+02 -0.12220260132E+03  0.14248981245E+03  0.21019165978E+03  0.75079233993E+02 0.  0.
        -13    1    3    3    0    0 -0.19212296185E+02  0.31608547517E+02  0.61901954655E+02  0.72111473366E+02  0.00000000000E+00 0.  1.
         13    1    3    3    0    0  0.68062289115E+02  0.32295461295E+02  0.66072061899E+02  0.10020473733E+03  0.00000000000E+00 0. -1.
        -13    1    4    4    0    0 -0.70287247981E+02 -0.10342880850E+03  0.93331959782E+02  0.15604060489E+03  0.00000000000E+00 0.  1.
         13    1    4    4    0    0  0.12782291291E+02 -0.18773792820E+02  0.49157852668E+02  0.54151054897E+02  0.00000000000E+00 0. -1.
         21    1    1    2  502  501  0.31114736498E+01  0.32259365735E+02  0.14222199161E+03  0.14586789518E+03  0.00000000000E+00 0. -1.
         21    1    1    2  503  502  0.55434901099E+01  0.26039226775E+02 -0.22072706296E+01  0.26714109704E+02  0.00000000000E+00 0. -1.
<scales pt_clust_5="13000.00000" pt_clust_6="13000.00000" pt_clust_7="13000.00000" pt_clust_8="13000.00000" pt_clust_9="33.24280" pt_clust_10="26.62276"></scales>
<clustering>
<clus scale="   26.623">  2 10  1 -1</clus>
<clus scale="   33.243">  1  9  2 -1</clus>
<clus scale="   75.079">  7  8 -1 -1</clus>
<clus scale="   82.737">  5  6 -1 -1</clus>
<clus scale="  129.503">  2  7  1 -1</clus>
<clus scale="   26.623">  2  5  1 -1</clus>
</clustering>
</event>
<event>
10    2  0.1133532E-006  0.2828926E+03  0.7546771E-02  0.1094191E+00
         -1   -1    0    0    0  501 -0.00000000000E+00  0.00000000000E+00  0.14806233349E+03  0.14806233349E+03  0.00000000000E+00 0.  1.
          1   -1    0    0  503    0  0.00000000000E+00 -0.00000000000E+00 -0.86992904922E+03  0.86992904922E+03  0.00000000000E+00 0. -1.
         23    2    1    2    0    0 -0.20685091792E+03  0.10652162919E+03 -0.20405022333E+03  0.32212812586E+03  0.89419662839E+02 0.  0.
         23    2    1    2    0    0  0.26306675855E+03 -0.15665811955E+03 -0.41743575612E+03  0.52563681203E+03  0.91079974779E+02 0.  0.
        -13    1    4    4    0    0  0.22429286062E+03 -0.16660954478E+03 -0.36615991176E+03  0.46058561497E+03  0.00000000000E+00 0. -1.
         13    1    4    4    0    0  0.38773897935E+02  0.99514252331E+01 -0.51275844357E+02  0.65051197066E+02  0.00000000000E+00 0.  1.
        -13    1    3    3    0    0 -0.93176709003E+02  0.11179061677E+02 -0.11745398104E+03  0.15034064049E+03  0.00000000000E+00 0. -1.
         13    1    3    3    0    0 -0.11367420892E+03  0.95342567514E+02 -0.86596242290E+02  0.17178748537E+03  0.00000000000E+00 0.  1.
         21    1    1    2  502  501 -0.38397558956E+02  0.17492257907E+02  0.18198793683E+02  0.45951580081E+02  0.00000000000E+00 0. -1.
         21    1    1    2  503  502 -0.17818281679E+02  0.32644232448E+02 -0.11857952998E+03  0.12427486473E+03  0.00000000000E+00 0. -1.
<scales pt_clust_5="13000.00000" pt_clust_6="13000.00000" pt_clust_7="13000.00000" pt_clust_8="13000.00000" pt_clust_9="42.74771" pt_clust_10="37.19055"></scales>
<clustering>
<clus scale="   37.191">  2 10  1 -1</clus>
<clus scale="   42.748">  1  9  2 -1</clus>
<clus scale="   89.420">  7  8 -1 -1</clus>
<clus scale="   91.080">  5  6 -1 -1</clus>
<clus scale="  282.362">  1  7  2 -1</clus>
<clus scale="   37.191">  2  5  1 -1</clus>
</clustering>
</event>
<event>
10    2  0.1133532E-006  0.1727839E+03  0.7546771E-02  0.1191161E+00
         -2   -1    0    0    0  501 -0.00000000000E+00  0.00000000000E+00  0.64230054406E+03  0.64230054406E+03  0.00000000000E+00 0.  1.
          2   -1    0    0  503    0  0.00000000000E+00 -0.00000000000E+00 -0.12067464620E+04  0.12067464620E+04  0.00000000000E+00 0. -1.
         23    2    1    2    0    0  0.11578365641E+03 -0.13126121773E+03  0.37780412345E+03  0.42471968188E+03  0.83758522618E+02 0.  0.
         23    2    1    2    0    0 -0.77097412683E+02  0.85282466386E+00 -0.54301524675E+03  0.55607624043E+03  0.91708716125E+02 0.  0.
        -11    1    4    4    0    0  0.13288402040E+02  0.22973180865E+02 -0.10703554538E+03  0.11027672756E+03  0.00000000000E+00 0.  1.
         11    1    4    4    0    0 -0.90385814723E+02 -0.22120356201E+02 -0.43597970138E+03  0.44579951287E+03  0.00000000000E+00 0. -1.
        -13    1    3    3    0    0  0.35058319160E+02  0.37924768478E+01  0.50898317788E+02  0.61920169384E+02  0.00000000000E+00 0. -1.
         13    1    3    3    0    0  0.80725337246E+02 -0.13505369458E+03  0.32690580566E+03  0.36279951250E+03  0.00000000000E+00 0.  1.
         21    1    1    2  502  501 -0.49481632345E+02 -0.52659964878E+01  0.22444415639E+03  0.22989419739E+03  0.00000000000E+00 0. -1.
         21    1    1    2  503  502  0.10795388622E+02  0.13567438955E+03 -0.62367895105E+03  0.63835688638E+03  0.00000000000E+00 0. -1.
<scales pt_clust_5="13000.00000" pt_clust_6="13000.00000" pt_clust_7="13000.00000" pt_clust_8="13000.00000" pt_clust_9="49.76106" pt_clust_10="151.12502"></scales>
<clustering>
<clus scale="   49.761">  1  9  2 -1</clus>
<clus scale="   83.759">  7  8 -1 -1</clus>
<clus scale="   91.709">  5  6 -1 -1</clus>
<clus scale="  120.315">  2  5  1 -1</clus>
<clus scale="  151.125">  2 10  1 -1</clus>
<clus scale="  120.315">  2  5  1 -1</clus>
</clustering>
</event>
<event>
10    2  0.1133532E-006  0.1499068E+03  0.7546771E-02  0.1201127E+00
          2   -1    0    0  503    0  0.00000000000E+00  0.00000000000E+00  0.93341646460E+03  0.93341646460E+03  0.00000000000E+00 0. -1.
         -2   -1    0    0    0  501 -0.00000000000E+00 -0.00000000000E+00 -0.47640024086E+02  0.47640024086E+02  0.00000000000E+00 0.  1.
         23    2    1    2    0    0 -0.13424084780E+03  0.29553569953E+02  0.16674924955E+03  0.23418446850E+03  0.90238762984E+02 0.  0.
         23    2    1    2    0    0  0.85819158455E+02 -0.39943237272E+02  0.55923820818E+03  0.57477879565E+03  0.93074702686E+02 0.  0.
        -11    1    3    3    0    0 -0.70336797272E+02  0.24613501580E+02  0.15068957971E+03  0.16810841425E+03  0.00000000000E+00 0. -1.
         11    1    3    3    0    0 -0.63904050525E+02  0.49400683736E+01  0.16059669847E+02  0.66076054245E+02  0.00000000000E+00 0.  1.
        -13    1    4    4    0    0  0.33747642671E+01  0.25415179537E+02  0.75582772081E+02  0.79812754746E+02  0.00000000000E+00 0.  1.
         13    1    4    4    0    0  0.82444394188E+02 -0.65358416809E+02  0.48365543610E+03  0.49496604091E+03  0.00000000000E+00 0. -1.
         21    1    1    2  502  501  0.22123460845E+02  0.18303881877E+02  0.40264058111E+02  0.49453756047E+02  0.00000000000E+00 0. -1.
         21    1    1    2  503  502  0.26298228496E+02 -0.79142145590E+01  0.11952492467E+03  0.12263946849E+03  0.00000000000E+00 0.  1.
<scales pt_clust_5="13000.00000" pt_clust_6="13000.00000" pt_clust_7="13000.00000" pt_clust_8="13000.00000" pt_clust_9="29.58104" pt_clust_10="27.46328"></scales>
<clustering>
<clus scale="   27.463">  1 10  2 -1</clus>
<clus scale="   29.581">  2  9  1 -1</clus>
<clus scale="   90.239">  5  6 -1 -1</clus>
<clus scale="   93.075">  7  8 -1 -1</clus>
<clus scale="  148.163">  2  5  1 -1</clus>
<clus scale="   27.463">  1  5  2 -1</clus>
</clustering>
</event>
<event>
10    2  0.1133532E-006  0.2176547E+03  0.7546771E-02  0.1135864E+00
         -1   -1    0    0    0  501 -0.00000000000E+00  0.00000000000E+00  0.31848379674E+03  0.31848379674E+03  0.00000000000E+00 0.  1.
          1   -1    0    0  503    0  0.00000000000E+00 -0.00000000000E+00 -0.31588794242E+03  0.31588794242E+03  0.00000000000E+00 0. -1.
         23    2    1    2    0    0  0.17272286146E+03 -0.11677446381E+03  0.54524098488E+02  0.23416847149E+03  0.91610771506E+02 0.  0.
         23    2    1    2    0    0 -0.19675299117E+03  0.37691108828E+01 -0.79840081190E+02  0.23019433923E+03  0.88820321551E+02 0.  0.
        -11    1    4    4    0    0 -0.30881428605E+02  0.41105740575E+01  0.19592661877E+02  0.36802606581E+02  0.00000000000E+00 0.  1.
         11    1    4    4    0    0 -0.16587156256E+03 -0.34146317470E+00 -0.99432743068E+02  0.19339173265E+03  0.00000000000E+00 0. -1.
        -11    1    3    3    0    0  0.94570350109E+02 -0.99779534191E+02  0.18379197174E+00  0.13747559908E+03  0.00000000000E+00 0.  1.
         11    1    3    3    0    0  0.78152511351E+02 -0.16994929624E+02  0.54340306517E+02  0.96692872414E+02  0.00000000000E+00 0. -1.
         21    1    1    2  502  501  0.36065708032E+02  0.89522009030E+02  0.70768964667E+02  0.11967945420E+03  0.00000000000E+00 0. -1.
         21    1    1    2  503  502 -0.12035578326E+02  0.23483343903E+02 -0.42857127651E+02  0.50329474237E+02  0.00000000000E+00 0. -1.
<scales pt_clust_5="13000.00000" pt_clust_6="13000.00000" pt_clust_7="13000.00000" pt_clust_8="13000.00000" pt_clust_9="98.10023" pt_clust_10="26.38793"></scales>
<clustering>
<clus scale="   26.388">  2 10  1 -1</clus>
<clus scale="   88.820">  5  6 -1 -1</clus>
<clus scale="   91.611">  7  8 -1 -1</clus>
<clus scale="   98.100">  1  9  2 -1</clus>
<clus scale="  216.495">  2  5  1 -1</clus>
<clus scale="   26.388">  2  5  1 -1</clus>
</clustering>
</event>
<event>
10    2  0.1133532E-006  0.1129421E+03  0.7546771E-02  0.1256878E+00
         -1   -1    0    0    0  501 -0.00000000000E+00  0.00000000000E+00  0.24456838590E+03  0.24456838590E+03  0.00000000000E+00 0.  1.
          1   -1    0    0  503    0  0.00000000000E+00 -0.00000000000E+00 -0.50151610276E+03  0.50151610276E+03  0.00000000000E+00 0. -1.
         23    2    1    2    0    0  0.48491462038E+02 -0.31570764445E+02  0.10276201480E+03  0.14869309090E+03  0.90561959656E+02 0.  0.
         23    2    1    2    0    0 -0.10707254665E+03  0.50951315598E+01 -0.40993255093E+03  0.43234832143E+03  0.85964435197E+02 0.  0.
        -11    1    3    3    0    0  0.57618192984E+02 -0.50299038861E+01  0.19832737060E+02  0.61143221661E+02  0.00000000000E+00 0.  1.
         11    1    3    3    0    0 -0.91267309454E+01 -0.26540860559E+02  0.82929277738E+02  0.87549869236E+02  0.00000000000E+00 0. -1.
        -13    1    4    4    0    0  0.12672195793E+01  0.24418822850E+02 -0.45394165311E+02  0.51560789357E+02  0.00000000000E+00 0.  1.
         13    1    4    4    0    0 -0.10833976623E+03 -0.19323691290E+02 -0.36453838562E+03  0.38078753207E+03  0.00000000000E+00 0. -1.
         21    1    1    2  502  501  0.17540853309E+02  0.21767970992E+02  0.97984971823E+02  0.10189494982E+03  0.00000000000E+00 0.  1.
         21    1    1    2  503  502  0.41040231302E+02  0.47076618932E+01 -0.47762152548E+02  0.63148126511E+02  0.00000000000E+00 0.  1.
<scales pt_clust_5="13000.00000" pt_clust_6="13000.00000" pt_clust_7="13000.00000" pt_clust_8="13000.00000" pt_clust_9="27.95579" pt_clust_10="42.38111"></scales>
<clustering>
<clus scale="   27.956">  1  9  2 -1</clus>
<clus scale="   42.381">  2 10  1 -1</clus>
<clus scale="   85.964">  7  8 -1 -1</clus>
<clus scale="   90.562">  5  6 -1 -1</clus>
<clus scale="  109.290">  2  7  1 -1</clus>
<clus scale="   42.381">  2  5  1 -1</clus>
</clustering>
</event>
<event>
10    2  0.1133532E-006  0.1419055E+03  0.7546771E-02  0.1210818E+00
         -3   -1    0    0    0  501 -0.00000000000E+00  0.00000000000E+00  0.33704264824E+03  0.33704264824E+03  0.00000000000E+00 0.  1.
          3   -1    0    0  503    0  0.00000000000E+00 -0.00000000000E+00 -0.30003192743E+03  0.30003192743E+03  0.00000000000E+00 0. -1.
         23    2    1    2    0    0  0.46956253569E+02  0.71487697744E+02  0.21208952932E+03  0.24624982429E+03  0.91332507028E+02 0.  0.
         23    2    1    2    0    0 -0.28949828503E+02 -0.10023995168E+03 -0.18276955502E+03  0.22936100597E+03  0.91190023213E+02 0.  0.
        -11    1    3    3    0    0  0.68456881496E+02  0.50621805516E+02  0.10571872049E+03  0.13574004450E+03  0.00000000000E+00 0.  1.
         11    1    3    3    0    0 -0.21500627927E+02  0.20865892227E+02  0.10637080883E+03  0.11050977980E+03  0.00000000000E+00 0. -1.
        -13    1    4    4    0    0 -0.23010832616E+01 -0.11005225719E+03 -0.14866558404E+03  0.18498175632E+03  0.00000000000E+00 0. -1.
         13    1    4    4    0    0 -0.26648745241E+02  0.98123055039E+01 -0.34103970987E+02  0.44379249648E+02  0.00000000000E+00 0.  1.
         21    1    1    2  502  501  0.63671108382E+02 -0.12595982448E+02  0.22565656887E+02  0.68715920187E+02  0.00000000000E+00 0.  1.
         21    1    1    2  503  502 -0.81677533448E+02  0.41348236386E+02 -0.14874910376E+02  0.92747825209E+02  0.00000000000E+00 0. -1.
<scales pt_clust_5="13000.00000" pt_clust_6="13000.00000" pt_clust_7="13000.00000" pt_clust_8="13000.00000" pt_clust_9="64.90508" pt_clust_10="83.22961"></scales>
<clustering>
<clus scale="   64.905">  1  9  2 -1</clus>
<clus scale="   83.230">  2 10  1 -1</clus>
<clus scale="   91.190">  7  8 -1 -1</clus>
<clus scale="   91.333">  5  6 -1 -1</clus>
<clus scale="  141.814">  2  7  1 -1</clus>
<clus scale="   83.230">  2  5  1 -1</clus>
</clustering>
</event>
<event>
10    2  0.1133532E-006  0.3355207E+03  0.7546771E-02  0.1108535E+00
         -2   -1    0    0    0  501 -0.00000000000E+00  0.00000000000E+00  0.15652349021E+03  0.15652349021E+03  0.00000000000E+00 0.  1.
          2   -1    0    0  503    0  0.00000000000E+00 -0.00000000000E+00 -0.18309677129E+04  0.18309677129E+04  0.00000000000E+00 0. -1.
         23    2    1    2    0    0 -0.33011141818E+01  0.79985147862E+02 -0.61128832348E+02  0.13576875339E+03  0.91037898804E+02 0.  0.
         23    2    1    2    0    0  0.24847712779E+03  0.16728300295E+03 -0.29988400195E+03  0.43379273547E+03  0.92310544398E+02 0.  0.
        -11    1    4    4    0    0  0.21236120531E+03  0.17357847416E+03 -0.24484952752E+03  0.36766568964E+03  0.00000000000E+00 0.  1.
         11    1    4    4    0    0  0.36115922479E+02 -0.62954712036E+01 -0.55034474425E+02  0.66127045824E+02  0.00000000000E+00 0. -1.
        -13    1    3    3    0    0  0.32491746152E+02 -0.55795274587E+00 -0.22568777431E+02  0.39564815101E+02  0.00000000000E+00 0.  1.
         13    1    3    3    0    0 -0.35792860334E+02  0.80543100608E+02 -0.38560054917E+02  0.96203938285E+02  0.00000000000E+00 0. -1.
         21    1    1    2  502  501 -0.24359624828E+01 -0.23293204944E+02  0.27960978470E+02  0.36473601780E+02  0.00000000000E+00 0. -1.
         21    1    1    2  503  502 -0.24274005112E+03 -0.22397494587E+03 -0.13413923668E+04  0.13814561124E+04  0.00000000000E+00 0. -1.
<scales pt_clust_5="13000.00000" pt_clust_6="13000.00000" pt_clust_7="13000.00000" pt_clust_8="13000.00000" pt_clust_9="23.42023" pt_clust_10="322.57234"></scales>
<clustering>
<clus scale="   23.420">  1  9  2 -1</clus>
<clus scale="   91.038">  7  8 -1 -1</clus>
<clus scale="   92.311">  5  6 -1 -1</clus>
<clus scale="  116.756">  1  7  2 -1</clus>
<clus scale="  322.572">  2 10  1 -1</clus>
<clus scale="  322.572">  2  5  1 -1</clus>
</clustering>
</event>
<event>
10    2  0.1133532E-006  0.1176118E+03  0.7546771E-02  0.1247133E+00
         -2   -1    0    0    0  501 -0.00000000000E+00  0.00000000000E+00  0.59221461926E+03  0.59221461926E+03  0.00000000000E+00 0.  1.
          2   -1    0    0  503    0  0.00000000000E+00 -0.00000000000E+00 -0.55270309650E+02  0.55270309650E+02  0.00000000000E+00 0. -1.
         23    2    1    2    0    0  0.81303772693E+02 -0.67665700689E+01  0.21736535008E+03  0.24998881645E+03  0.92685613825E+02 0.  0.
         23    2    1    2    0    0 -0.54607415119E+02 -0.20352876111E+02  0.10643110989E+03  0.15276907949E+03  0.92814875657E+02 0.  0.
        -11    1    4    4    0    0 -0.61563710755E+02  0.10273004660E+02  0.28239770437E+02  0.68506275195E+02  0.00000000000E+00 0. -1.
         11    1    4    4    0    0  0.69562956364E+01 -0.30625880771E+02  0.78191339451E+02  0.84262804291E+02  0.00000000000E+00 0.  1.
        -13    1    3    3    0    0 -0.12148415323E+02 -0.20240810549E+02  0.19015182081E+02  0.30312564328E+02  0.00000000000E+00 0. -1.
         13    1    3    3    0    0  0.93452188015E+02  0.13474240480E+02  0.19835016800E+03  0.21967625212E+03  0.00000000000E+00 0.  1.
         21    1    1    2  502  501  0.17613490985E+02 -0.14565875764E+02  0.16650958056E+03  0.16807093806E+03  0.00000000000E+00 0.  1.
         21    1    1    2  503  502 -0.44309848559E+02  0.41685321944E+02  0.46638269086E+02  0.76656094919E+02  0.00000000000E+00 0. -1.
<scales pt_clust_5="13000.00000" pt_clust_6="13000.00000" pt_clust_7="13000.00000" pt_clust_8="13000.00000" pt_clust_9="22.85607" pt_clust_10="57.52733"></scales>
<clustering>
<clus scale="   22.856">  1  9  2 -1</clus>
<clus scale="   57.527">  2 10  1 -1</clus>
<clus scale="   92.686">  7  8 -1 -1</clus>
<clus scale="   92.815">  5  6 -1 -1</clus>
<clus scale="  117.510">  1  7  2 -1</clus>
<clus scale="   57.527">  2  5  1 -1</clus>
</clustering>
</event>
<event>
10    2  0.1133532E-006  0.1617911E+03  0.7546771E-02  0.1199373E+00
          1   -1    0    0  503    0  0.00000000000E+00  0.00000000000E+00  0.60458234624E+03  0.60458234624E+03  0.00000000000E+00 0. -1.
         -1   -1    0    0    0  501 -0.00000000000E+00 -0.00000000000E+00 -0.10974377193E+03  0.10974377193E+03  0.00000000000E+00 0.  1.
         23    2    1    2    0    0 -0.83185815542E+02 -0.24602522917E+02  0.11999544496E+02  0.12502922893E+03  0.89236511465E+02 0.  0.
         23    2    1    2    0    0  0.58446179849E+02 -0.10379598042E+03  0.15400016388E+03  0.21597958434E+03  0.93496357612E+02 0.  0.
        -13    1    4    4    0    0  0.77953473879E+02 -0.85476047030E+02  0.14919423000E+03  0.18879040487E+03  0.00000000000E+00 0.  1.
         13    1    4    4    0    0 -0.19507294030E+02 -0.18319933387E+02  0.48059338757E+01  0.27189179467E+02  0.00000000000E+00 0. -1.
        -13    1    3    3    0    0  0.10758542994E+02 -0.25706643634E+02 -0.79597988571E+01  0.28981652336E+02  0.00000000000E+00 0.  1.
         13    1    3    3    0    0 -0.93944358537E+02  0.11041207167E+01  0.19959343353E+02  0.96047576599E+02  0.00000000000E+00 0. -1.
         21    1    1    2  502  501  0.12198726955E+02 -0.17556154800E+02  0.12647643052E+02  0.24839291162E+02  0.00000000000E+00 0. -1.
         21    1    1    2  503  502  0.12540908739E+02  0.14595465813E+03  0.31619122289E+03  0.34847801373E+03  0.00000000000E+00 0. -1.
<scales pt_clust_5="13000.00000" pt_clust_6="13000.00000" pt_clust_7="13000.00000" pt_clust_8="13000.00000" pt_clust_9="21.37820" pt_clust_10="132.04090"></scales>
<clustering>
<clus scale="   21.378">  2  9  1 -1</clus>
<clus scale="   89.237">  7  8 -1 -1</clus>
<clus scale="   93.496">  5  6 -1 -1</clus>
<clus scale="  122.428">  2  7  1 -1</clus>
<clus scale="  132.041">  1 10  2 -1</clus>
<clus scale="  132.041">  1  5  2 -1</clus>
</clustering>
</event>
<event>
10    2  0.1133532E-006  0.1567765E+03  0.7546771E-02  0.1194072E+00
          1   -1    0    0  503    0  0.00000000000E+00  0.00000000000E+00  0.13467161410E+03  0.13467161410E+03  0.00000000000E+00 0. -1.
         -1   -1    0    0    0  501 -0.00000000000E+00 -0.00000000000E+00 -0.71341631351E+03  0.71341631351E+03  0.00000000000E+00 0.  1.
         23    2    1    2    0    0 -0.12337375759E+03  0.58903509597E+02 -0.56992777693E+03  0.59302262819E+03  0.90373995848E+02 0.  0.
         23    2    1    2    0    0  0.88252189465E+02 -0.81499647029E+02  0.59900012953E+02  0.16715854922E+03  0.99615900406E+02 0.  0.
        -11    1    4    4    0    0  0.18735558076E+02  0.22227529320E+02  0.97688434211E+00  0.29086740951E+02  0.00000000000E+00 0.  1.
         11    1    4    4    0    0  0.69516631389E+02 -0.10372717635E+03  0.58923128610E+02  0.13807180827E+03  0.00000000000E+00 0. -1.
        -13    1    3    3    0    0 -0.11759196567E+03  0.20495769906E+02 -0.48752506363E+03  0.50192492929E+03  0.00000000000E+00 0.  1.
         13    1    3    3    0    0 -0.57817919153E+01  0.38407739691E+02 -0.82402713304E+02  0.91097698905E+02  0.00000000000E+00 0. -1.
         21    1    1    2  502  501  0.44546224545E+01  0.22614817009E+02 -0.38383051289E+02  0.44772002812E+02  0.00000000000E+00 0. -1.
         21    1    1    2  503  502  0.30666945666E+02 -0.18679577628E-01 -0.30333884136E+02  0.43134747387E+02  0.00000000000E+00 0. -1.
<scales pt_clust_5="13000.00000" pt_clust_6="13000.00000" pt_clust_7="13000.00000" pt_clust_8="13000.00000" pt_clust_9="23.04937" pt_clust_10="30.93449"></scales>
<clustering>
<clus scale="   23.049">  2  9  1 -1</clus>
<clus scale="   30.934">  2 10  1 -1</clus>
<clus scale="   90.374">  7  8 -1 -1</clus>
<clus scale="   99.616">  5  6 -1 -1</clus>
<clus scale="  151.073">  2  7  1 -1</clus>
<clus scale="  156.776">  1  5  2 -1</clus>
</clustering>
</event>
<event>
10    2  0.1133532E-006  0.1672674E+03  0.7546771E-02  0.1180893E+00
          1   -1    0    0  503    0  0.00000000000E+00  0.00000000000E+00  0.26893287048E+03  0.26893287048E+03  0.00000000000E+00 0. -1.
         -1   -1    0    0    0  501 -0.00000000000E+00 -0.00000000000E+00 -0.29848001362E+03  0.29848001362E+03  0.00000000000E+00 0.  1.
         23    2    1    2    0    0  0.13699466218E+03 -0.69266500643E+02 -0.38012547457E+02  0.18352489747E+03  0.93118465683E+02 0.  0.
         23    2    1    2    0    0 -0.11930190542E+03 -0.76970912299E+01  0.12884343749E+03  0.19942457952E+03  0.94219645958E+02 0.  0.
        -11    1    4    4    0    0 -0.59966230475E+02  0.36789306403E+02  0.31582812382E+02  0.77115989918E+02  0.00000000000E+00 0.  1.
         11    1    4    4    0    0 -0.59335674944E+02 -0.44486397633E+02  0.97260625106E+02  0.12230858961E+03  0.00000000000E+00 0. -1.
        -13    1    3    3    0    0  0.87164081755E+02 -0.42024133305E+02 -0.68983783112E+02  0.11883756671E+03  0.00000000000E+00 0.  1.
         13    1    3    3    0    0  0.49830580424E+02 -0.27242367338E+02  0.30971235655E+02  0.64687330765E+02  0.00000000000E+00 0. -1.
         21    1    1    2  502  501  0.14294849156E+02  0.63501853482E+02 -0.13256324321E+03  0.14768155456E+03  0.00000000000E+00 0.  1.
         21    1    1    2  503  502 -0.31987605916E+02  0.13461738391E+02  0.12185210042E+02  0.36781852543E+02  0.00000000000E+00 0. -1.
<scales pt_clust_5="13000.00000" pt_clust_6="13000.00000" pt_clust_7="13000.00000" pt_clust_8="13000.00000" pt_clust_9="65.28835" pt_clust_10="34.70483"></scales>
<clustering>
<clus scale="   34.705">  1 10  2 -1</clus>
<clus scale="   65.288">  2  9  1 -1</clus>
<clus scale="   93.118">  7  8 -1 -1</clus>
<clus scale="   94.220">  5  6 -1 -1</clus>
<clus scale="  166.650">  2  7  1 -1</clus>
<clus scale="   34.705">  1  5  2 -1</clus>
</clustering>
</event>
<event>
10    2  0.1133532E-006  0.1058865E+03  0.7546771E-02  0.1269539E+00
         -3   -1    0    0    0  501 -0.00000000000E+00  0.00000000000E+00  0.22684141360E+03  0.22684141360E+03  0.00000000000E+00 0.  1.
          3   -1    0    0  503    0  0.00000000000E+00 -0.00000000000E+00 -0.17798811618E+03  0.17798811618E+03  0.00000000000E+00 0. -1.
         23    2    1    2    0    0 -0.37023500020E+02 -0.53180537183E+02  0.13279281338E+03  0.17300608409E+03  0.89990359240E+02 0.  0.
         23    2    1    2    0    0  0.12369741945E+02  0.36436845039E+02 -0.97346380301E+02  0.13980870321E+03  0.92679563782E+02 0.  0.
        -11    1    4    4    0    0  0.32011941625E+02  0.26564144858E+01  0.28637772002E+01  0.32249374635E+02  0.00000000000E+00 0.  1.
         11    1    4    4    0    0 -0.19642199680E+02  0.33780430554E+02 -0.10021015750E+03  0.10755932857E+03  0.00000000000E+00 0. -1.
        -13    1    3    3    0    0 -0.60209270485E+02 -0.23711310134E+02  0.11394784950E+03  0.13104005069E+03  0.00000000000E+00 0.  1.
         13    1    3    3    0    0  0.23185770465E+02 -0.29469227049E+02  0.18844963884E+02  0.41966033393E+02  0.00000000000E+00 0. -1.
         21    1    1    2  502  501 -0.36001973961E+01  0.20213451972E+02  0.45015905490E+02  0.49477033146E+02  0.00000000000E+00 0. -1.
         21    1    1    2  503  502  0.28253955471E+02 -0.34697598285E+01 -0.31609041150E+02  0.42537709335E+02  0.00000000000E+00 0. -1.
<scales pt_clust_5="13000.00000" pt_clust_6="13000.00000" pt_clust_7="13000.00000" pt_clust_8="13000.00000" pt_clust_9="20.53156" pt_clust_10="28.28883"></scales>
<clustering>
<clus scale="   20.532">  1  9  2 -1</clus>
<clus scale="   28.289">  2 10  1 -1</clus>
<clus scale="   89.990">  7  8 -1 -1</clus>
<clus scale="   92.680">  5  6 -1 -1</clus>
<clus scale="  103.541">  1  7  2 -1</clus>
<clus scale="   28.289">  2  5  1 -1</clus>
</clustering>
</event>
<event>
10    2  0.1133532E-006  0.9145092E+02  0.7546771E-02  0.1300905E+00
          1   -1    0    0  503    0  0.00000000000E+00  0.00000000000E+00  0.26336201808E+03  0.26336201808E+03  0.00000000000E+00 0. -1.
         -1   -1    0    0    0  501 -0.00000000000E+00 -0.00000000000E+00 -0.36034694146E+03  0.36034694146E+03  0.00000000000E+00 0.  1.
         23    2    1    2    0    0  0.33267360669E+01 -0.10217746251E+02 -0.17910332727E+03  0.20126312293E+03  0.91177701770E+02 0.  0.
         23    2    1    2    0    0  0.10209670332E+02 -0.21906366371E+02 -0.84135894738E+02  0.12457102925E+03  0.88628247689E+02 0.  0.
        -11    1    3    3    0    0 -0.16132189043E+02  0.29829453551E+02 -0.13265557826E+03  0.13692167931E+03  0.00000000000E+00 0.  1.
         11    1    3    3    0    0  0.19458925110E+02 -0.40047199802E+02 -0.46447749014E+02  0.64341443619E+02  0.00000000000E+00 0. -1.
        -13    1    4    4    0    0 -0.13759479318E+02 -0.27614714512E+02 -0.93310448957E+02  0.98278866564E+02  0.00000000000E+00 0.  1.
         13    1    4    4    0    0  0.23969149650E+02  0.57083481411E+01  0.91745542188E+01  0.26292162683E+02  0.00000000000E+00 0. -1.
         21    1    1    2  502  501 -0.18280907206E+02 -0.17598210589E+02 -0.60541384494E+02  0.65644099663E+02  0.00000000000E+00 0.  1.
         21    1    1    2  503  502  0.47445008071E+01  0.49722323211E+02  0.22679568312E+03  0.23223070770E+03  0.00000000000E+00 0. -1.
<scales pt_clust_5="13000.00000" pt_clust_6="13000.00000" pt_clust_7="13000.00000" pt_clust_8="13000.00000" pt_clust_9="25.37496" pt_clust_10="49.77237"></scales>
<clustering>
<clus scale="   25.375">  2  9  1 -1</clus>
<clus scale="   49.772">  1 10  2 -1</clus>
<clus scale="   88.628">  7  8 -1 -1</clus>
<clus scale="   88.909">  1  7  2 -1</clus>
<clus scale="   91.178">  5  6 -1 -1</clus>
<clus scale="   49.772">  1  5  2 -1</clus>
</clustering>
</event>
<event>
10    2  0.1133532E-006  0.1191105E+03  0.7546771E-02  0.1245666E+00
         -1   -1    0    0    0  501 -0.00000000000E+00  0.00000000000E+00  0.76731451500E+02  0.76731451500E+02  0.00000000000E+00 0.  1.
          1   -1    0    0  503    0  0.00000000000E+00 -0.00000000000E+00 -0.50162739319E+03  0.50162739319E+03  0.00000000000E+00 0. -1.
         23    2    1    2    0    0 -0.93748230762E+02 -0.48600032945E+02 -0.16282879622E+03  0.21337120831E+03  0.88675598003E+02 0.  0.
         23    2    1    2    0    0  0.46761919748E+02  0.14266567144E+02 -0.15150410764E+03  0.18389842313E+03  0.92059346726E+02 0.  0.
        -11    1    3    3    0    0 -0.56064340789E+02  0.19171671096E+02 -0.84003977439E+02  0.10279801314E+03  0.00000000000E+00 0. -1.
         11    1    3    3    0    0 -0.37683889974E+02 -0.67771704041E+02 -0.78824818786E+02  0.11057319516E+03  0.00000000000E+00 0.  1.
        -11    1    4    4    0    0  0.21774983342E+02  0.51400603803E+02 -0.59511256764E+02  0.81595108018E+02  0.00000000000E+00 0. -1.
         11    1    4    4    0    0  0.24986936406E+02 -0.37134036659E+02 -0.91992850880E+02  0.10230331511E+03  0.00000000000E+00 0.  1.
         21    1    1    2  502  501  0.14115413881E+02  0.22278694995E+02  0.27826644819E+02  0.38339370386E+02  0.00000000000E+00 0.  1.
         21    1    1    2  503  502  0.32870897133E+02  0.12054770806E+02 -0.13838968264E+03  0.14274984287E+03  0.00000000000E+00 0. -1.
<scales pt_clust_5="13000.00000" pt_clust_6="13000.00000" pt_clust_7="13000.00000" pt_clust_8="13000.00000" pt_clust_9="26.37395" pt_clust_10="36.06557"></scales>
<clustering>
<clus scale="   26.374">  1  9  2 -1</clus>
<clus scale="   36.066">  2 10  1 -1</clus>
<clus scale="   88.676">  5  6 -1 -1</clus>
<clus scale="   92.059">  7  8 -1 -1</clus>
<clus scale="  116.515">  1  5  2 -1</clus>
<clus scale="   36.066">  2  5  1 -1</clus>
</clustering>
</event>
<event>
10    2  0.1133532E-006  0.1003714E+03  0.7546771E-02  0.1280965E+00
          2   -1    0    0  503    0  0.00000000000E+00  0.00000000000E+00  0.56633941802E+03  0.56633941802E+03  0.00000000000E+00 0. -1.
         -2   -1    0    0    0  501 -0.00000000000E+00 -0.00000000000E+00 -0.13453354150E+03  0.13453354150E+03  0.00000000000E+00 0.  1.
         23    2    1    2    0    0  0.93433630175E+02 -0.27239355882E+02 -0.12206249854E+02  0.13432555953E+03  0.91774384509E+02 0.  0.
         23    2    1    2    0    0  0.50307588961E+01 -0.81652477031E+01  0.21392589487E+03  0.23413421935E+03  0.94670821109E+02 0.  0.
        -13    1    4    4    0    0  0.16097472294E+02  0.39283131833E+02  0.13364204624E+03  0.14022299949E+03  0.00000000000E+00 0. -1.
         13    1    4    4    0    0 -0.11066713398E+02 -0.47448379536E+02  0.80283848631E+02  0.93911219868E+02  0.00000000000E+00 0.  1.
        -13    1    3    3    0    0  0.52141619372E+02 -0.56351433049E+02  0.12995635106E+02  0.77866032448E+02  0.00000000000E+00 0.  1.
         13    1    3    3    0    0  0.41292010803E+02  0.29112077167E+02 -0.25201884961E+02  0.56459527086E+02  0.00000000000E+00 0. -1.
         21    1    1    2  502  501 -0.61396686689E+02  0.50345595962E+02 -0.17763435544E+02  0.81361980135E+02  0.00000000000E+00 0. -1.
         21    1    1    2  503  502 -0.37067702382E+02 -0.14940992378E+02  0.24784966705E+03  0.25105120050E+03  0.00000000000E+00 0. -1.
<scales pt_clust_5="13000.00000" pt_clust_6="13000.00000" pt_clust_7="13000.00000" pt_clust_8="13000.00000" pt_clust_9="81.40087" pt_clust_10="39.96558"></scales>
<clustering>
<clus scale="   39.966">  1 10  2 -1</clus>
<clus scale="   81.401">  2  9  1 -1</clus>
<clus scale="   91.774">  7  8 -1 -1</clus>
<clus scale="   94.671">  5  6 -1 -1</clus>
<clus scale="   97.644">  2  7  1 -1</clus>
<clus scale="   39.966">  1  5  2 -1</clus>
</clustering>
</event>
<event>
10    2  0.1133532E-006  0.1133637E+03  0.7546771E-02  0.1258533E+00
          2   -1    0    0  503    0  0.00000000000E+00  0.00000000000E+00  0.27258307802E+03  0.27258307802E+03  0.00000000000E+00 0. -1.
         -2   -1    0    0    0  501 -0.00000000000E+00 -0.00000000000E+00 -0.96818923144E+02  0.96818923144E+02  0.00000000000E+00 0.  1.
         23    2    1    2    0    0 -0.49879818103E+02  0.64394047870E+02  0.80227086222E+02  0.14534898565E+03  0.89751616203E+02 0.  0.
         23    2    1    2    0    0  0.36001215281E+02 -0.54962304310E+02  0.84549754182E+02  0.13270925882E+03  0.78397347201E+02 0.  0.
        -11    1    3    3    0    0 -0.20941155653E+02 -0.10964036874E+02  0.56445783979E+02  0.61195331796E+02  0.00000000000E+00 0. -1.
         11    1    3    3    0    0 -0.28938662450E+02  0.75358084744E+02  0.23781302242E+02  0.84153653854E+02  0.00000000000E+00 0.  1.
        -11    1    4    4    0    0  0.11297841784E+02 -0.35993309737E+02 -0.48537836648E+01  0.38035756738E+02  0.00000000000E+00 0.  1.
         11    1    4    4    0    0  0.24703373497E+02 -0.18968994573E+02  0.89403537847E+02  0.94673502084E+02  0.00000000000E+00 0. -1.
         21    1    1    2  502  501  0.20556120143E+02 -0.31885775653E+02 -0.27104412902E+02  0.46625164483E+02  0.00000000000E+00 0. -1.
         21    1    1    2  503  502 -0.66775173204E+01  0.22454032093E+02  0.38091727379E+02  0.44718592213E+02  0.00000000000E+00 0. -1.
<scales pt_clust_5="13000.00000" pt_clust_6="13000.00000" pt_clust_7="13000.00000" pt_clust_8="13000.00000" pt_clust_9="36.98903" pt_clust_10="23.42590"></scales>
<clustering>
<clus scale="   23.426">  1 10  2 -1</clus>
<clus scale="   36.989">  2  9  1 -1</clus>
<clus scale="   78.397">  7  8 -1 -1</clus>
<clus scale="   89.752">  5  6 -1 -1</clus>
<clus scale="  104.605">  1  7  2 -1</clus>
<clus scale="   23.426">  1  5  2 -1</clus>
</clustering>
</event>
<event>
10    2  0.1133532E-006  0.1235622E+03  0.7546771E-02  0.1237361E+00
         -2   -1    0    0    0  501 -0.00000000000E+00  0.00000000000E+00  0.41958354987E+02  0.41958354987E+02  0.00000000000E+00 0.  1.
          2   -1    0    0  503    0  0.00000000000E+00 -0.00000000000E+00 -0.12864142834E+04  0.12864142834E+04  0.00000000000E+00 0. -1.
         23    2    1    2    0    0 -0.38177493187E+02  0.44265506173E+02 -0.38525588519E+03  0.40017704286E+03  0.91118672814E+02 0.  0.
         23    2    1    2    0    0  0.13005858513E+03 -0.11432401863E+02 -0.64796053594E+03  0.66724706405E+03  0.91213228037E+02 0.  0.
        -11    1    4    4    0    0  0.54972698883E+02 -0.48147222451E+02 -0.24295709884E+03  0.25370909429E+03  0.00000000000E+00 0.  1.
         11    1    4    4    0    0  0.75085886244E+02  0.36714820588E+02 -0.40500343711E+03  0.41353796976E+03  0.00000000000E+00 0. -1.
        -13    1    3    3    0    0 -0.64538911079E+02  0.11591452303E+02 -0.21211017206E+03  0.22201431913E+03  0.00000000000E+00 0.  1.
         13    1    3    3    0    0  0.26361417891E+02  0.32674053870E+02 -0.17314571313E+03  0.17816272373E+03  0.00000000000E+00 0. -1.
         21    1    1    2  502  501 -0.38751635097E+02 -0.31737272289E+02 -0.78122732282E+01  0.50694923691E+02  0.00000000000E+00 0.  1.
         21    1    1    2  503  502 -0.53129456843E+02 -0.10958320220E+01 -0.20342723401E+03  0.21025360774E+03  0.00000000000E+00 0. -1.
<scales pt_clust_5="13000.00000" pt_clust_6="13000.00000" pt_clust_7="13000.00000" pt_clust_8="13000.00000" pt_clust_9="50.08936" pt_clust_10="59.91630"></scales>
<clustering>
<clus scale="   50.089">  1  9  2 -1</clus>
<clus scale="   59.916">  2 10  1 -1</clus>
<clus scale="   91.119">  7  8 -1 -1</clus>
<clus scale="   91.213">  5  6 -1 -1</clus>
<clus scale="  123.492">  1  7  2 -1</clus>
<clus scale="   59.916">  2  5  1 -1</clus>
</clustering>
</event>
<event>
10    2  0.1133532E-006  0.9827352E+02  0.7546771E-02  0.1298139E+00
         -1   -1    0    0    0  501 -0.00000000000E+00  0.00000000000E+00  0.82712033957E+02  0.82712033957E+02  0.00000000000E+00 0.  1.
          1   -1    0    0  503    0  0.00000000000E+00 -0.00000000000E+00 -0.43167787233E+03  0.43167787233E+03  0.00000000000E+00 0. -1.
         23    2    1    2    0    0  0.29555317380E+02  0.37078188865E+02  0.20097117459E+02  0.10821811356E+03  0.95178553766E+02 0.  0.
         23    2    1    2    0    0  0.20013885469E+02 -0.22470071140E+02 -0.17063455877E+03  0.18737084023E+03  0.71317735597E+02 0.  0.
        -13    1    4    4    0    0  0.39993723113E+02  0.69648614216E+01 -0.74129834834E+02  0.84517688064E+02  0.00000000000E+00 0.  1.
         13    1    4    4    0    0 -0.19979837644E+02 -0.29434932562E+02 -0.96504723940E+02  0.10285315216E+03  0.00000000000E+00 0. -1.
        -13    1    3    3    0    0  0.39615311471E+02 -0.87067938371E+00  0.46357949152E+02  0.60985165697E+02  0.00000000000E+00 0.  1.
         13    1    3    3    0    0 -0.10059994091E+02  0.37948868249E+02 -0.26260831692E+02  0.47232947861E+02  0.00000000000E+00 0. -1.
         21    1    1    2  502  501  0.55452784689E+00 -0.26680540617E+02 -0.20780685319E+02  0.33823004466E+02  0.00000000000E+00 0.  1.
         21    1    1    2  503  502 -0.50123730696E+02  0.12072422892E+02 -0.17764771174E+03  0.18497794803E+03  0.00000000000E+00 0. -1.
<scales pt_clust_5="13000.00000" pt_clust_6="13000.00000" pt_clust_7="13000.00000" pt_clust_8="13000.00000" pt_clust_9="26.68630" pt_clust_10="51.24565"></scales>
<clustering>
<clus scale="   26.686">  1  9  2 -1</clus>
<clus scale="   51.246">  2 10  1 -1</clus>
<clus scale="   71.318">  5  6 -1 -1</clus>
<clus scale="   75.399">  2  5  1 -1</clus>
<clus scale="   95.179">  7  8 -1 -1</clus>
<clus scale="   51.246">  2  5  1 -1</clus>
</clustering>
</event>
<event>
10    2  0.1133532E-006  0.1051070E+03  0.7546771E-02  0.1270523E+00
         -1   -1    0    0    0  501 -0.00000000000E+00  0.00000000000E+00  0.55779040803E+03  0.55779040803E+03  0.00000000000E+00 0.  1.
          1   -1    0    0  503    0  0.00000000000E+00 -0.00000000000E+00 -0.31573410934E+02  0.31573410934E+02  0.00000000000E+00 0. -1.
         23    2    1    2    0    0  0.95041597830E+01  0.43947017663E+02  0.28169510408E+03  0.29923288032E+03  0.90368775529E+02 0.  0.
         23    2    1    2    0    0 -0.17085693199E+02 -0.45670266947E+02  0.13917439401E+03  0.17370383468E+03  0.91792243892E+02 0.  0.
        -13    1    3    3    0    0 -0.11376821881E+02  0.64275980589E+02  0.23740278225E+03  0.24621314907E+03  0.00000000000E+00 0.  1.
         13    1    3    3    0    0  0.20880981664E+02 -0.20328962926E+02  0.44292321828E+02  0.53019731250E+02  0.00000000000E+00 0. -1.
        -13    1    4    4    0    0  0.37643052385E+02 -0.11836988821E+02  0.48616434624E+02  0.62615265014E+02  0.00000000000E+00 0. -1.
         13    1    4    4    0    0 -0.54728745584E+02 -0.33833278126E+02  0.90557959386E+02  0.11108856966E+03  0.00000000000E+00 0.  1.
         21    1    1    2  502  501 -0.20452498114E+01  0.21057153325E+02  0.81726590400E+02  0.84420508950E+02  0.00000000000E+00 0.  1.
         21    1    1    2  503  502  0.96267832274E+01 -0.19333904041E+02  0.23620908605E+02  0.32006595009E+02  0.00000000000E+00 0. -1.
<scales pt_clust_5="13000.00000" pt_clust_6="13000.00000" pt_clust_7="13000.00000" pt_clust_8="13000.00000" pt_clust_9="21.15625" pt_clust_10="20.44500"></scales>
<clustering>
<clus scale="   21.156">  1  9  2 -1</clus>
<clus scale="   20.445">  2 10  1 -1</clus>
<clus scale="   90.369">  5  6 -1 -1</clus>
<clus scale="   91.792">  7  8 -1 -1</clus>
<clus scale="  103.866">  1  5  2 -1</clus>
<clus scale="   20.445">  2  5  1 -1</clus>
</clustering>
</event>
<event>
10    2  0.1133532E-006  0.1801417E+03  0.7546771E-02  0.1167780E+00
          2   -1    0    0  503    0  0.00000000000E+00  0.00000000000E+00  0.55992086217E+03  0.55992086217E+03  0.00000000000E+00 0. -1.
         -2   -1    0    0    0  501 -0.00000000000E+00 -0.00000000000E+00 -0.16028336612E+03  0.16028336612E+03  0.00000000000E+00 0.  1.
         23    2    1    2    0    0 -0.33541474498E+01 -0.12160242087E+03 -0.27368722822E+02  0.15396411489E+03  0.90318894026E+02 0.  0.
         23    2    1    2    0    0  0.40859670353E+02  0.13439513840E+03  0.38006335396E+03  0.41493190541E+03  0.89379903855E+02 0.  0.
        -11    1    4    4    0    0 -0.74412699360E+01  0.10874124841E+03  0.28683345935E+03  0.30684436610E+03  0.00000000000E+00 0. -1.
         11    1    4    4    0    0  0.48300940289E+02  0.25653889990E+02  0.93229894616E+02  0.10808753931E+03  0.00000000000E+00 0.  1.
        -13    1    3    3    0    0  0.34999668448E+02 -0.97054274955E+02 -0.32424101563E+02  0.10814726738E+03  0.00000000000E+00 0.  1.
         13    1    3    3    0    0 -0.38353815898E+02 -0.24548145913E+02  0.50553787412E+01  0.45816847512E+02  0.00000000000E+00 0. -1.
         21    1    1    2  502  501 -0.26112640905E+02 -0.49879721617E+02 -0.30979203509E+02  0.64261712502E+02  0.00000000000E+00 0.  1.
         21    1    1    2  503  502 -0.11392881998E+02  0.37087004083E+02  0.77922068419E+02  0.87046495499E+02  0.00000000000E+00 0. -1.
<scales pt_clust_5="13000.00000" pt_clust_6="13000.00000" pt_clust_7="13000.00000" pt_clust_8="13000.00000" pt_clust_9="55.34859" pt_clust_10="38.79747"></scales>
<clustering>
<clus scale="   38.797">  1 10  2 -1</clus>
<clus scale="   55.349">  2  9  1 -1</clus>
<clus scale="   89.380">  5  6 -1 -1</clus>
<clus scale="   90.319">  7  8 -1 -1</clus>
<clus scale="  179.673">  1  5  2 -1</clus>
<clus scale="   38.797">  1  5  2 -1</clus>
</clustering>
</event>
<event>
10    2  0.1133532E-006  0.1575113E+03  0.7546771E-02  0.1191619E+00
          2   -1    0    0  503    0  0.00000000000E+00  0.00000000000E+00  0.10660155855E+04  0.10660155855E+04  0.00000000000E+00 0. -1.
         -2   -1    0    0    0  501 -0.00000000000E+00 -0.00000000000E+00 -0.95858428481E+02  0.95858428481E+02  0.00000000000E+00 0.  1.
         23    2    1    2    0    0  0.28898856720E+02 -0.15135006886E+03  0.19122433338E+03  0.26226502555E+03  0.92055476113E+02 0.  0.
         23    2    1    2    0    0  0.49096565976E+02  0.11638399606E+03  0.68726856407E+03  0.70475310059E+03  0.91559523246E+02 0.  0.
        -11    1    4    4    0    0  0.21115741480E+01  0.97893263079E+02  0.54650786211E+03  0.55521022419E+03  0.00000000000E+00 0. -1.
         11    1    4    4    0    0  0.46984991828E+02  0.18490732978E+02  0.14076070196E+03  0.14954287639E+03  0.00000000000E+00 0.  1.
        -13    1    3    3    0    0  0.33271734666E+02 -0.39362678927E+02  0.11698004872E+03  0.12783098458E+03  0.00000000000E+00 0. -1.
         13    1    3    3    0    0 -0.43728779461E+01 -0.11198738993E+03  0.74244284668E+02  0.13443404097E+03  0.00000000000E+00 0.  1.
         21    1    1    2  502  501 -0.49698904956E+01  0.50819905032E+02 -0.24575508151E+02  0.56668493538E+02  0.00000000000E+00 0.  1.
         21    1    1    2  503  502 -0.73025532200E+02 -0.15853832229E+02  0.11623976775E+03  0.13818739434E+03  0.00000000000E+00 0. -1.
<scales pt_clust_5="13000.00000" pt_clust_6="13000.00000" pt_clust_7="13000.00000" pt_clust_8="13000.00000" pt_clust_9="51.06234" pt_clust_10="74.23650"></scales>
<clustering>
<clus scale="   51.062">  2  9  1 -1</clus>
<clus scale="   74.236">  2 10  1 -1</clus>
<clus scale="   91.560">  5  6 -1 -1</clus>
<clus scale="   92.055">  7  8 -1 -1</clus>
<clus scale="  157.222">  1  5  2 -1</clus>
<clus scale="  157.222">  1  5  2 -1</clus>
</clustering>
</event>
<event>
10    2  0.1133532E-006  0.9809109E+02  0.7546771E-02  0.1284514E+00
          1   -1    0    0  503    0  0.00000000000E+00  0.00000000000E+00  0.19025203607E+03  0.19025203607E+03  0.00000000000E+00 0. -1.
         -1   -1    0    0    0  501 -0.00000000000E+00 -0.00000000000E+00 -0.28496250842E+03  0.28496250842E+03  0.00000000000E+00 0.  1.
         23    2    1    2    0    0 -0.34856598562E+02 -0.46505243926E+02 -0.11597495193E+03  0.15815816700E+03  0.90477047582E+02 0.  0.
         23    2    1    2    0    0 -0.29855027450E+02  0.19768087562E+02 -0.36496447573E+02  0.10418824071E+03  0.90780498274E+02 0.  0.
        -11    1    3    3    0    0 -0.21138466025E+02 -0.66335236870E+02 -0.11449385947E+03  0.13400015766E+03  0.00000000000E+00 0.  1.
         11    1    3    3    0    0 -0.13718132536E+02  0.19829992944E+02 -0.14810924548E+01  0.24158009341E+02  0.00000000000E+00 0. -1.
        -13    1    4    4    0    0 -0.51329308652E+02 -0.16819371983E+02 -0.12478557859E+02  0.55437384560E+02  0.00000000000E+00 0.  1.
         13    1    4    4    0    0  0.21474281201E+02  0.36587459545E+02 -0.24017889713E+02  0.48750856150E+02  0.00000000000E+00 0. -1.
         21    1    1    2  502  501  0.30308576878E+02 -0.54418411838E+01 -0.70121787790E+02  0.76585172133E+02  0.00000000000E+00 0. -1.
         21    1    1    2  503  502  0.34403049134E+02  0.32178997548E+02  0.12788271494E+03  0.13628296465E+03  0.00000000000E+00 0. -1.
<scales pt_clust_5="13000.00000" pt_clust_6="13000.00000" pt_clust_7="13000.00000" pt_clust_8="13000.00000" pt_clust_9="30.79324" pt_clust_10="47.47496"></scales>
<clustering>
<clus scale="   30.793">  2  9  1 -1</clus>
<clus scale="   47.475">  1 10  2 -1</clus>
<clus scale="   90.477">  5  6 -1 -1</clus>
<clus scale="   90.780">  7  8 -1 -1</clus>
<clus scale="   97.810">  2  5  1 -1</clus>
<clus scale="   47.475">  1  5  2 -1</clus>
</clustering>
</event>
<event>
10    2  0.1133532E-006  0.1728324E+03  0.7546771E-02  0.1175278E+00
         -2   -1    0    0    0  501 -0.00000000000E+00  0.00000000000E+00  0.57998048336E+03  0.57998048336E+03  0.00000000000E+00 0.  1.
          2   -1    0    0  503    0  0.00000000000E+00 -0.00000000000E+00 -0.24287931084E+03  0.24287931084E+03  0.00000000000E+00 0. -1.
         23    2    1    2    0    0  0.90973447332E+02 -0.14760817113E+02  0.35460666814E+03  0.37817863196E+03  0.93697058361E+02 0.  0.
         23    2    1    2    0    0 -0.76153239145E+02  0.12858834774E+03 -0.11753158222E+03  0.21084251640E+03  0.91140632537E+02 0.  0.
        -13    1    3    3    0    0  0.64608796588E+02  0.29606322420E+02  0.13471930144E+03  0.15231585966E+03  0.00000000000E+00 0.  1.
         13    1    3    3    0    0  0.26364650743E+02 -0.44367139534E+02  0.21988736670E+03  0.22586277230E+03  0.00000000000E+00 0. -1.
        -13    1    4    4    0    0 -0.18069022404E+02  0.10938944353E+03 -0.56533744202E+02  0.12445322077E+03  0.00000000000E+00 0.  1.
         13    1    4    4    0    0 -0.58084216740E+02  0.19198904201E+02 -0.60997838017E+02  0.86389295631E+02  0.00000000000E+00 0. -1.
         21    1    1    2  502  501  0.13135889855E+02 -0.10418864406E+03  0.14559529369E+03  0.17951549988E+03  0.00000000000E+00 0.  1.
         21    1    1    2  503  502 -0.27956098042E+02 -0.96388865592E+01 -0.45569207084E+02  0.54323145951E+02  0.00000000000E+00 0. -1.
<scales pt_clust_5="13000.00000" pt_clust_6="13000.00000" pt_clust_7="13000.00000" pt_clust_8="13000.00000" pt_clust_9="105.57737" pt_clust_10="29.57113"></scales>
<clustering>
<clus scale="   29.571">  2 10  1 -1</clus>
<clus scale="   91.141">  7  8 -1 -1</clus>
<clus scale="   93.697">  5  6 -1 -1</clus>
<clus scale="  105.577">  1  9  2 -1</clus>
<clus scale="  171.460">  2  7  1 -1</clus>
<clus scale="   29.571">  2  5  1 -1</clus>
</clustering>
</event>
<event>
10    2  0.1133532E-006  0.1309815E+03  0.7546771E-02  0.1229876E+00
         -2   -1    0    0    0  501 -0.00000000000E+00  0.00000000000E+00  0.32078048392E+02  0.32078048392E+02  0.00000000000E+00 0.  1.
          2   -1    0    0  503    0  0.00000000000E+00 -0.00000000000E+00 -0.88519729676E+03  0.88519729676E+03  0.00000000000E+00 0. -1.
         23    2    1    2    0    0  0.72418964820E+02 -0.48213878604E+02 -0.30944549257E+03  0.33252795000E+03  0.85142469446E+02 0.  0.
         23    2    1    2    0    0 -0.35785680718E+02  0.85842046388E+02 -0.31853467734E+03  0.34627229600E+03  0.98947917813E+02 0.  0.
        -11    1    4    4    0    0 -0.13411446485E+02  0.41950310391E+02 -0.29360189960E+02  0.52931240239E+02  0.00000000000E+00 0.  1.
         11    1    4    4    0    0 -0.22374234232E+02  0.43891735997E+02 -0.28917448738E+03  0.29334105576E+03  0.00000000000E+00 0. -1.
        -13    1    3    3    0    0  0.31332665408E+02 -0.62974357832E+02 -0.24338358861E+03  0.25334379185E+03  0.00000000000E+00 0.  1.
         13    1    3    3    0    0  0.41086299412E+02  0.14760479228E+02 -0.66061903957E+02  0.79184158143E+02  0.00000000000E+00 0. -1.
         21    1    1    2  502  501 -0.36064529041E+02 -0.60167447966E+01 -0.59428333239E+02  0.69775198062E+02  0.00000000000E+00 0.  1.
         21    1    1    2  503  502 -0.56875506080E+00 -0.31611422987E+02 -0.16571074523E+03  0.16869990110E+03  0.00000000000E+00 0.  1.
<scales pt_clust_5="13000.00000" pt_clust_6="13000.00000" pt_clust_7="13000.00000" pt_clust_8="13000.00000" pt_clust_9="37.18684" pt_clust_10="31.61654"></scales>
<clustering>
<clus scale="   31.617">  2 10  1 -1</clus>
<clus scale="   37.187">  1  9  2 -1</clus>
<clus scale="   85.142">  7  8 -1 -1</clus>
<clus scale="   98.948">  5  6 -1 -1</clus>
<clus scale="  120.891">  1  7  2 -1</clus>
<clus scale="   31.617">  2  5  1 -1</clus>
</clustering>
</event>
<event>
10    2  0.1133532E-006  0.1439183E+03  0.7546771E-02  0.1230985E+00
         -2   -1    0    0    0  501 -0.00000000000E+00  0.00000000000E+00  0.64114734697E+02  0.64114734697E+02  0.00000000000E+00 0.  1.
          2   -1    0    0  503    0  0.00000000000E+00 -0.00000000000E+00 -0.83558424695E+03  0.83558424695E+03  0.00000000000E+00 0. -1.
         23    2    1    2    0    0 -0.19967468668E+02  0.57173132156E+01 -0.11934400223E+03  0.14766666863E+03  0.84445643346E+02 0.  0.
         23    2    1    2    0    0 -0.63979199361E+02  0.67733593221E+02 -0.35984273514E+03  0.38264416311E+03  0.90821715062E+02 0.  0.
        -11    1    3    3    0    0 -0.77319951055E+01 -0.20631772244E+02 -0.11639954172E+03  0.11846648086E+03  0.00000000000E+00 0. -1.
         11    1    3    3    0    0 -0.12235473563E+02  0.26349085459E+02 -0.29444605039E+01  0.29200187765E+02  0.00000000000E+00 0.  1.
        -11    1    4    4    0    0 -0.84051823293E+02  0.41953469205E+02 -0.22347185756E+03  0.24241384800E+03  0.00000000000E+00 0.  1.
         11    1    4    4    0    0  0.20072623932E+02  0.25780124016E+02 -0.13637087757E+03  0.14023031511E+03  0.00000000000E+00 0. -1.
         21    1    1    2  502  501 -0.16749317370E+02  0.15481100121E+02  0.19426792515E+02  0.29960046073E+02  0.00000000000E+00 0.  1.
         21    1    1    2  503  502  0.10069598540E+03 -0.88932006557E+02 -0.31170956740E+03  0.33942810384E+03  0.00000000000E+00 0. -1.
<scales pt_clust_5="13000.00000" pt_clust_6="13000.00000" pt_clust_7="13000.00000" pt_clust_8="13000.00000" pt_clust_9="22.80798" pt_clust_10="111.64183"></scales>
<clustering>
<clus scale="   22.808">  1  9  2 -1</clus>
<clus scale="   84.446">  5  6 -1 -1</clus>
<clus scale="   89.070">  1  5  2 -1</clus>
<clus scale="   90.822">  7  8 -1 -1</clus>
<clus scale="  111.642">  1 10  2 -1</clus>
<clus scale="  143.918">  2  5  1 -1</clus>
</clustering>
</event>
<event>
10    2  0.1133532E-006  0.2268150E+03  0.7546771E-02  0.1129084E+00
         -2   -1    0    0    0  501 -0.00000000000E+00  0.00000000000E+00  0.15339302050E+03  0.15339302050E+03  0.00000000000E+00 0.  1.
          2   -1    0    0  503    0  0.00000000000E+00 -0.00000000000E+00 -0.60677286142E+03  0.60677286142E+03  0.00000000000E+00 0. -1.
         23    2    1    2    0    0 -0.20801109751E+03 -0.20622885857E+02 -0.78215621228E+02  0.24177519043E+03  0.92971174018E+02 0.  0.
         23    2    1    2    0    0  0.21639781153E+03  0.37535510943E+02 -0.18666459818E+03  0.30209999619E+03  0.90464402203E+02 0.  0.
        -11    1    4    4    0    0  0.58457172455E+02  0.52074607953E+02 -0.51476367309E+02  0.93695369129E+02  0.00000000000E+00 0.  1.
         11    1    4    4    0    0  0.15794063908E+03 -0.14539097010E+02 -0.13518823087E+03  0.20840462706E+03  0.00000000000E+00 0. -1.
        -11    1    3    3    0    0 -0.47954357920E+02 -0.12991273339E+02 -0.63837773676E+02  0.80892861084E+02  0.00000000000E+00 0. -1.
         11    1    3    3    0    0 -0.16005673959E+03 -0.76316125186E+01 -0.14377847552E+02  0.16088232935E+03  0.00000000000E+00 0.  1.
         21    1    1    2  502  501  0.27718215317E+02 -0.91427545935E+01 -0.56250652859E+01  0.29724245682E+02  0.00000000000E+00 0. -1.
         21    1    1    2  503  502 -0.36104929345E+02 -0.77698704925E+01 -0.18287455622E+03  0.18656644962E+03  0.00000000000E+00 0. -1.
<scales pt_clust_5="13000.00000" pt_clust_6="13000.00000" pt_clust_7="13000.00000" pt_clust_8="13000.00000" pt_clust_9="29.18714" pt_clust_10="36.60325"></scales>
<clustering>
<clus scale="   29.187">  1  9  2 -1</clus>
<clus scale="   36.603">  2 10  1 -1</clus>
<clus scale="   90.464">  5  6 -1 -1</clus>
<clus scale="   92.971">  7  8 -1 -1</clus>
<clus scale="  225.799">  2  5  1 -1</clus>
<clus scale="   36.603">  2  5  1 -1</clus>
</clustering>
</event>
<event>
10    2  0.1133532E-006  0.9259387E+02  0.7546771E-02  0.1296981E+00
         -1   -1    0    0    0  501 -0.00000000000E+00  0.00000000000E+00  0.18319110903E+03  0.18319110903E+03  0.00000000000E+00 0.  1.
          1   -1    0    0  503    0  0.00000000000E+00 -0.00000000000E+00 -0.22710052603E+03  0.22710052603E+03  0.00000000000E+00 0. -1.
         23    2    1    2    0    0 -0.23842378937E+02 -0.12233812699E+02  0.13168992193E+03  0.16143944573E+03  0.89455765011E+02 0.  0.
         23    2    1    2    0    0 -0.11304519017E+01 -0.79452154185E+01 -0.13248565752E+03  0.15977123718E+03  0.88938149373E+02 0.  0.
        -11    1    4    4    0    0 -0.27450044052E+02 -0.35227663996E+02 -0.40533126645E+02  0.60311090064E+02  0.00000000000E+00 0.  1.
         11    1    4    4    0    0  0.26319592150E+02  0.27282448578E+02 -0.91952530870E+02  0.99460147118E+02  0.00000000000E+00 0. -1.
        -11    1    3    3    0    0 -0.48890760798E+02 -0.27918351162E+02  0.52759959050E+02  0.77157981453E+02  0.00000000000E+00 0.  1.
         11    1    3    3    0    0  0.25048381861E+02  0.15684538463E+02  0.78929962880E+02  0.84281464279E+02  0.00000000000E+00 0. -1.
         21    1    1    2  502  501  0.44944100838E+02  0.47190688690E+01 -0.81037429815E+01  0.45912007813E+02  0.00000000000E+00 0.  1.
         21    1    1    2  503  502 -0.19971269999E+02  0.15459959248E+02 -0.35009938436E+02  0.43168944331E+02  0.00000000000E+00 0. -1.
<scales pt_clust_5="13000.00000" pt_clust_6="13000.00000" pt_clust_7="13000.00000" pt_clust_8="13000.00000" pt_clust_9="42.64371" pt_clust_10="25.25593"></scales>
<clustering>
<clus scale="   25.256">  2 10  1 -1</clus>
<clus scale="   42.644">  2  9  1 -1</clus>
<clus scale="   88.938">  5  6 -1 -1</clus>
<clus scale="   89.456">  7  8 -1 -1</clus>
<clus scale="   92.094">  2  5  1 -1</clus>
<clus scale="   25.256">  2  5  1 -1</clus>
</clustering>
</event>
<event>
10    2  0.1133532E-006  0.1624229E+03  0.7546771E-02  0.1190355E+00
          1   -1    0    0  503    0  0.00000000000E+00  0.00000000000E+00  0.32616936025E+03  0.32616936025E+03  0.00000000000E+00 0. -1.
         -1   -1    0    0    0  501 -0.00000000000E+00 -0.00000000000E+00 -0.18472833225E+03  0.18472833225E+03  0.00000000000E+00 0.  1.
         23    2    1    2    0    0  0.10699736264E+03 -0.65999721202E+02  0.11386815106E+02  0.17228452717E+03  0.11725143894E+03 0.  0.
         23    2    1    2    0    0 -0.97274097033E+02  0.15886845225E+02  0.98728976326E+02  0.16901732717E+03  0.95419098266E+02 0.  0.
        -13    1    3    3    0    0  0.10138380265E+03 -0.95758213045E+02  0.19796280495E+02  0.14085525737E+03  0.00000000000E+00 0. -1.
         13    1    3    3    0    0  0.56135599897E+01  0.29758491843E+02 -0.84094653890E+01  0.31429269808E+02  0.00000000000E+00 0.  1.
        -13    1    4    4    0    0 -0.32943021045E+02  0.43581319958E+02  0.92859356383E+01  0.55414823698E+02  0.00000000000E+00 0. -1.
         13    1    4    4    0    0 -0.64331075989E+02 -0.27694474733E+02  0.89443040688E+02  0.11360250348E+03  0.00000000000E+00 0.  1.
         21    1    1    2  502  501  0.73806364960E+01  0.20454321535E+02 -0.64378854586E+02  0.67952115363E+02  0.00000000000E+00 0.  1.
         21    1    1    2  503  502 -0.17103902106E+02  0.29658554442E+02  0.95704091152E+02  0.10164372279E+03  0.00000000000E+00 0. -1.
<scales pt_clust_5="13000.00000" pt_clust_6="13000.00000" pt_clust_7="13000.00000" pt_clust_8="13000.00000" pt_clust_9="21.74518" pt_clust_10="34.59100"></scales>
<clustering>
<clus scale="   21.745">  2  9  1 -1</clus>
<clus scale="   34.591">  1 10  2 -1</clus>
<clus scale="   95.419">  7  8 -1 -1</clus>
<clus scale="  117.251">  5  6 -1 -1</clus>
<clus scale="  147.438">  1  7  2 -1</clus>
<clus scale="   34.591">  1  5  2 -1</clus>
</clustering>
</event>
<event>
10    2  0.1133532E-006  0.1089805E+03  0.7546771E-02  0.1263004E+00
          1   -1    0    0  503    0  0.00000000000E+00  0.00000000000E+00  0.73984664439E+02  0.73984664439E+02  0.00000000000E+00 0. -1.
         -1   -1    0    0    0  501 -0.00000000000E+00 -0.00000000000E+00 -0.34761201950E+03  0.34761201950E+03  0.00000000000E+00 0.  1.
         23    2    1    2    0    0 -0.37507614122E+02  0.11371964582E+02 -0.19956107824E+03  0.22340377749E+03  0.92457996679E+02 0.  0.
         23    2    1    2    0    0  0.75639902314E+02 -0.13225764430E+02 -0.42969946989E+02  0.12666985095E+03  0.91118160254E+02 0.  0.
        -13    1    4    4    0    0  0.86470226611E+02 -0.35538318229E+02 -0.40015946159E+02  0.10169241909E+03  0.00000000000E+00 0. -1.
         13    1    4    4    0    0 -0.10830324297E+02  0.22312553800E+02 -0.29540008305E+01  0.24977431861E+02  0.00000000000E+00 0.  1.
        -13    1    3    3    0    0 -0.56453146369E+02  0.28427716314E+02 -0.18142152880E+03  0.19211679756E+03  0.00000000000E+00 0.  1.
         13    1    3    3    0    0  0.18945532247E+02 -0.17055751732E+02 -0.18139549439E+02  0.31286979929E+02  0.00000000000E+00 0. -1.
         21    1    1    2  502  501 -0.21576356994E+02 -0.17534240545E+02 -0.36075982645E+02  0.45546298383E+02  0.00000000000E+00 0. -1.
         21    1    1    2  503  502 -0.16555931198E+02  0.19388040393E+02  0.49796528200E+01  0.25976757117E+02  0.00000000000E+00 0. -1.
<scales pt_clust_5="13000.00000" pt_clust_6="13000.00000" pt_clust_7="13000.00000" pt_clust_8="13000.00000" pt_clust_9="27.92921" pt_clust_10="25.49500"></scales>
<clustering>
<clus scale="   25.495">  1 10  2 -1</clus>
<clus scale="   27.929">  2  9  1 -1</clus>
<clus scale="   91.118">  5  6 -1 -1</clus>
<clus scale="   92.458">  7  8 -1 -1</clus>
<clus scale="  107.846">  1  5  2 -1</clus>
<clus scale="   25.495">  1  5  2 -1</clus>
</clustering>
</event>
<event>
10    2  0.1133532E-006  0.1927127E+03  0.7546771E-02  0.1174226E+00
          3   -1    0    0  503    0  0.00000000000E+00  0.00000000000E+00  0.17970583059E+03  0.17970583059E+03  0.00000000000E+00 0. -1.
         -3   -1    0    0    0  501 -0.00000000000E+00 -0.00000000000E+00 -0.98360329576E+03  0.98360329576E+03  0.00000000000E+00 0.  1.
         23    2    1    2    0    0 -0.19725534973E+02  0.15753270804E+03 -0.60336149203E+03  0.63054730712E+03  0.91319032102E+02 0.  0.
         23    2    1    2    0    0 -0.38445972335E+02 -0.69877459509E+02 -0.14803572123E+02  0.12753040989E+03  0.98406847131E+02 0.  0.
        -11    1    3    3    0    0 -0.15253600259E+02  0.10707199143E+03 -0.53290704496E+03  0.54377109360E+03  0.00000000000E+00 0.  1.
         11    1    3    3    0    0 -0.44719347134E+01  0.50460716613E+02 -0.70454447068E+02  0.86776213520E+02  0.00000000000E+00 0. -1.
        -13    1    4    4    0    0  0.30298836977E+02 -0.24608605583E+02 -0.22170576249E+02  0.44890282268E+02  0.00000000000E+00 0.  1.
         13    1    4    4    0    0 -0.68744809312E+02 -0.45268853926E+02  0.73670041267E+01  0.82640127619E+02  0.00000000000E+00 0. -1.
         21    1    1    2  502  501  0.14441633737E+03  0.76205848091E+01 -0.22795607352E+03  0.26995948449E+03  0.00000000000E+00 0.  1.
         21    1    1    2  503  502 -0.86244830063E+02 -0.95275833339E+02  0.42223672500E+02  0.13527192484E+03  0.00000000000E+00 0. -1.
<scales pt_clust_5="13000.00000" pt_clust_6="13000.00000" pt_clust_7="13000.00000" pt_clust_8="13000.00000" pt_clust_9="137.93642" pt_clust_10="169.70276"></scales>
<clustering>
<clus scale="   91.319">  5  6 -1 -1</clus>
<clus scale="   98.407">  7  8 -1 -1</clus>
<clus scale="  126.668">  1  7  2 -1</clus>
<clus scale="  137.936">  2  9  1 -1</clus>
<clus scale="  169.703">  1 10  2 -1</clus>
<clus scale="  126.668">  1  5  2 -1</clus>
</clustering>
</event>
<event>
10    2  0.1133532E-006  0.1083296E+03  0.7546771E-02  0.1264069E+00
          2   -1    0    0  503    0  0.00000000000E+00  0.00000000000E+00  0.29638765796E+03  0.29638765796E+03  0.00000000000E+00 0. -1.
         -2   -1    0    0    0  501 -0.00000000000E+00 -0.00000000000E+00 -0.98147217231E+02  0.98147217231E+02  0.00000000000E+00 0.  1.
         23    2    1    2    0    0 -0.35694405311E+02  0.38116396541E+02 -0.19859157401E+02  0.10958929658E+03  0.94278722611E+02 0.  0.
         23    2    1    2    0    0  0.56322110210E+01 -0.39919137430E+02  0.15561478506E+03  0.18590107278E+03  0.93370167609E+02 0.  0.
        -11    1    4    4    0    0 -0.21568683473E+02 -0.61856825421E+02  0.11474671578E+03  0.13212979883E+03  0.00000000000E+00 0. -1.
         11    1    4    4    0    0  0.27200894494E+02  0.21937687990E+02  0.40868069279E+02  0.53771273950E+02  0.00000000000E+00 0.  1.
        -11    1    3    3    0    0 -0.11305748948E+02 -0.27501292511E+02 -0.25755257261E+02  0.39337950196E+02  0.00000000000E+00 0.  1.
         11    1    3    3    0    0 -0.24388656363E+02  0.65617689051E+02  0.58960998598E+01  0.70251346387E+02  0.00000000000E+00 0. -1.
         21    1    1    2  502  501  0.16198384088E+02  0.20532096501E+02 -0.58903759699E+01  0.26807669851E+02  0.00000000000E+00 0. -1.
         21    1    1    2  503  502  0.13863810202E+02 -0.18729355612E+02  0.68375189045E+02  0.72236835976E+02  0.00000000000E+00 0. -1.
<scales pt_clust_5="13000.00000" pt_clust_6="13000.00000" pt_clust_7="13000.00000" pt_clust_8="13000.00000" pt_clust_9="25.89044" pt_clust_10="23.30223"></scales>
<clustering>
<clus scale="   23.302">  1 10  2 -1</clus>
<clus scale="   25.890">  2  9  1 -1</clus>
<clus scale="   93.370">  5  6 -1 -1</clus>
<clus scale="   94.279">  7  8 -1 -1</clus>
<clus scale="  107.540">  1  5  2 -1</clus>
<clus scale="   23.302">  1  5  2 -1</clus>
</clustering>
</event>
<event>
10    2  0.1133532E-006  0.1050400E+03  0.7546771E-02  0.1270505E+00
          1   -1    0    0  503    0  0.00000000000E+00  0.00000000000E+00  0.65667338859E+03  0.65667338859E+03  0.00000000000E+00 0. -1.
         -1   -1    0    0    0  501 -0.00000000000E+00 -0.00000000000E+00 -0.44630072732E+02  0.44630072732E+02  0.00000000000E+00 0.  1.
         23    2    1    2    0    0  0.35570726026E+02  0.21277406519E+02  0.90816598493E+02  0.13136802520E+03  0.85392616217E+02 0.  0.
         23    2    1    2    0    0 -0.90124849503E+02 -0.29959259107E+00  0.23112829251E+03  0.26198928428E+03  0.84234905029E+02 0.  0.
        -13    1    3    3    0    0  0.21400437703E+02 -0.20016141655E+02 -0.14037870578E+01  0.29335904260E+02  0.00000000000E+00 0.  1.
         13    1    3    3    0    0  0.14170288323E+02  0.41293548174E+02  0.92220385551E+02  0.10203212094E+03  0.00000000000E+00 0. -1.
        -13    1    4    4    0    0 -0.10079263253E+02 -0.33613337630E+02  0.86744239038E+02  0.93573559410E+02  0.00000000000E+00 0.  1.
         13    1    4    4    0    0 -0.80045586250E+02  0.33313745039E+02  0.14438405348E+03  0.16841572487E+03  0.00000000000E+00 0. -1.
         21    1    1    2  502  501  0.19454684125E+02  0.63759420648E+01  0.74036168479E+01  0.21770413732E+02  0.00000000000E+00 0. -1.
         21    1    1    2  503  502  0.35099439351E+02 -0.27353755993E+02  0.28269480801E+03  0.28617573811E+03  0.00000000000E+00 0. -1.
<scales pt_clust_5="13000.00000" pt_clust_6="13000.00000" pt_clust_7="13000.00000" pt_clust_8="13000.00000" pt_clust_9="20.47284" pt_clust_10="45.03740"></scales>
<clustering>
<clus scale="   20.473">  2  9  1 -1</clus>
<clus scale="   45.037">  1 10  2 -1</clus>
<clus scale="   84.235">  7  8 -1 -1</clus>
<clus scale="   85.393">  5  6 -1 -1</clus>
<clus scale="  104.101">  1  7  2 -1</clus>
<clus scale="   45.037">  1  5  2 -1</clus>
</clustering>
</event>
<event>
10    2  0.1133532E-006  0.9261190E+02  0.7546771E-02  0.1298474E+00
          1   -1    0    0  503    0  0.00000000000E+00  0.00000000000E+00  0.37955505167E+03  0.37955505167E+03  0.00000000000E+00 0. -1.
         -1   -1    0    0    0  501 -0.00000000000E+00 -0.00000000000E+00 -0.22689401894E+03  0.22689401894E+03  0.00000000000E+00 0.  1.
         23    2    1    2    0    0 -0.31438747240E+02  0.69876311311E+01 -0.86526748772E+02  0.12799367638E+03  0.88646946499E+02 0.  0.
         23    2    1    2    0    0 -0.12828327842E+02  0.28938430626E+02 -0.64539593962E+02  0.11656124361E+03  0.91756011039E+02 0.  0.
        -11    1    4    4    0    0  0.35822469082E+02  0.31520034173E+02 -0.38556889662E+02  0.61346520569E+02  0.00000000000E+00 0.  1.
         11    1    4    4    0    0 -0.48650796924E+02 -0.25816035478E+01 -0.25982704300E+02  0.55214723045E+02  0.00000000000E+00 0. -1.
        -13    1    3    3    0    0 -0.21681213526E+02  0.39850859176E+02 -0.81595686521E+02  0.93359638259E+02  0.00000000000E+00 0.  1.
         13    1    3    3    0    0 -0.97575337147E+01 -0.32863228045E+02 -0.49310622515E+01  0.34634038122E+02  0.00000000000E+00 0. -1.
         21    1    1    2  502  501  0.26735066583E+02  0.39040972470E+01 -0.21027279723E+02  0.34236709145E+02  0.00000000000E+00 0.  1.
         21    1    1    2  503  502  0.17532008499E+02 -0.39830159004E+02  0.32475465519E+03  0.32765744148E+03  0.00000000000E+00 0. -1.
<scales pt_clust_5="13000.00000" pt_clust_6="13000.00000" pt_clust_7="13000.00000" pt_clust_8="13000.00000" pt_clust_9="27.01862" pt_clust_10="43.57080"></scales>
<clustering>
<clus scale="   27.019">  2  9  1 -1</clus>
<clus scale="   43.571">  1 10  2 -1</clus>
<clus scale="   88.647">  7  8 -1 -1</clus>
<clus scale="   89.533">  2  7  1 -1</clus>
<clus scale="   91.756">  5  6 -1 -1</clus>
<clus scale="   43.571">  1  5  2 -1</clus>
</clustering>
</event>
<event>
10    2  0.1133532E-006  0.1623666E+03  0.7546771E-02  0.1187077E+00
         -3   -1    0    0    0  501 -0.00000000000E+00  0.00000000000E+00  0.38986002647E+03  0.38986002647E+03  0.00000000000E+00 0.  1.
          3   -1    0    0  503    0  0.00000000000E+00 -0.00000000000E+00 -0.39173539613E+03  0.39173539613E+03  0.00000000000E+00 0. -1.
         23    2    1    2    0    0  0.34531739674E+02  0.88024983643E+02  0.12214927300E+03  0.17578457317E+03  0.83898346098E+02 0.  0.
         23    2    1    2    0    0 -0.69452887712E+02 -0.20169586748E+03 -0.26804761478E+03  0.35435775360E+03  0.90636456105E+02 0.  0.
        -11    1    4    4    0    0 -0.65929754963E+02 -0.57609058379E+02 -0.96464990655E+02  0.13027290823E+03  0.00000000000E+00 0.  1.
         11    1    4    4    0    0 -0.35231327483E+01 -0.14408680910E+03 -0.17158262413E+03  0.22408484537E+03  0.00000000000E+00 0. -1.
        -13    1    3    3    0    0 -0.29971298344E+01  0.38396345206E+02  0.10410454701E+03  0.11100008478E+03  0.00000000000E+00 0. -1.
         13    1    3    3    0    0  0.37528869508E+02  0.49628638438E+02  0.18044725993E+02  0.64784488390E+02  0.00000000000E+00 0.  1.
         21    1    1    2  502  501  0.21184414438E+02  0.39498836523E+02  0.16675133403E+03  0.17267004634E+03  0.00000000000E+00 0.  1.
         21    1    1    2  503  502  0.13736733599E+02  0.74172047315E+02 -0.22728361898E+02  0.78783049494E+02  0.00000000000E+00 0.  1.
<scales pt_clust_5="13000.00000" pt_clust_6="13000.00000" pt_clust_7="13000.00000" pt_clust_8="13000.00000" pt_clust_9="44.82117" pt_clust_10="80.88766"></scales>
<clustering>
<clus scale="   44.821">  1  9  2 -1</clus>
<clus scale="   80.888">  2 10  1 -1</clus>
<clus scale="   83.898">  7  8 -1 -1</clus>
<clus scale="   90.636">  5  6 -1 -1</clus>
<clus scale="  158.704">  1  7  2 -1</clus>
<clus scale="   80.888">  2  5  1 -1</clus>
</clustering>
</event>
<event>
10    2  0.1133532E-006  0.1036252E+03  0.7546771E-02  0.1273130E+00
         -3   -1    0    0    0  501 -0.00000000000E+00  0.00000000000E+00  0.97859983667E+02  0.97859983667E+02  0.00000000000E+00 0.  1.
          3   -1    0    0  503    0  0.00000000000E+00 -0.00000000000E+00 -0.48893208125E+03  0.48893208125E+03  0.00000000000E+00 0. -1.
         23    2    1    2    0    0  0.17354272020E+02  0.50832674870E+02 -0.11361766292E+03  0.15519639492E+03  0.91059409610E+02 0.  0.
         23    2    1    2    0    0  0.11418995730E+02 -0.71957899402E+02 -0.17925536986E+03  0.21358459236E+03  0.90429849726E+02 0.  0.
        -11    1    4    4    0    0 -0.21213151877E+02 -0.71660862351E+02 -0.81746930249E+02  0.11076027090E+03  0.00000000000E+00 0.  1.
         11    1    4    4    0    0  0.32632147606E+02 -0.29703705173E+00 -0.97508439609E+02  0.10282432146E+03  0.00000000000E+00 0. -1.
        -13    1    3    3    0    0  0.72006991607E+01  0.76212743695E+02 -0.70062743670E+02  0.10377389084E+03  0.00000000000E+00 0. -1.
         13    1    3    3    0    0  0.10153572859E+02 -0.25380068825E+02 -0.43554919247E+02  0.51422504081E+02  0.00000000000E+00 0.  1.
         21    1    1    2  502  501 -0.17166679053E+02 -0.52086003769E+02  0.35365448637E+02  0.65256123204E+02  0.00000000000E+00 0.  1.
         21    1    1    2  503  502 -0.11606588697E+02  0.73211228301E+02 -0.13356451344E+03  0.15275495442E+03  0.00000000000E+00 0. -1.
<scales pt_clust_5="13000.00000" pt_clust_6="13000.00000" pt_clust_7="13000.00000" pt_clust_8="13000.00000" pt_clust_9="54.84202" pt_clust_10="64.48628"></scales>
<clustering>
<clus scale="   54.842">  1  9  2 -1</clus>
<clus scale="   64.486">  2 10  1 -1</clus>
<clus scale="   90.430">  5  6 -1 -1</clus>
<clus scale="   91.059">  7  8 -1 -1</clus>
<clus scale="  103.072">  2  5  1 -1</clus>
<clus scale="   64.486">  2  5  1 -1</clus>
</clustering>
</event>
<event>
10    2  0.1133532E-006  0.1278023E+03  0.7546771E-02  0.1254053E+00
         -1   -1    0    0    0  501 -0.00000000000E+00  0.00000000000E+00  0.56059581925E+02  0.56059581925E+02  0.00000000000E+00 0.  1.
          1   -1    0    0  503    0  0.00000000000E+00 -0.00000000000E+00 -0.63258119740E+03  0.63258119740E+03  0.00000000000E+00 0. -1.
         23    2    1    2    0    0  0.21867745245E+01  0.50247218974E+01 -0.55876656782E+02  0.95258464764E+02  0.76954171577E+02 0.  0.
         23    2    1    2    0    0  0.56764404861E+02 -0.68753345108E+01 -0.27607709872E+03  0.30883743810E+03  0.12606558155E+03 0.  0.
        -11    1    4    4    0    0  0.64457019095E+02  0.49643260952E+02 -0.16539219837E+03  0.18431966784E+03  0.00000000000E+00 0.  1.
         11    1    4    4    0    0 -0.76926142334E+01 -0.56518595463E+02 -0.11068490034E+03  0.12451777026E+03  0.00000000000E+00 0. -1.
        -11    1    3    3    0    0 -0.58268300901E+01 -0.35388654764E+02 -0.23796173612E+02  0.43041453431E+02  0.00000000000E+00 0. -1.
         11    1    3    3    0    0  0.80136046147E+01  0.40413376661E+02 -0.32080483171E+02  0.52217011333E+02  0.00000000000E+00 0.  1.
         21    1    1    2  502  501 -0.18673398257E+02  0.22330634156E+02  0.61801209615E+01  0.29758140388E+02  0.00000000000E+00 0.  1.
         21    1    1    2  503  502 -0.40277781129E+02 -0.20480021543E+02 -0.25074798093E+03  0.25478673607E+03  0.00000000000E+00 0. -1.
<scales pt_clust_5="13000.00000" pt_clust_6="13000.00000" pt_clust_7="13000.00000" pt_clust_8="13000.00000" pt_clust_9="29.10933" pt_clust_10="45.55622"></scales>
<clustering>
<clus scale="   29.109">  1  9  2 -1</clus>
<clus scale="   45.556">  2 10  1 -1</clus>
<clus scale="   76.954">  7  8 -1 -1</clus>
<clus scale="   79.767">  1  7  2 -1</clus>
<clus scale="  126.066">  5  6 -1 -1</clus>
<clus scale="   45.556">  2  5  1 -1</clus>
</clustering>
</event>
<event>
10    2  0.1133532E-006  0.1621251E+03  0.7546771E-02  0.1186468E+00
         -1   -1    0    0    0  501 -0.00000000000E+00  0.00000000000E+00  0.10642953970E+03  0.10642953970E+03  0.00000000000E+00 0.  1.
          1   -1    0    0  503    0  0.00000000000E+00 -0.00000000000E+00 -0.70078703202E+03  0.70078703202E+03  0.00000000000E+00 0. -1.
         23    2    1    2    0    0 -0.13874805857E+03 -0.57464056903E+02 -0.30901096708E+03  0.35527474293E+03  0.90439060126E+02 0.  0.
         23    2    1    2    0    0  0.11178730462E+03  0.38910832320E+02 -0.22942181341E+03  0.27385856190E+03  0.91398518095E+02 0.  0.
        -13    1    4    4    0    0  0.45799907100E+02  0.39711382311E+02 -0.38397602688E+02  0.71756541636E+02  0.00000000000E+00 0.  1.
         13    1    4    4    0    0  0.65987397523E+02 -0.80054999041E+00 -0.19102421072E+03  0.20210202026E+03  0.00000000000E+00 0. -1.
        -13    1    3    3    0    0 -0.12922609123E+03 -0.13784875117E+02 -0.21609467121E+03  0.25216326529E+03  0.00000000000E+00 0. -1.
         13    1    3    3    0    0 -0.95219673457E+01 -0.43679181786E+02 -0.92916295869E+02  0.10311147764E+03  0.00000000000E+00 0.  1.
         21    1    1    2  502  501  0.36921460045E+02 -0.56950088437E+01  0.53672865882E+02  0.65394218931E+02  0.00000000000E+00 0.  1.
         21    1    1    2  503  502 -0.99607060950E+01  0.24248233427E+02 -0.10959757770E+03  0.11268904795E+03  0.00000000000E+00 0. -1.
<scales pt_clust_5="13000.00000" pt_clust_6="13000.00000" pt_clust_7="13000.00000" pt_clust_8="13000.00000" pt_clust_9="37.22418" pt_clust_10="26.21436"></scales>
<clustering>
<clus scale="   26.214">  2 10  1 -1</clus>
<clus scale="   37.224">  1  9  2 -1</clus>
<clus scale="   90.439">  7  8 -1 -1</clus>
<clus scale="   91.399">  5  6 -1 -1</clus>
<clus scale="  161.586">  1  7  2 -1</clus>
<clus scale="   26.214">  2  5  1 -1</clus>
</clustering>
</event>
<event>
10    2  0.1133532E-006  0.1151745E+03  0.7546771E-02  0.1251790E+00
         -1   -1    0    0    0  501 -0.00000000000E+00  0.00000000000E+00  0.12861903152E+03  0.12861903152E+03  0.00000000000E+00 0.  1.
          1   -1    0    0  503    0  0.00000000000E+00 -0.00000000000E+00 -0.38324719624E+03  0.38324719624E+03  0.00000000000E+00 0. -1.
         23    2    1    2    0    0  0.73099984298E+02  0.59999557225E+02 -0.85061538165E+02  0.15616651420E+03  0.90603312909E+02 0.  0.
         23    2    1    2    0    0 -0.54130407870E+02 -0.49247521612E+01 -0.96281238842E+02  0.14388113882E+03  0.92072530728E+02 0.  0.
        -11    1    4    4    0    0 -0.46350089792E+02 -0.42012304405E+02 -0.34596600533E+02  0.71486287591E+02  0.00000000000E+00 0. -1.
         11    1    4    4    0    0 -0.77803180779E+01  0.37087552244E+02 -0.61684638309E+02  0.72394851227E+02  0.00000000000E+00 0.  1.
        -13    1    3    3    0    0  0.67321147301E+01  0.31369883874E+02 -0.77026697452E+02  0.83441614937E+02  0.00000000000E+00 0. -1.
         13    1    3    3    0    0  0.66367869568E+02  0.28629673351E+02 -0.80348407136E+01  0.72724899260E+02  0.00000000000E+00 0.  1.
         21    1    1    2  502  501 -0.17771064526E+02 -0.33368849377E+02  0.63182737712E+02  0.73629811816E+02  0.00000000000E+00 0.  1.
         21    1    1    2  503  502 -0.11985119014E+01 -0.21705955686E+02 -0.13646812542E+03  0.13818876293E+03  0.00000000000E+00 0. -1.
<scales pt_clust_5="13000.00000" pt_clust_6="13000.00000" pt_clust_7="13000.00000" pt_clust_8="13000.00000" pt_clust_9="38.22537" pt_clust_10="21.73902"></scales>
<clustering>
<clus scale="   21.739">  2 10  1 -1</clus>
<clus scale="   38.225">  1  9  2 -1</clus>
<clus scale="   90.603">  7  8 -1 -1</clus>
<clus scale="   92.073">  5  6 -1 -1</clus>
<clus scale="  114.003">  1  7  2 -1</clus>
<clus scale="   21.739">  2  5  1 -1</clus>
</clustering>
</event>
<event>
10    2  0.1133532E-006  0.1001314E+03  0.7546771E-02  0.1282796E+00
         -2   -1    0    0    0  501 -0.00000000000E+00  0.00000000000E+00  0.42252579877E+03  0.42252579877E+03  0.00000000000E+00 0.  1.
          2   -1    0    0  503    0  0.00000000000E+00 -0.00000000000E+00 -0.70712728692E+02  0.70712728692E+02  0.00000000000E+00 0. -1.
         23    2    1    2    0    0 -0.69699320919E+02 -0.11023778767E+02  0.11616523764E+03  0.16096081590E+03  0.86223562824E+02 0.  0.
         23    2    1    2    0    0  0.10242555031E+02 -0.14179227667E+01  0.70337714653E+02  0.11615592674E+03  0.91857959784E+02 0.  0.
        -11    1    4    4    0    0 -0.30734525315E+02  0.26500150017E+02  0.44566944313E+02  0.60275048923E+02  0.00000000000E+00 0.  1.
         11    1    4    4    0    0  0.40977080346E+02 -0.27918072784E+02  0.25770770340E+02  0.55880877817E+02  0.00000000000E+00 0. -1.
        -13    1    3    3    0    0 -0.70408151558E+02  0.19590522393E+02  0.51482307950E+02  0.89395326529E+02  0.00000000000E+00 0.  1.
         13    1    3    3    0    0  0.70883063835E+00 -0.30614301161E+02  0.64682929688E+02  0.71565489374E+02  0.00000000000E+00 0. -1.
         21    1    1    2  502  501  0.25736426283E+02 -0.87259805516E+01  0.17338138375E+03  0.17549817836E+03  0.00000000000E+00 0.  1.
         21    1    1    2  503  502  0.33720339605E+02  0.21167682085E+02 -0.80712659633E+01  0.40623606465E+02  0.00000000000E+00 0. -1.
<scales pt_clust_5="13000.00000" pt_clust_6="13000.00000" pt_clust_7="13000.00000" pt_clust_8="13000.00000" pt_clust_9="27.17547" pt_clust_10="40.96275"></scales>
<clustering>
<clus scale="   27.175">  1  9  2 -1</clus>
<clus scale="   40.963">  2 10  1 -1</clus>
<clus scale="   86.224">  7  8 -1 -1</clus>
<clus scale="   91.858">  5  6 -1 -1</clus>
<clus scale="   94.989">  1  7  2 -1</clus>
<clus scale="   40.963">  2  5  1 -1</clus>
</clustering>
</event>
<event>
10    2  0.1133532E-006  0.1280530E+03  0.7546771E-02  0.1230731E+00
         -1   -1    0    0    0  501 -0.00000000000E+00  0.00000000000E+00  0.37918555456E+03  0.37918555456E+03  0.00000000000E+00 0.  1.
          1   -1    0    0  503    0  0.00000000000E+00 -0.00000000000E+00 -0.40935112143E+03  0.40935112143E+03  0.00000000000E+00 0. -1.
         23    2    1    2    0    0 -0.11431176378E+03  0.60711977380E+01  0.28014480897E+03  0.31573262580E+03  0.90010767252E+02 0.  0.
         23    2    1    2    0    0  0.85176075271E+02  0.69325637259E+02 -0.29046418494E+03  0.32368551594E+03  0.91333798342E+02 0.  0.
        -11    1    4    4    0    0 -0.12715024740E+02  0.17763802330E+02 -0.10887630571E+03  0.11104627177E+03  0.00000000000E+00 0.  1.
         11    1    4    4    0    0  0.97891100011E+02  0.51561834929E+02 -0.18158787922E+03  0.21263924418E+03  0.00000000000E+00 0. -1.
        -13    1    3    3    0    0 -0.46163242429E+02 -0.30518246018E+02  0.18507485559E+03  0.19317119471E+03  0.00000000000E+00 0.  1.
         13    1    3    3    0    0 -0.68148521349E+02  0.36589443756E+02  0.95069953376E+02  0.12256143109E+03  0.00000000000E+00 0. -1.
         21    1    1    2  502  501  0.27583496510E+02 -0.16213737222E+02  0.48872195310E+02  0.58414262204E+02  0.00000000000E+00 0.  1.
         21    1    1    2  503  502  0.15521919963E+01 -0.59183097775E+02 -0.68718386221E+02  0.90704272044E+02  0.00000000000E+00 0.  1.
<scales pt_clust_5="13000.00000" pt_clust_6="13000.00000" pt_clust_7="13000.00000" pt_clust_8="13000.00000" pt_clust_9="31.99585" pt_clust_10="59.78222"></scales>
<clustering>
<clus scale="   31.996">  1  9  2 -1</clus>
<clus scale="   59.782">  2 10  1 -1</clus>
<clus scale="   90.011">  7  8 -1 -1</clus>
<clus scale="   91.334">  5  6 -1 -1</clus>
<clus scale="  127.113">  1  7  2 -1</clus>
<clus scale="   59.782">  2  5  1 -1</clus>
</clustering>
</event>
<event>
10    2  0.1133532E-006  0.1113708E+03  0.7546771E-02  0.1258915E+00
          3   -1    0    0  503    0  0.00000000000E+00  0.00000000000E+00  0.19427939314E+03  0.19427939314E+03  0.00000000000E+00 0. -1.
         -3   -1    0    0    0  501 -0.00000000000E+00 -0.00000000000E+00 -0.15655209511E+03  0.15655209511E+03  0.00000000000E+00 0.  1.
         23    2    1    2    0    0 -0.44968636611E+01  0.42768575683E+02 -0.82437969632E+01  0.10246363633E+03  0.92636190191E+02 0.  0.
         23    2    1    2    0    0  0.16662065118E+02 -0.89460763810E+02  0.17224000443E+02  0.12939975824E+03  0.90370230526E+02 0.  0.
        -13    1    4    4    0    0 -0.67821859096E+01 -0.28985714598E+02  0.48876337056E+02  0.57228192532E+02  0.00000000000E+00 0. -1.
         13    1    4    4    0    0  0.23444251028E+02 -0.60475049212E+02 -0.31652336612E+02  0.72171565706E+02  0.00000000000E+00 0.  1.
        -13    1    3    3    0    0  0.17208512451E+02 -0.23699573328E+02  0.86315689005E+01  0.30533697097E+02  0.00000000000E+00 0.  1.
         13    1    3    3    0    0 -0.21705376112E+02  0.66468149012E+02 -0.16875365864E+02  0.71929939234E+02  0.00000000000E+00 0. -1.
         21    1    1    2  502  501  0.35755261294E+02 -0.48713524352E+00 -0.14963208612E+02  0.38763044552E+02  0.00000000000E+00 0. -1.
         21    1    1    2  503  502 -0.47920462752E+02  0.47179323370E+02  0.43710303158E+02  0.80205049132E+02  0.00000000000E+00 0. -1.
<scales pt_clust_5="13000.00000" pt_clust_6="13000.00000" pt_clust_7="13000.00000" pt_clust_8="13000.00000" pt_clust_9="35.75858" pt_clust_10="63.70988"></scales>
<clustering>
<clus scale="   35.759">  2  9  1 -1</clus>
<clus scale="   63.710">  1 10  2 -1</clus>
<clus scale="   90.370">  5  6 -1 -1</clus>
<clus scale="   92.636">  7  8 -1 -1</clus>
<clus scale="  109.493">  1  5  2 -1</clus>
<clus scale="   63.710">  1  5  2 -1</clus>
</clustering>
</event>
<event>
10    2  0.1133532E-006  0.1062480E+03  0.7546771E-02  0.1268287E+00
         -1   -1    0    0    0  501 -0.00000000000E+00  0.00000000000E+00  0.13066329116E+03  0.13066329116E+03  0.00000000000E+00 0.  1.
          1   -1    0    0  503    0  0.00000000000E+00 -0.00000000000E+00 -0.35302146895E+03  0.35302146895E+03  0.00000000000E+00 0. -1.
         23    2    1    2    0    0  0.31833084887E+02  0.50491771617E+02 -0.25967196438E+02  0.11126505834E+03  0.90237761621E+02 0.  0.
         23    2    1    2    0    0 -0.45524597404E+02 -0.35311847017E+00 -0.20117565875E+03  0.22572062187E+03  0.91681731025E+02 0.  0.
        -13    1    4    4    0    0 -0.19917259050E+02  0.37754833627E+02 -0.41346423818E+02  0.59427699205E+02  0.00000000000E+00 0.  1.
         13    1    4    4    0    0 -0.25607338354E+02 -0.38107952097E+02 -0.15982923493E+03  0.16629292267E+03  0.00000000000E+00 0. -1.
        -13    1    3    3    0    0  0.62528925563E+02  0.38494404685E+02 -0.83682969241E+01  0.73903410730E+02  0.00000000000E+00 0.  1.
         13    1    3    3    0    0 -0.30695840676E+02  0.11997366932E+02 -0.17598899514E+02  0.37361647611E+02  0.00000000000E+00 0. -1.
         21    1    1    2  502  501  0.23470429259E+02 -0.22649741330E+02  0.68914808767E+02  0.76243837123E+02  0.00000000000E+00 0.  1.
         21    1    1    2  503  502 -0.97789167419E+01 -0.27488911817E+02 -0.64130131368E+02  0.70455242777E+02  0.00000000000E+00 0. -1.
<scales pt_clust_5="13000.00000" pt_clust_6="13000.00000" pt_clust_7="13000.00000" pt_clust_8="13000.00000" pt_clust_9="32.77339" pt_clust_10="29.17649"></scales>
<clustering>
<clus scale="   29.176">  2 10  1 -1</clus>
<clus scale="   32.773">  1  9  2 -1</clus>
<clus scale="   90.238">  7  8 -1 -1</clus>
<clus scale="   91.682">  5  6 -1 -1</clus>
<clus scale="  105.005">  1  7  2 -1</clus>
<clus scale="   29.176">  2  5  1 -1</clus>
</clustering>
</event>
<event>
10    2  0.1133532E-006  0.2270716E+03  0.7546771E-02  0.1128785E+00
          1   -1    0    0  503    0  0.00000000000E+00  0.00000000000E+00  0.45086637231E+03  0.45086637231E+03  0.00000000000E+00 0. -1.
         -1   -1    0    0    0  501 -0.00000000000E+00 -0.00000000000E+00 -0.19083375604E+03  0.19083375604E+03  0.00000000000E+00 0.  1.
         23    2    1    2    0    0 -0.10196739785E+03 -0.18081398160E+03 -0.21262560890E+02  0.22795363116E+03  0.91759006629E+02 0.  0.
         23    2    1    2    0    0  0.99922991023E+02  0.16215329630E+03  0.23053437214E+03  0.31307156021E+03  0.92679066862E+02 0.  0.
        -11    1    3    3    0    0 -0.28766988460E+02 -0.19805618830E+02 -0.36392855336E+02  0.50440480586E+02  0.00000000000E+00 0. -1.
         11    1    3    3    0    0 -0.73200409387E+02 -0.16100836277E+03  0.15130294447E+02  0.17751315057E+03  0.00000000000E+00 0.  1.
        -13    1    4    4    0    0  0.26457034597E+02 -0.37789939706E+01  0.52195474270E+02  0.58639773272E+02  0.00000000000E+00 0.  1.
         13    1    4    4    0    0  0.73465956426E+02  0.16593229027E+03  0.17833889788E+03  0.25443178694E+03  0.00000000000E+00 0. -1.
         21    1    1    2  502  501  0.10291313521E+02 -0.18416939344E+02 -0.14195255727E+02  0.25428332111E+02  0.00000000000E+00 0.  1.
         21    1    1    2  503  502 -0.82469066976E+01  0.37077624641E+02  0.64956060734E+02  0.75246604875E+02  0.00000000000E+00 0.  1.
<scales pt_clust_5="13000.00000" pt_clust_6="13000.00000" pt_clust_7="13000.00000" pt_clust_8="13000.00000" pt_clust_9="21.09727" pt_clust_10="37.37606"></scales>
<clustering>
<clus scale="   21.097">  2  9  1 -1</clus>
<clus scale="   37.376">  1 10  2 -1</clus>
<clus scale="   91.759">  5  6 -1 -1</clus>
<clus scale="   92.679">  7  8 -1 -1</clus>
<clus scale="  226.698">  2  5  1 -1</clus>
<clus scale="   37.376">  1  5  2 -1</clus>
</clustering>
</event>
<event>
10    2  0.1133532E-006  0.9807513E+02  0.7546771E-02  0.1284418E+00
         -1   -1    0    0    0  501 -0.00000000000E+00  0.00000000000E+00  0.36341263915E+03  0.36341263915E+03  0.00000000000E+00 0.  1.
          1   -1    0    0  502    0  0.00000000000E+00 -0.00000000000E+00 -0.15698675547E+03  0.15698675547E+03  0.00000000000E+00 0. -1.
         23    2    1    2    0    0  0.99707188890E+01 -0.44354506084E+02  0.30420538934E+02  0.10577621111E+03  0.90534304012E+02 0.  0.
         23    2    1    2    0    0 -0.30569754950E+02  0.22203246037E+02 -0.89236043441E+02  0.13264614886E+03  0.90578337958E+02 0.  0.
        -11    1    4    4    0    0 -0.48058700028E+00  0.51096465481E+02 -0.27195092461E+02  0.57884823593E+02  0.00000000000E+00 0. -1.
         11    1    4    4    0    0 -0.30089167950E+02 -0.28893219443E+02 -0.62040950980E+02  0.74761325271E+02  0.00000000000E+00 0.  1.
        -11    1    3    3    0    0  0.93805127997E+01  0.26916594728E+02  0.17185626163E+02  0.33284273144E+02  0.00000000000E+00 0. -1.
         11    1    3    3    0    0  0.59020608930E+00 -0.71271100812E+02  0.13234912771E+02  0.72491937967E+02  0.00000000000E+00 0.  1.
         21    1    1    2  502  503  0.40388028791E+02  0.12683281291E+02  0.25366409904E+03  0.25717218675E+03  0.00000000000E+00 0.  1.
         21    1    1    2  503  501 -0.19788992729E+02  0.94679787564E+01  0.11577289148E+02  0.24804847893E+02  0.00000000000E+00 0. -1.
<scales pt_clust_5="13000.00000" pt_clust_6="13000.00000" pt_clust_7="13000.00000" pt_clust_8="13000.00000" pt_clust_9="32.41185" pt_clust_10="21.93734"></scales>
<clustering>
<clus scale="   21.937">  1 10  2 -1</clus>
<clus scale="   32.412">  1  9  2 -1</clus>
<clus scale="   90.534">  7  8 -1 -1</clus>
<clus scale="   90.578">  5  6 -1 -1</clus>
<clus scale="   98.034">  1  7  2 -1</clus>
<clus scale="   98.075">  2  5  1 -1</clus>
</clustering>
</event>
<event>
10    2  0.1133532E-006  0.2798923E+03  0.7546771E-02  0.1096005E+00
         -2   -1    0    0    0  501 -0.00000000000E+00  0.00000000000E+00  0.21672143858E+03  0.21672143858E+03  0.00000000000E+00 0.  1.
          2   -1    0    0  503    0  0.00000000000E+00 -0.00000000000E+00 -0.67364936946E+03  0.67364936946E+03  0.00000000000E+00 0. -1.
         23    2    1    2    0    0 -0.16717968984E+03  0.12556916587E+03 -0.13814331654E+02  0.23054398530E+03  0.96140674477E+02 0.  0.
         23    2    1    2    0    0  0.18548451319E+03 -0.24752190369E+03 -0.36205964018E+03  0.48472335427E+03  0.90542529693E+02 0.  0.
        -11    1    3    3    0    0 -0.16876184015E+02 -0.13818028363E+02 -0.13317370143E+02  0.25555739909E+02  0.00000000000E+00 0. -1.
         11    1    3    3    0    0 -0.15030350582E+03  0.13938719424E+03 -0.49696151010E+00  0.20498824539E+03  0.00000000000E+00 0.  1.
        -11    1    4    4    0    0  0.12611515268E+03 -0.17593644171E+03 -0.31013282683E+03  0.37820765928E+03  0.00000000000E+00 0. -1.
         11    1    4    4    0    0  0.59369360515E+02 -0.71585461978E+02 -0.51926813350E+02  0.10651569499E+03  0.00000000000E+00 0.  1.
         21    1    1    2  502  501 -0.12016076703E+02  0.91063365101E+02 -0.41010002882E+01  0.91944226389E+02  0.00000000000E+00 0.  1.
         21    1    1    2  503  502 -0.62887466520E+01  0.30889372715E+02 -0.76952958758E+02  0.83159242077E+02  0.00000000000E+00 0.  1.
<scales pt_clust_5="13000.00000" pt_clust_6="13000.00000" pt_clust_7="13000.00000" pt_clust_8="13000.00000" pt_clust_9="94.39697" pt_clust_10="31.52303"></scales>
<clustering>
<clus scale="   31.523">  2 10  1 -1</clus>
<clus scale="   90.543">  7  8 -1 -1</clus>
<clus scale="   94.397">  1  9  2 -1</clus>
<clus scale="   96.141">  5  6 -1 -1</clus>
<clus scale="  278.019">  2  7  1 -1</clus>
<clus scale="   31.523">  2  5  1 -1</clus>
</clustering>
</event>
<event>
10    2  0.1133532E-006  0.1097642E+03  0.7546771E-02  0.1263552E+00
          1   -1    0    0  503    0  0.00000000000E+00  0.00000000000E+00  0.73237766188E+03  0.73237766188E+03  0.00000000000E+00 0. -1.
         -1   -1    0    0    0  501 -0.00000000000E+00 -0.00000000000E+00 -0.35369660264E+02  0.35369660264E+02  0.00000000000E+00 0.  1.
         23    2    1    2    0    0  0.30455453499E+02  0.22024726743E+02  0.14253786336E+03  0.17493756707E+03  0.94199186007E+02 0.  0.
         23    2    1    2    0    0 -0.25321303369E+02 -0.28600050059E+02  0.33730688127E+03  0.35390884986E+03  0.10008201934E+03 0.  0.
        -13    1    4    4    0    0  0.38612142835E+02 -0.73866253619E+01  0.14032938845E+03  0.14573193566E+03  0.00000000000E+00 0.  1.
         13    1    4    4    0    0 -0.63933446204E+02 -0.21213424697E+02  0.19697749281E+03  0.20817691420E+03  0.00000000000E+00 0. -1.
        -13    1    3    3    0    0  0.64602942686E+02  0.16109317790E+02  0.98650749566E+02  0.11901689255E+03  0.00000000000E+00 0.  1.
         13    1    3    3    0    0 -0.34147489187E+02  0.59154089531E+01  0.43887113794E+02  0.55920674513E+02  0.00000000000E+00 0. -1.
         21    1    1    2  502  501  0.30103532977E+02  0.63500768511E+01  0.16006092756E+02  0.34680559093E+02  0.00000000000E+00 0. -1.
         21    1    1    2  503  502 -0.35237683107E+02  0.22524646470E+00  0.20115716423E+03  0.20422034612E+03  0.00000000000E+00 0. -1.
<scales pt_clust_5="13000.00000" pt_clust_6="13000.00000" pt_clust_7="13000.00000" pt_clust_8="13000.00000" pt_clust_9="30.76599" pt_clust_10="33.47193"></scales>
<clustering>
<clus scale="   30.766">  2  9  1 -1</clus>
<clus scale="   33.472">  1 10  2 -1</clus>
<clus scale="   94.199">  7  8 -1 -1</clus>
<clus scale="  100.082">  5  6 -1 -1</clus>
<clus scale="  104.428">  2  7  1 -1</clus>
<clus scale="   33.472">  1  5  2 -1</clus>
</clustering>
</event>
<event>
10    2  0.1133532E-006  0.1188814E+03  0.7546771E-02  0.1245569E+00
          1   -1    0    0  503    0  0.00000000000E+00  0.00000000000E+00  0.31925548439E+03  0.31925548439E+03  0.00000000000E+00 0. -1.
         -1   -1    0    0    0  501 -0.00000000000E+00 -0.00000000000E+00 -0.96535159546E+02  0.96535159546E+02  0.00000000000E+00 0.  1.
         23    2    1    2    0    0  0.50262712540E+02 -0.64941693773E+02  0.36918363618E+02  0.12834518894E+03  0.91464518199E+02 0.  0.
         23    2    1    2    0    0 -0.18581558822E+02  0.78411402584E+02  0.75183279379E+02  0.14200651973E+03  0.89552798744E+02 0.  0.
        -11    1    4    4    0    0  0.26435908431E+02 -0.12165112811E+01  0.55345539327E+01  0.27036428046E+02  0.00000000000E+00 0.  1.
         11    1    4    4    0    0 -0.45017467253E+02  0.79627913865E+02  0.69648725446E+02  0.11497009168E+03  0.00000000000E+00 0. -1.
        -11    1    3    3    0    0  0.54100336330E+02 -0.10528133471E+02 -0.10453731962E+02  0.56097847529E+02  0.00000000000E+00 0.  1.
         11    1    3    3    0    0 -0.38376237901E+01 -0.54413560302E+02  0.47372095580E+02  0.72247341410E+02  0.00000000000E+00 0. -1.
         21    1    1    2  502  501 -0.30340142117E+02  0.88976504846E+01 -0.96003983457E+00  0.31632484637E+02  0.00000000000E+00 0. -1.
         21    1    1    2  503  502 -0.13410116009E+01 -0.22367359296E+02  0.11157872168E+03  0.11380645063E+03  0.00000000000E+00 0. -1.
<scales pt_clust_5="13000.00000" pt_clust_6="13000.00000" pt_clust_7="13000.00000" pt_clust_8="13000.00000" pt_clust_9="31.28817" pt_clust_10="22.40752"></scales>
<clustering>
<clus scale="   22.408">  1 10  2 -1</clus>
<clus scale="   31.288">  2  9  1 -1</clus>
<clus scale="   89.553">  5  6 -1 -1</clus>
<clus scale="   91.465">  7  8 -1 -1</clus>
<clus scale="  117.417">  1  5  2 -1</clus>
<clus scale="   22.408">  1  5  2 -1</clus>
</clustering>
</event>
<event>
10    2  0.1133532E-006  0.1645307E+03  0.7546771E-02  0.1184629E+00
         -2   -1    0    0    0  501 -0.00000000000E+00  0.00000000000E+00  0.81017327816E+02  0.81017327816E+02  0.00000000000E+00 0.  1.
          2   -1    0    0  503    0  0.00000000000E+00 -0.00000000000E+00 -0.88276614787E+03  0.88276614787E+03  0.00000000000E+00 0. -1.
         23    2    1    2    0    0  0.34088435302E+02 -0.15534107992E+03 -0.11852569474E+03  0.21830512249E+03  0.91191631531E+02 0.  0.
         23    2    1    2    0    0 -0.30569901885E+02  0.83291579366E+02 -0.47360639333E+03  0.49154874986E+03  0.97186169770E+02 0.  0.
        -11    1    3    3    0    0 -0.30595615503E+02 -0.43518521511E+02 -0.44906886894E+02  0.69617396483E+02  0.00000000000E+00 0.  1.
         11    1    3    3    0    0  0.64684050805E+02 -0.11182255841E+03 -0.73618807845E+02  0.14868772601E+03  0.00000000000E+00 0. -1.
        -11    1    4    4    0    0 -0.33537866487E+02  0.10452797445E+03 -0.38155571018E+03  0.39703355766E+03  0.00000000000E+00 0.  1.
         11    1    4    4    0    0  0.29679646019E+01 -0.21236395087E+02 -0.92050683146E+02  0.94515192206E+02  0.00000000000E+00 0. -1.
         21    1    1    2  502  501  0.30562428970E+02  0.25420449077E+02 -0.35371346188E+01  0.39909555462E+02  0.00000000000E+00 0. -1.
         21    1    1    2  503  502 -0.34080962387E+02  0.46629051475E+02 -0.20607959737E+03  0.21402004787E+03  0.00000000000E+00 0.  1.
<scales pt_clust_5="13000.00000" pt_clust_6="13000.00000" pt_clust_7="13000.00000" pt_clust_8="13000.00000" pt_clust_9="39.75250" pt_clust_10="57.96771"></scales>
<clustering>
<clus scale="   39.753">  1  9  2 -1</clus>
<clus scale="   57.968">  2 10  1 -1</clus>
<clus scale="   91.192">  5  6 -1 -1</clus>
<clus scale="   97.186">  7  8 -1 -1</clus>
<clus scale="  161.062">  1  5  2 -1</clus>
<clus scale="   57.968">  2  5  1 -1</clus>
</clustering>
</event>
<event>
10    2  0.1133532E-006  0.1123306E+03  0.7546771E-02  0.1256922E+00
          1   -1    0    0  503    0  0.00000000000E+00  0.00000000000E+00  0.72306256230E+02  0.72306256230E+02  0.00000000000E+00 0. -1.
         -1   -1    0    0    0  501 -0.00000000000E+00 -0.00000000000E+00 -0.49818418306E+03  0.49818418306E+03  0.00000000000E+00 0.  1.
         23    2    1    2    0    0 -0.65095757084E+01  0.55589319009E+02 -0.14856095600E+03  0.18283706785E+03  0.90699993218E+02 0.  0.
         23    2    1    2    0    0  0.57276663627E+02 -0.68920432519E+02 -0.79390920818E+02  0.15119367164E+03  0.92336156627E+02 0.  0.
        -11    1    3    3    0    0  0.11063859758E+02  0.26228320434E+02  0.19042631243E+01  0.28529984290E+02  0.00000000000E+00 0. -1.
         11    1    3    3    0    0 -0.17573435467E+02  0.29360998575E+02 -0.15046521913E+03  0.15430708356E+03  0.00000000000E+00 0.  1.
        -13    1    4    4    0    0  0.40818259938E+02  0.14402760492E+02 -0.20884982220E+02  0.48059882818E+02  0.00000000000E+00 0. -1.
         13    1    4    4    0    0  0.16458403689E+02 -0.83323193011E+02 -0.58505938597E+02  0.10313378882E+03  0.00000000000E+00 0.  1.
         21    1    1    2  502  501 -0.46988186563E+02 -0.29242468932E+02 -0.18300261621E+03  0.19118830823E+03  0.00000000000E+00 0.  1.
         21    1    1    2  503  502 -0.37789013559E+01  0.42573582442E+02 -0.14923433798E+02  0.45271391559E+02  0.00000000000E+00 0.  1.
<scales pt_clust_5="13000.00000" pt_clust_6="13000.00000" pt_clust_7="13000.00000" pt_clust_8="13000.00000" pt_clust_9="54.03198" pt_clust_10="42.74096"></scales>
<clustering>
<clus scale="   42.741">  1 10  2 -1</clus>
<clus scale="   54.032">  2  9  1 -1</clus>
<clus scale="   90.700">  5  6 -1 -1</clus>
<clus scale="   92.336">  7  8 -1 -1</clus>
<clus scale="  110.990">  2  5  1 -1</clus>
<clus scale="   42.741">  1  5  2 -1</clus>
</clustering>
</event>
<event>
10    2  0.1133532E-006  0.1127563E+03  0.7546771E-02  0.1256169E+00
         -2   -1    0    0    0  501 -0.00000000000E+00  0.00000000000E+00  0.19942665817E+03  0.19942665817E+03  0.00000000000E+00 0.  1.
          2   -1    0    0  503    0  0.00000000000E+00 -0.00000000000E+00 -0.18984560947E+03  0.18984560947E+03  0.00000000000E+00 0. -1.
         23    2    1    2    0    0  0.56374339131E+02  0.43042141619E+02  0.23766175044E+02  0.11858745956E+03  0.92018815578E+02 0.  0.
         23    2    1    2    0    0 -0.63834675184E+02 -0.28959875136E+02 -0.21662220829E+02  0.11637118573E+03  0.90329734494E+02 0.  0.
        -13    1    3    3    0    0  0.73983910540E+02  0.23093109886E+02 -0.71070455896E+01  0.77829434278E+02  0.00000000000E+00 0. -1.
         13    1    3    3    0    0 -0.17609571410E+02  0.19949031733E+02  0.30873220633E+02  0.40758025279E+02  0.00000000000E+00 0.  1.
        -13    1    4    4    0    0 -0.85784178540E+02 -0.27229789992E+02 -0.26512091534E+02  0.93825784027E+02  0.00000000000E+00 0.  1.
         13    1    4    4    0    0  0.21949503356E+02 -0.17300851438E+01  0.48498707048E+01  0.22545401705E+02  0.00000000000E+00 0. -1.
         21    1    1    2  502  501 -0.73668248291E+01 -0.30599676081E+02  0.76013885056E+02  0.82272237150E+02  0.00000000000E+00 0. -1.
         21    1    1    2  503  502  0.14827160883E+02  0.16517409597E+02 -0.68536790567E+02  0.72041385196E+02  0.00000000000E+00 0.  1.
<scales pt_clust_5="13000.00000" pt_clust_6="13000.00000" pt_clust_7="13000.00000" pt_clust_8="13000.00000" pt_clust_9="30.96406" pt_clust_10="22.19616"></scales>
<clustering>
<clus scale="   22.196">  2 10  1 -1</clus>
<clus scale="   30.964">  1  9  2 -1</clus>
<clus scale="   90.330">  7  8 -1 -1</clus>
<clus scale="   92.019">  5  6 -1 -1</clus>
<clus scale="  111.382">  2  7  1 -1</clus>
<clus scale="   22.196">  2  5  1 -1</clus>
</clustering>
</event>
<event>
10    2  0.1133532E-006  0.1043930E+03  0.7546771E-02  0.1271473E+00
          1   -1    0    0  503    0  0.00000000000E+00  0.00000000000E+00  0.40460630414E+03  0.40460630414E+03  0.00000000000E+00 0. -1.
         -1   -1    0    0    0  501 -0.00000000000E+00 -0.00000000000E+00 -0.25780843816E+03  0.25780843816E+03  0.00000000000E+00 0.  1.
         23    2    1    2    0    0  0.98234923100E+02 -0.23302517380E+02  0.12043832681E+03  0.18135201560E+03  0.90498925755E+02 0.  0.
         23    2    1    2    0    0 -0.27148795275E+02  0.80983705418E+01  0.15613782596E+03  0.18250391181E+03  0.90144419911E+02 0.  0.
        -11    1    3    3    0    0  0.77534768200E+02 -0.56442789076E+02  0.93130113428E+02  0.13368113833E+03  0.00000000000E+00 0.  1.
         11    1    3    3    0    0  0.20700154899E+02  0.33140271696E+02  0.27308213382E+02  0.47670877263E+02  0.00000000000E+00 0. -1.
        -13    1    4    4    0    0 -0.50798193684E+02 -0.19502593389E+02  0.67484605095E+02  0.86688981741E+02  0.00000000000E+00 0.  1.
         13    1    4    4    0    0  0.23649398408E+02  0.27600963930E+02  0.88653220864E+02  0.95814930071E+02  0.00000000000E+00 0. -1.
         21    1    1    2  502  501 -0.64206392988E+02  0.33988634794E+02 -0.20669135879E+03  0.21908675449E+03  0.00000000000E+00 0.  1.
         21    1    1    2  503  502 -0.68797348365E+01 -0.18784487956E+02  0.76913072002E+02  0.79472060398E+02  0.00000000000E+00 0.  1.
<scales pt_clust_5="13000.00000" pt_clust_6="13000.00000" pt_clust_7="13000.00000" pt_clust_8="13000.00000" pt_clust_9="72.59726" pt_clust_10="20.00469"></scales>
<clustering>
<clus scale="   20.005">  1 10  2 -1</clus>
<clus scale="   72.597">  2  9  1 -1</clus>
<clus scale="   90.144">  7  8 -1 -1</clus>
<clus scale="   90.499">  5  6 -1 -1</clus>
<clus scale="  104.086">  1  7  2 -1</clus>
<clus scale="   20.005">  1  5  2 -1</clus>
</clustering>
</event>
<event>
10    2  0.1133532E-006  0.1006311E+03  0.7546771E-02  0.1286744E+00
         -1   -1    0    0    0  501 -0.00000000000E+00  0.00000000000E+00  0.22182588150E+03  0.22182588150E+03  0.00000000000E+00 0.  1.
          1   -1    0    0  503    0  0.00000000000E+00 -0.00000000000E+00 -0.37639736046E+03  0.37639736046E+03  0.00000000000E+00 0. -1.
         23    2    1    2    0    0  0.14745132011E+01  0.46019524384E+02  0.67049665735E+02  0.12913984578E+03  0.10030688550E+03 0.  0.
         23    2    1    2    0    0 -0.67568506363E+01 -0.67822050186E+01 -0.26434790832E+03  0.27829958479E+03  0.86482304129E+02 0.  0.
        -11    1    4    4    0    0  0.10830166435E+02  0.33246570639E+02 -0.17923214767E+03  0.18261103396E+03  0.00000000000E+00 0. -1.
         11    1    4    4    0    0 -0.17587017072E+02 -0.40028775657E+02 -0.85115760644E+02  0.95688550831E+02  0.00000000000E+00 0.  1.
        -11    1    3    3    0    0  0.31871065657E+02  0.38085478488E+02  0.80804723265E+02  0.94845515444E+02  0.00000000000E+00 0.  1.
         11    1    3    3    0    0 -0.30396552456E+02  0.79340458967E+01 -0.13755057530E+02  0.34294330336E+02  0.00000000000E+00 0. -1.
         21    1    1    2  502  501 -0.12501799861E+02 -0.49734392258E+02  0.10948747613E+03  0.12090207692E+03  0.00000000000E+00 0.  1.
         21    1    1    2  503  502  0.17784137297E+02  0.10497072892E+02 -0.66760712512E+02  0.69881734479E+02  0.00000000000E+00 0.  1.
<scales pt_clust_5="13000.00000" pt_clust_6="13000.00000" pt_clust_7="13000.00000" pt_clust_8="13000.00000" pt_clust_9="51.01343" pt_clust_10="20.65101"></scales>
<clustering>
<clus scale="   20.651">  2 10  1 -1</clus>
<clus scale="   51.013">  1  9  2 -1</clus>
<clus scale="   86.482">  5  6 -1 -1</clus>
<clus scale="   86.858">  2  5  1 -1</clus>
<clus scale="  100.307">  7  8 -1 -1</clus>
<clus scale="   20.651">  2  5  1 -1</clus>
</clustering>
</event>
<event>
10    2  0.1133532E-006  0.1262260E+03  0.7546771E-02  0.1234611E+00
          1   -1    0    0  503    0  0.00000000000E+00  0.00000000000E+00  0.55815609187E+03  0.55815609187E+03  0.00000000000E+00 0. -1.
         -1   -1    0    0    0  501 -0.00000000000E+00 -0.00000000000E+00 -0.75436470144E+02  0.75436470144E+02  0.00000000000E+00 0.  1.
         23    2    1    2    0    0  0.20671167200E+02 -0.49070372420E+02  0.64518340532E+02  0.12306365600E+03  0.90259894523E+02 0.  0.
         23    2    1    2    0    0 -0.32454433334E+02  0.14234535856E+03  0.24600731119E+03  0.30149525531E+03  0.95206619897E+02 0.  0.
        -11    1    3    3    0    0 -0.26996218758E+02  0.29394311530E+01  0.40056598165E+02  0.48393875018E+02  0.00000000000E+00 0. -1.
         11    1    3    3    0    0  0.47667385958E+02 -0.52009803573E+02  0.24461742368E+02  0.74669780979E+02  0.00000000000E+00 0.  1.
        -13    1    4    4    0    0  0.29559880439E+02  0.16139275282E+02  0.47577673245E+02  0.58291489342E+02  0.00000000000E+00 0. -1.
         13    1    4    4    0    0 -0.62014313773E+02  0.12620608328E+03  0.19842963794E+03  0.24320376597E+03  0.00000000000E+00 0.  1.
         21    1    1    2  502  501  0.18562286672E+02 -0.95312969442E+01  0.43200943375E+01  0.21308855507E+02  0.00000000000E+00 0. -1.
         21    1    1    2  503  502 -0.67790205383E+01 -0.83743689195E+02  0.16787387567E+03  0.18772479519E+03  0.00000000000E+00 0. -1.
<scales pt_clust_5="13000.00000" pt_clust_6="13000.00000" pt_clust_7="13000.00000" pt_clust_8="13000.00000" pt_clust_9="20.86634" pt_clust_10="85.25204"></scales>
<clustering>
<clus scale="   20.866">  2  9  1 -1</clus>
<clus scale="   85.252">  1 10  2 -1</clus>
<clus scale="   90.260">  5  6 -1 -1</clus>
<clus scale="   95.207">  7  8 -1 -1</clus>
<clus scale="  122.538">  2  5  1 -1</clus>
<clus scale="   85.252">  1  5  2 -1</clus>
</clustering>
</event>
<event>
10    2  0.1133532E-006  0.1111852E+03  0.7546771E-02  0.1258525E+00
         -2   -1    0    0    0  501 -0.00000000000E+00  0.00000000000E+00  0.12010886405E+03  0.12010886405E+03  0.00000000000E+00 0.  1.
          2   -1    0    0  503    0  0.00000000000E+00 -0.00000000000E+00 -0.32112838650E+03  0.32112838650E+03  0.00000000000E+00 0. -1.
         23    2    1    2    0    0  0.19161713929E+02  0.54023314653E+02 -0.70647894828E+02  0.12874270593E+03  0.91092642297E+02 0.  0.
         23    2    1    2    0    0 -0.34640750149E+02 -0.57178280427E+02 -0.14733004921E+03  0.18549429341E+03  0.90733963675E+02 0.  0.
        -11    1    3    3    0    0 -0.17057459492E+02 -0.16846122391E+02 -0.32762903380E+02  0.40597495019E+02  0.00000000000E+00 0.  1.
         11    1    3    3    0    0  0.36219173421E+02  0.70869437044E+02 -0.37884991449E+02  0.88145210915E+02  0.00000000000E+00 0. -1.
        -13    1    4    4    0    0 -0.28316175487E+02 -0.79133724599E+02 -0.86926568093E+02  0.12091393800E+03  0.00000000000E+00 0.  1.
         13    1    4    4    0    0 -0.63245746616E+01  0.21955444172E+02 -0.60403481114E+02  0.64580355404E+02  0.00000000000E+00 0. -1.
         21    1    1    2  502  501  0.49263221415E+02 -0.70734782745E+01  0.55628619816E+02  0.74642095508E+02  0.00000000000E+00 0.  1.
         21    1    1    2  503  502 -0.33784185196E+02  0.10228444049E+02 -0.38670198235E+02  0.52358155702E+02  0.00000000000E+00 0. -1.
<scales pt_clust_5="13000.00000" pt_clust_6="13000.00000" pt_clust_7="13000.00000" pt_clust_8="13000.00000" pt_clust_9="48.56517" pt_clust_10="35.29862"></scales>
<clustering>
<clus scale="   35.299">  2 10  1 -1</clus>
<clus scale="   48.565">  1  9  2 -1</clus>
<clus scale="   90.734">  7  8 -1 -1</clus>
<clus scale="   91.093">  5  6 -1 -1</clus>
<clus scale="  110.891">  2  7  1 -1</clus>
<clus scale="   35.299">  2  5  1 -1</clus>
</clustering>
</event>
<event>
10    2  0.1133532E-006  0.1514578E+03  0.7546771E-02  0.1198825E+00
         -1   -1    0    0    0  501 -0.00000000000E+00  0.00000000000E+00  0.85819139638E+02  0.85819139638E+02  0.00000000000E+00 0.  1.
          1   -1    0    0  503    0  0.00000000000E+00 -0.00000000000E+00 -0.50591428292E+03  0.50591428292E+03  0.00000000000E+00 0. -1.
         23    2    1    2    0    0  0.48319266494E+02  0.13532097019E+03 -0.12505195624E+03  0.21130572628E+03  0.91463663341E+02 0.  0.
         23    2    1    2    0    0 -0.39902007196E+02 -0.94419706301E+02 -0.18731322895E+03  0.23200703287E+03  0.90740103846E+02 0.  0.
        -11    1    3    3    0    0 -0.24814335193E+02  0.25633167279E+02 -0.12009423871E+02  0.37643548684E+02  0.00000000000E+00 0. -1.
         11    1    3    3    0    0  0.73133601687E+02  0.10968780291E+03 -0.11304253237E+03  0.17366217759E+03  0.00000000000E+00 0.  1.
        -11    1    4    4    0    0 -0.56443140420E+02 -0.21460018303E+02 -0.10204083116E+03  0.11856935401E+03  0.00000000000E+00 0.  1.
         11    1    4    4    0    0  0.16541133224E+02 -0.72959687997E+02 -0.85272397790E+02  0.11343767886E+03  0.00000000000E+00 0. -1.
         21    1    1    2  502  501 -0.16881063557E+02 -0.21500996407E+02  0.97699561864E+01  0.29029557303E+02  0.00000000000E+00 0. -1.
         21    1    1    2  503  502  0.84638042590E+01 -0.19400267483E+02 -0.11749991428E+03  0.11939110610E+03  0.00000000000E+00 0.  1.
<scales pt_clust_5="13000.00000" pt_clust_6="13000.00000" pt_clust_7="13000.00000" pt_clust_8="13000.00000" pt_clust_9="27.58934" pt_clust_10="21.16616"></scales>
<clustering>
<clus scale="   21.166">  2 10  1 -1</clus>
<clus scale="   27.589">  1  9  2 -1</clus>
<clus scale="   90.740">  7  8 -1 -1</clus>
<clus scale="   91.464">  5  6 -1 -1</clus>
<clus scale="  151.022">  2  7  1 -1</clus>
<clus scale="   21.166">  2  5  1 -1</clus>
</clustering>
</event>
<event>
10    2  0.1133532E-006  0.1943891E+03  0.7546771E-02  0.1154583E+00
         -2   -1    0    0    0  501 -0.00000000000E+00  0.00000000000E+00  0.47688098829E+03  0.47688098829E+03  0.00000000000E+00 0.  1.
          2   -1    0    0  503    0  0.00000000000E+00 -0.00000000000E+00 -0.13503237822E+03  0.13503237822E+03  0.00000000000E+00 0. -1.
         23    2    1    2    0    0 -0.14362524435E+03  0.70449708234E+02  0.27528091441E+03  0.33109320833E+03  0.90839190654E+02 0.  0.
         23    2    1    2    0    0  0.18167164288E+03 -0.39613826252E+02  0.24385971598E+02  0.20846734485E+03  0.91050080713E+02 0.  0.
        -13    1    3    3    0    0 -0.97565129037E+02  0.90936704554E+02  0.19310004476E+03  0.23468290506E+03  0.00000000000E+00 0.  1.
         13    1    3    3    0    0 -0.46060115313E+02 -0.20486996321E+02  0.82180869644E+02  0.96410303268E+02  0.00000000000E+00 0. -1.
        -13    1    4    4    0    0  0.11594041138E+03  0.11831850660E+02  0.40648128975E+02  0.12342788206E+03  0.00000000000E+00 0.  1.
         13    1    4    4    0    0  0.65731231502E+02 -0.51445676912E+02 -0.16262157377E+02  0.85039462782E+02  0.00000000000E+00 0. -1.
         21    1    1    2  502  501 -0.20793685801E+02 -0.18900347182E+02  0.42989357250E+02  0.51358400769E+02  0.00000000000E+00 0.  1.
         21    1    1    2  503  502 -0.17252712732E+02 -0.11935534799E+02 -0.80763319354E+00  0.20994412565E+02  0.00000000000E+00 0.  1.
<scales pt_clust_5="13000.00000" pt_clust_6="13000.00000" pt_clust_7="13000.00000" pt_clust_8="13000.00000" pt_clust_9="28.80099" pt_clust_10="20.97887"></scales>
<clustering>
<clus scale="   20.979">  2 10  1 -1</clus>
<clus scale="   28.801">  1  9  2 -1</clus>
<clus scale="   90.839">  5  6 -1 -1</clus>
<clus scale="   91.050">  7  8 -1 -1</clus>
<clus scale="  194.290">  1  5  2 -1</clus>
<clus scale="   20.979">  2  5  1 -1</clus>
</clustering>
</event>
<event>
10    2  0.1133532E-006  0.1077568E+03  0.7546771E-02  0.1264942E+00
         -2   -1    0    0    0  501 -0.00000000000E+00  0.00000000000E+00  0.65513414417E+02  0.65513414417E+02  0.00000000000E+00 0.  1.
          2   -1    0    0  503    0  0.00000000000E+00 -0.00000000000E+00 -0.10590721825E+04  0.10590721825E+04  0.00000000000E+00 0. -1.
         23    2    1    2    0    0  0.22422215619E+02 -0.41634016379E+02 -0.13639317772E+03  0.17043962486E+03  0.90611366399E+02 0.  0.
         23    2    1    2    0    0 -0.11463913177E+03 -0.37638190097E+02 -0.71739422776E+03  0.73314130990E+03  0.91010649701E+02 0.  0.
        -11    1    3    3    0    0  0.13575384822E+02 -0.60556803671E+02 -0.44917853925E+02  0.76609602173E+02  0.00000000000E+00 0.  1.
         11    1    3    3    0    0  0.88468307976E+01  0.18922787292E+02 -0.91475323794E+02  0.93830022686E+02  0.00000000000E+00 0. -1.
        -13    1    4    4    0    0 -0.11749566810E+03 -0.45114113950E+01 -0.57769259867E+03  0.58953738084E+03  0.00000000000E+00 0. -1.
         13    1    4    4    0    0  0.28565363346E+01 -0.33126778702E+02 -0.13970162910E+03  0.14360392905E+03  0.00000000000E+00 0.  1.
         21    1    1    2  502  501  0.38043564158E+02  0.55238760739E+02  0.22543133971E+01  0.67109726499E+02  0.00000000000E+00 0.  1.
         21    1    1    2  503  502  0.54173351992E+02  0.24033445737E+02 -0.14202567597E+03  0.15389493564E+03  0.00000000000E+00 0. -1.
<scales pt_clust_5="13000.00000" pt_clust_6="13000.00000" pt_clust_7="13000.00000" pt_clust_8="13000.00000" pt_clust_9="68.87879" pt_clust_10="59.26515"></scales>
<clustering>
<clus scale="   59.265">  2 10  1 -1</clus>
<clus scale="   68.879">  1  9  2 -1</clus>
<clus scale="   90.611">  5  6 -1 -1</clus>
<clus scale="   91.011">  7  8 -1 -1</clus>
<clus scale="  107.420">  1  5  2 -1</clus>
<clus scale="   59.265">  2  5  1 -1</clus>
</clustering>
</event>
<event>
10    2  0.1133532E-006  0.1610727E+03  0.7546771E-02  0.1187511E+00
         -2   -1    0    0    0  501 -0.00000000000E+00  0.00000000000E+00  0.42915945929E+03  0.42915945929E+03  0.00000000000E+00 0. -1.
          2   -1    0    0  503    0  0.00000000000E+00 -0.00000000000E+00 -0.83651528265E+03  0.83651528265E+03  0.00000000000E+00 0.  1.
         23    2    1    2    0    0 -0.10411544109E+03  0.11757488889E+03  0.29408993462E+03  0.34589039446E+03  0.92127063162E+02 0.  0.
         23    2    1    2    0    0  0.41878668171E+02 -0.84074969111E+02 -0.56399828059E+03  0.57916097230E+03  0.92254799586E+02 0.  0.
        -13    1    3    3    0    0 -0.85741018057E+02  0.54531311374E+02  0.10677101955E+03  0.14739483272E+03  0.00000000000E+00 0.  1.
         13    1    3    3    0    0 -0.18374423029E+02  0.63043577515E+02  0.18731891507E+03  0.19849556174E+03  0.00000000000E+00 0. -1.
        -13    1    4    4    0    0  0.38892753697E+02  0.86691199973E+00 -0.97344724292E+02  0.10483030656E+03  0.00000000000E+00 0. -1.
         13    1    4    4    0    0  0.29859144740E+01 -0.84941881111E+02 -0.46665355630E+03  0.47433066574E+03  0.00000000000E+00 0.  1.
         21    1    1    2  502  501  0.21290038145E+02 -0.13662502498E+02  0.97798807444E+02  0.10101750559E+03  0.00000000000E+00 0. -1.
         21    1    1    2  503  502  0.40946734770E+02 -0.19837417280E+02 -0.23524628484E+03  0.23960586959E+03  0.00000000000E+00 0.  1.
<scales pt_clust_5="13000.00000" pt_clust_6="13000.00000" pt_clust_7="13000.00000" pt_clust_8="13000.00000" pt_clust_9="25.29683" pt_clust_10="45.66503"></scales>
<clustering>
<clus scale="   25.297">  1  9  2 -1</clus>
<clus scale="   45.665">  2 10  1 -1</clus>
<clus scale="   92.127">  5  6 -1 -1</clus>
<clus scale="   92.255">  7  8 -1 -1</clus>
<clus scale="  161.000">  1  5  2 -1</clus>
<clus scale="   45.665">  2  5  1 -1</clus>
</clustering>
</event>
<event>
10    2  0.1133532E-006  0.9900145E+02  0.7546771E-02  0.1283230E+00
         -2   -1    0    0    0  501 -0.00000000000E+00  0.00000000000E+00  0.40943514855E+02  0.40943514855E+02  0.00000000000E+00 0.  1.
          2   -1    0    0  503    0  0.00000000000E+00 -0.00000000000E+00 -0.41817251305E+03  0.41817251305E+03  0.00000000000E+00 0. -1.
         23    2    1    2    0    0 -0.58559434164E+01 -0.11799153701E+02 -0.11572669044E+03  0.14815322731E+03  0.91559815324E+02 0.  0.
         23    2    1    2    0    0 -0.11948000888E+01  0.56956072466E+02 -0.17148512800E+03  0.20331156274E+03  0.93182727377E+02 0.  0.
        -11    1    4    4    0    0 -0.29075383975E+02 -0.11736707331E+02 -0.29076715610E+02  0.42761941524E+02  0.00000000000E+00 0. -1.
         11    1    4    4    0    0  0.27880583886E+02  0.68692779797E+02 -0.14240841238E+03  0.16054962121E+03  0.00000000000E+00 0.  1.
        -13    1    3    3    0    0 -0.13000366827E+02 -0.43824187159E+02 -0.10348559872E+03  0.11313194978E+03  0.00000000000E+00 0. -1.
         13    1    3    3    0    0  0.71444234105E+01  0.32025033458E+02 -0.12241091720E+02  0.35021277538E+02  0.00000000000E+00 0.  1.
         21    1    1    2  502  501 -0.43109762688E+01 -0.22040961946E+02 -0.11940177925E+02  0.25435337009E+02  0.00000000000E+00 0. -1.
         21    1    1    2  503  502  0.11361719774E+02 -0.23115956820E+02 -0.78077001831E+02  0.82215900839E+02  0.00000000000E+00 0. -1.
<scales pt_clust_5="13000.00000" pt_clust_6="13000.00000" pt_clust_7="13000.00000" pt_clust_8="13000.00000" pt_clust_9="22.45860" pt_clust_10="26.85185"></scales>
<clustering>
<clus scale="   22.459">  1  9  2 -1</clus>
<clus scale="   26.852">  2 10  1 -1</clus>
<clus scale="   91.560">  7  8 -1 -1</clus>
<clus scale="   93.183">  5  6 -1 -1</clus>
<clus scale="   97.475">  1  7  2 -1</clus>
<clus scale="   26.852">  2  5  1 -1</clus>
</clustering>
</event>
<event>
10    2  0.1133532E-006  0.1828202E+03  0.7546771E-02  0.1165603E+00
         -1   -1    0    0    0  501 -0.00000000000E+00  0.00000000000E+00  0.16893717571E+03  0.16893717571E+03  0.00000000000E+00 0.  1.
          1   -1    0    0  502    0  0.00000000000E+00 -0.00000000000E+00 -0.67368480007E+03  0.67368480007E+03  0.00000000000E+00 0. -1.
         23    2    1    2    0    0 -0.20613938749E+03  0.13340973667E+03 -0.40945724889E+03  0.48679818329E+03  0.95003303475E+02 0.  0.
         23    2    1    2    0    0  0.81234024762E+02 -0.21313211969E+02 -0.85042333032E+02  0.15015517668E+03  0.90890917547E+02 0.  0.
        -11    1    3    3    0    0 -0.13076595838E+03  0.29132171199E+02 -0.22585257885E+03  0.26259818477E+03  0.00000000000E+00 0. -1.
         11    1    3    3    0    0 -0.75373429111E+02  0.10427756547E+03 -0.18360467005E+03  0.22419999853E+03  0.00000000000E+00 0.  1.
        -13    1    4    4    0    0  0.82682074191E+02  0.12054832659E+02 -0.36377610823E+02  0.91131635298E+02  0.00000000000E+00 0.  1.
         13    1    4    4    0    0 -0.14480494294E+01 -0.33368044628E+02 -0.48664722209E+02  0.59023541381E+02  0.00000000000E+00 0. -1.
         21    1    1    2  502  503  0.96649643168E+02 -0.23973463174E+02  0.31081870031E+02  0.10431664827E+03  0.00000000000E+00 0.  1.
         21    1    1    2  503  501  0.28255719563E+02 -0.88123061529E+02 -0.41329912466E+02  0.10135196755E+03  0.00000000000E+00 0.  1.
<scales pt_clust_5="13000.00000" pt_clust_6="13000.00000" pt_clust_7="13000.00000" pt_clust_8="13000.00000" pt_clust_9="129.11266" pt_clust_10="92.54220"></scales>
<clustering>
<clus scale="   90.891">  7  8 -1 -1</clus>
<clus scale="   92.542">  1 10  2 -1</clus>
<clus scale="   95.003">  5  6 -1 -1</clus>
<clus scale="  129.113">  1  9  2 -1</clus>
<clus scale="  180.717">  2  7  1 -1</clus>
<clus scale="  180.717">  2  5  1 -1</clus>
</clustering>
</event>
<event>
10    2  0.1133532E-006  0.1015217E+03  0.7546771E-02  0.1278397E+00
         -2   -1    0    0    0  501 -0.00000000000E+00  0.00000000000E+00  0.54018872237E+03  0.54018872237E+03  0.00000000000E+00 0.  1.
          2   -1    0    0  503    0  0.00000000000E+00 -0.00000000000E+00 -0.10027975218E+03  0.10027975218E+03  0.00000000000E+00 0. -1.
         23    2    1    2    0    0 -0.46703244389E+02 -0.69503104332E+01  0.28386884526E+03  0.30228629649E+03  0.92552600662E+02 0.  0.
         23    2    1    2    0    0  0.27630480219E+02  0.20970529193E+02 -0.51154848646E+02  0.11346161504E+03  0.95149950157E+02 0.  0.
        -11    1    4    4    0    0 -0.15595735574E+02  0.24170720850E+02  0.16463486705E+02  0.33143583225E+02  0.00000000000E+00 0.  1.
         11    1    4    4    0    0  0.43226215792E+02 -0.32001916564E+01 -0.67618335352E+02  0.80318031812E+02  0.00000000000E+00 0. -1.
        -11    1    3    3    0    0  0.61619925034E+01 -0.35249168728E+02  0.16858033511E+03  0.17233630910E+03  0.00000000000E+00 0. -1.
         11    1    3    3    0    0 -0.52865236892E+02  0.28298858295E+02  0.11528851015E+03  0.12994998740E+03  0.00000000000E+00 0.  1.
         21    1    1    2  502  501 -0.26081845137E+02 -0.95623925192E+01  0.14554857428E+03  0.14817587344E+03  0.00000000000E+00 0.  1.
         21    1    1    2  503  502  0.45154609307E+02 -0.44578262410E+01  0.61646399297E+02  0.76544689579E+02  0.00000000000E+00 0. -1.
<scales pt_clust_5="13000.00000" pt_clust_6="13000.00000" pt_clust_7="13000.00000" pt_clust_8="13000.00000" pt_clust_9="27.77952" pt_clust_10="41.03443"></scales>
<clustering>
<clus scale="   27.780">  1  9  2 -1</clus>
<clus scale="   41.034">  1 10  2 -1</clus>
<clus scale="   92.553">  7  8 -1 -1</clus>
<clus scale="   95.150">  5  6 -1 -1</clus>
<clus scale="   99.092">  1  7  2 -1</clus>
<clus scale="  101.522">  2  5  1 -1</clus>
</clustering>
</event>
<event>
10    2  0.1133532E-006  0.1172489E+03  0.7546771E-02  0.1247850E+00
         -2   -1    0    0    0  501 -0.00000000000E+00  0.00000000000E+00  0.12708136900E+03  0.12708136900E+03  0.00000000000E+00 0.  1.
          2   -1    0    0  503    0  0.00000000000E+00 -0.00000000000E+00 -0.33709169122E+03  0.33709169122E+03  0.00000000000E+00 0. -1.
         23    2    1    2    0    0  0.28325592541E+02 -0.77390291062E+02  0.25144823314E+02  0.12474805465E+03  0.90212076003E+02 0.  0.
         23    2    1    2    0    0 -0.22246394836E+02  0.55468638391E+02 -0.21781842050E+03  0.24305410621E+03  0.89770609373E+02 0.  0.
        -11    1    4    4    0    0 -0.54891791416E+02  0.33736288639E+02 -0.10073805918E+03  0.11958010915E+03  0.00000000000E+00 0. -1.
         11    1    4    4    0    0  0.32645396580E+02  0.21732349752E+02 -0.11708036132E+03  0.12347399706E+03  0.00000000000E+00 0.  1.
        -13    1    3    3    0    0 -0.18767599488E+02 -0.61112063644E+02  0.36539576117E+02  0.73634555313E+02  0.00000000000E+00 0.  1.
         13    1    3    3    0    0  0.47093192029E+02 -0.16278227418E+02 -0.11394752803E+02  0.51113499340E+02  0.00000000000E+00 0. -1.
         21    1    1    2  502  501  0.21810692555E+02  0.16768104379E+02  0.30302458697E+02  0.40928164353E+02  0.00000000000E+00 0.  1.
         21    1    1    2  503  502 -0.27889890260E+02  0.51535482911E+01 -0.47639183725E+02  0.55442735003E+02  0.00000000000E+00 0. -1.
<scales pt_clust_5="13000.00000" pt_clust_6="13000.00000" pt_clust_7="13000.00000" pt_clust_8="13000.00000" pt_clust_9="27.51137" pt_clust_10="27.59089"></scales>
<clustering>
<clus scale="   27.511">  1  9  2 -1</clus>
<clus scale="   27.591">  2 10  1 -1</clus>
<clus scale="   89.771">  5  6 -1 -1</clus>
<clus scale="   90.212">  7  8 -1 -1</clus>
<clus scale="  116.910">  2  5  1 -1</clus>
<clus scale="   27.591">  2  5  1 -1</clus>
</clustering>
</event>
<event>
10    2  0.1133532E-006  0.9852438E+02  0.7546771E-02  0.1284429E+00
          2   -1    0    0  503    0  0.00000000000E+00  0.00000000000E+00  0.36905511371E+03  0.36905511371E+03  0.00000000000E+00 0. -1.
         -2   -1    0    0    0  501 -0.00000000000E+00 -0.00000000000E+00 -0.69091329806E+02  0.69091329806E+02  0.00000000000E+00 0.  1.
         23    2    1    2    0    0 -0.40070419996E+02 -0.63514567326E+01  0.25645103531E+02  0.10042831877E+03  0.88216757564E+02 0.  0.
         23    2    1    2    0    0  0.20012586885E+02 -0.17704908867E+02  0.14502224447E+03  0.17288014068E+03  0.90233719964E+02 0.  0.
        -11    1    4    4    0    0 -0.46268482823E+01  0.20273341163E+02  0.11871113418E+03  0.12051866853E+03  0.00000000000E+00 0. -1.
         11    1    4    4    0    0  0.24639435167E+02 -0.37978250029E+02  0.26311110290E+02  0.52361472147E+02  0.00000000000E+00 0.  1.
        -13    1    3    3    0    0 -0.44505610919E+02  0.29697336600E+02 -0.38466146888E+01  0.53642125694E+02  0.00000000000E+00 0.  1.
         13    1    3    3    0    0  0.44351909226E+01 -0.36048793333E+02  0.29491718220E+02  0.46786193079E+02  0.00000000000E+00 0. -1.
         21    1    1    2  502  501 -0.89082903488E+01  0.40396376706E+02  0.12226637652E+02  0.43136012289E+02  0.00000000000E+00 0. -1.
         21    1    1    2  503  502  0.28966123460E+02 -0.16340011106E+02  0.11706979825E+03  0.12170197177E+03  0.00000000000E+00 0. -1.
<scales pt_clust_5="13000.00000" pt_clust_6="13000.00000" pt_clust_7="13000.00000" pt_clust_8="13000.00000" pt_clust_9="39.00300" pt_clust_10="33.25706"></scales>
<clustering>
<clus scale="   33.257">  1 10  2 -1</clus>
<clus scale="   39.003">  2  9  1 -1</clus>
<clus scale="   88.217">  7  8 -1 -1</clus>
<clus scale="   90.234">  5  6 -1 -1</clus>
<clus scale="   96.681">  2  7  1 -1</clus>
<clus scale="   33.257">  1  5  2 -1</clus>
</clustering>
</event>
<event>
10    2  0.1133532E-006  0.1050301E+03  0.7546771E-02  0.1270196E+00
          1   -1    0    0  503    0  0.00000000000E+00  0.00000000000E+00  0.46228925940E+03  0.46228925940E+03  0.00000000000E+00 0. -1.
         -1   -1    0    0    0  501 -0.00000000000E+00 -0.00000000000E+00 -0.41075691154E+02  0.41075691154E+02  0.00000000000E+00 0.  1.
         23    2    1    2    0    0 -0.41053448452E+02  0.22921512830E+01  0.14102466257E+03  0.17282969655E+03  0.91057723287E+02 0.  0.
         23    2    1    2    0    0  0.60314383934E+02 -0.20362008037E+02  0.17520955688E+03  0.20760551110E+03  0.91374083507E+02 0.  0.
        -11    1    3    3    0    0  0.41942264987E+01  0.39412684713E+02  0.41603175276E+02  0.57461077655E+02  0.00000000000E+00 0.  1.
         11    1    3    3    0    0 -0.45247674951E+02 -0.37120533430E+02  0.99421487290E+02  0.11536861889E+03  0.00000000000E+00 0. -1.
        -13    1    4    4    0    0  0.81626653454E+02 -0.29744056915E+02  0.12461572296E+03  0.15191016386E+03  0.00000000000E+00 0. -1.
         13    1    4    4    0    0 -0.21312269520E+02  0.93820488777E+01  0.50593833922E+02  0.55695347240E+02  0.00000000000E+00 0.  1.
         21    1    1    2  502  501 -0.19548910532E+02 -0.89604279447E+01  0.91667554813E+01  0.23376881272E+02  0.00000000000E+00 0.  1.
         21    1    1    2  503  502  0.28797505005E+00  0.27030284699E+02  0.95812593323E+02  0.99552861636E+02  0.00000000000E+00 0.  1.
<scales pt_clust_5="13000.00000" pt_clust_6="13000.00000" pt_clust_7="13000.00000" pt_clust_8="13000.00000" pt_clust_9="21.50463" pt_clust_10="26.54870"></scales>
<clustering>
<clus scale="   21.505">  2  9  1 -1</clus>
<clus scale="   26.549">  1 10  2 -1</clus>
<clus scale="   91.058">  5  6 -1 -1</clus>
<clus scale="   91.374">  7  8 -1 -1</clus>
<clus scale="  104.755">  2  5  1 -1</clus>
<clus scale="   26.549">  1  5  2 -1</clus>
</clustering>
</event>
<event>
10    2  0.1133532E-006  0.2668101E+03  0.7546771E-02  0.1103232E+00
          1   -1    0    0  503    0  0.00000000000E+00  0.00000000000E+00  0.47603245705E+03  0.47603245705E+03  0.00000000000E+00 0. -1.
         -1   -1    0    0    0  501 -0.00000000000E+00 -0.00000000000E+00 -0.36661478674E+03  0.36661478674E+03  0.00000000000E+00 0.  1.
         23    2    1    2    0    0  0.10199934306E+03  0.24499130790E+03 -0.69632944948E+00  0.28068063608E+03  0.91414045249E+02 0.  0.
         23    2    1    2    0    0 -0.11706289229E+03 -0.22897419464E+03  0.25056240794E+03  0.36994584950E+03  0.89137583130E+02 0.  0.
        -11    1    3    3    0    0 -0.14811133297E+02  0.57302040199E+02  0.61553977996E+01  0.59504473804E+02  0.00000000000E+00 0. -1.
         11    1    3    3    0    0  0.11681047635E+03  0.18768926770E+03 -0.68517272490E+01  0.22117616228E+03  0.00000000000E+00 0.  1.
        -11    1    4    4    0    0 -0.38202978300E+02 -0.10900605141E+02  0.45340731714E+02  0.60283270447E+02  0.00000000000E+00 0.  1.
         11    1    4    4    0    0 -0.78859913988E+02 -0.21807358950E+03  0.20522167622E+03  0.30966257905E+03  0.00000000000E+00 0. -1.
         21    1    1    2  502  501  0.67323004637E+01 -0.35492075800E+02 -0.15949486220E+03  0.16353477423E+03  0.00000000000E+00 0. -1.
         21    1    1    2  503  502  0.83312487683E+01  0.19474962547E+02  0.19046454030E+02  0.28485983981E+02  0.00000000000E+00 0.  1.
<scales pt_clust_5="13000.00000" pt_clust_6="13000.00000" pt_clust_7="13000.00000" pt_clust_8="13000.00000" pt_clust_9="36.04646" pt_clust_10="21.18216"></scales>
<clustering>
<clus scale="   21.182">  1 10  2 -1</clus>
<clus scale="   36.046">  2  9  1 -1</clus>
<clus scale="   89.138">  7  8 -1 -1</clus>
<clus scale="   91.414">  5  6 -1 -1</clus>
<clus scale="  266.039">  1  7  2 -1</clus>
<clus scale="   21.182">  1  5  2 -1</clus>
</clustering>
</event>
<event>
10    2  0.1133532E-006  0.1677204E+03  0.7546771E-02  0.1206421E+00
          2   -1    0    0  503    0  0.00000000000E+00  0.00000000000E+00  0.70922567587E+03  0.70922567587E+03  0.00000000000E+00 0. -1.
         -2   -1    0    0    0  501 -0.00000000000E+00 -0.00000000000E+00 -0.83509278672E+02  0.83509278672E+02  0.00000000000E+00 0.  1.
         23    2    1    2    0    0  0.14055363497E+03 -0.18168560366E+02  0.27865610263E+03  0.32695871863E+03  0.95746327704E+02 0.  0.
         23    2    1    2    0    0  0.30029547063E+02  0.15768546974E+02  0.20983992452E+03  0.23165007121E+03  0.92078992155E+02 0.  0.
        -13    1    3    3    0    0  0.75900854164E+02 -0.57508841516E+02  0.14900256517E+03  0.17683317263E+03  0.00000000000E+00 0.  1.
         13    1    3    3    0    0  0.64652780809E+02  0.39340281150E+02  0.12965353746E+03  0.15012554600E+03  0.00000000000E+00 0. -1.
        -13    1    4    4    0    0  0.46851452734E+02 -0.21842625714E+02  0.15264322883E+03  0.16115866166E+03  0.00000000000E+00 0. -1.
         13    1    4    4    0    0 -0.16821905670E+02  0.37611172688E+02  0.57196695689E+02  0.70491409541E+02  0.00000000000E+00 0.  1.
         21    1    1    2  502  501 -0.13527722112E+03  0.16688957623E+02  0.61851134525E+02  0.14967969368E+03  0.00000000000E+00 0.  1.
         21    1    1    2  503  502 -0.35305960922E+02 -0.14288944231E+02  0.75369235522E+02  0.84446471016E+02  0.00000000000E+00 0.  1.
<scales pt_clust_5="13000.00000" pt_clust_6="13000.00000" pt_clust_7="13000.00000" pt_clust_8="13000.00000" pt_clust_9="137.70545" pt_clust_10="38.08786"></scales>
<clustering>
<clus scale="   38.088">  1 10  2 -1</clus>
<clus scale="   92.079">  7  8 -1 -1</clus>
<clus scale="   94.369">  1  7  2 -1</clus>
<clus scale="   95.746">  5  6 -1 -1</clus>
<clus scale="  137.705">  2  9  1 -1</clus>
<clus scale="   38.088">  1  5  2 -1</clus>
</clustering>
</event>
<event>
10    2  0.1133532E-006  0.9871788E+02  0.7546771E-02  0.1284885E+00
         -2   -1    0    0    0  501 -0.00000000000E+00  0.00000000000E+00  0.23253270542E+03  0.23253270542E+03  0.00000000000E+00 0.  1.
          2   -1    0    0  503    0  0.00000000000E+00 -0.00000000000E+00 -0.15657377422E+03  0.15657377422E+03  0.00000000000E+00 0. -1.
         23    2    1    2    0    0 -0.22058089220E+02 -0.66782958520E+01  0.24842971678E+02  0.96733401413E+02  0.90603635533E+02 0.  0.
         23    2    1    2    0    0 -0.84767061472E+02  0.29283175472E+02 -0.52627407479E+01  0.13017306160E+03  0.94203877048E+02 0.  0.
        -11    1    3    3    0    0 -0.32767460562E+02 -0.43883078552E+02  0.15111593173E+02  0.56813654196E+02  0.00000000000E+00 0. -1.
         11    1    3    3    0    0  0.10709371342E+02  0.37204782700E+02  0.97313785050E+01  0.39919747218E+02  0.00000000000E+00 0.  1.
        -13    1    4    4    0    0 -0.74317901651E+02 -0.20392701910E+02 -0.14929753974E+02  0.78497836599E+02  0.00000000000E+00 0. -1.
         13    1    4    4    0    0 -0.10449159821E+02  0.49675877382E+02  0.96670132265E+01  0.51675225005E+02  0.00000000000E+00 0.  1.
         21    1    1    2  502  501  0.34875496795E+02 -0.30300613946E+02  0.74447908169E+02  0.87618026187E+02  0.00000000000E+00 0.  1.
         21    1    1    2  503  502  0.71949653897E+02  0.76957343258E+01 -0.18069207894E+02  0.74581990431E+02  0.00000000000E+00 0.  1.
<scales pt_clust_5="13000.00000" pt_clust_6="13000.00000" pt_clust_7="13000.00000" pt_clust_8="13000.00000" pt_clust_9="46.19986" pt_clust_10="78.48095"></scales>
<clustering>
<clus scale="   46.200">  1  9  2 -1</clus>
<clus scale="   78.481">  2 10  1 -1</clus>
<clus scale="   90.604">  5  6 -1 -1</clus>
<clus scale="   94.204">  7  8 -1 -1</clus>
<clus scale="   95.288">  1  5  2 -1</clus>
<clus scale="   78.481">  2  5  1 -1</clus>
</clustering>
</event>
<event>
10    2  0.1133532E-006  0.2355090E+03  0.7546771E-02  0.1148854E+00
          2   -1    0    0  503    0  0.00000000000E+00  0.00000000000E+00  0.55242825652E+03  0.55242825652E+03  0.00000000000E+00 0. -1.
         -2   -1    0    0    0  501 -0.00000000000E+00 -0.00000000000E+00 -0.34403704744E+03  0.34403704744E+03  0.00000000000E+00 0.  1.
         23    2    1    2    0    0  0.16417665548E+03 -0.32371753067E+02  0.73964978229E+02  0.20640910758E+03  0.95561483277E+02 0.  0.
         23    2    1    2    0    0  0.77815279272E+02 -0.48192332493E+02  0.14561958855E+03  0.19784633041E+03  0.97777232974E+02 0.  0.
        -11    1    4    4    0    0 -0.13434310679E+02  0.15367931958E+02  0.10838192766E+02  0.23111046244E+02  0.00000000000E+00 0.  1.
         11    1    4    4    0    0  0.91249589950E+02 -0.63560264451E+02  0.13478139578E+03  0.17473528416E+03  0.00000000000E+00 0. -1.
        -13    1    3    3    0    0  0.38508996054E+02  0.10715118382E+01  0.65629397303E+02  0.76100648519E+02  0.00000000000E+00 0.  1.
         13    1    3    3    0    0  0.12566765943E+03 -0.33443264905E+02  0.83355809266E+01  0.13030845906E+03  0.00000000000E+00 0. -1.
         21    1    1    2  502  501 -0.23084721801E+03  0.38630806910E+02 -0.19419861266E+03  0.30413135068E+03  0.00000000000E+00 0.  1.
         21    1    1    2  503  502 -0.11144716748E+02  0.41933278650E+02  0.18300525496E+03  0.18807851529E+03  0.00000000000E+00 0.  1.
<scales pt_clust_5="13000.00000" pt_clust_6="13000.00000" pt_clust_7="13000.00000" pt_clust_8="13000.00000" pt_clust_9="215.24983" pt_clust_10="43.38899"></scales>
<clustering>
<clus scale="   43.389">  1 10  2 -1</clus>
<clus scale="   95.561">  7  8 -1 -1</clus>
<clus scale="   97.777">  5  6 -1 -1</clus>
<clus scale="  125.087">  1  5  2 -1</clus>
<clus scale="  215.250">  2  9  1 -1</clus>
<clus scale="   43.389">  1  5  2 -1</clus>
</clustering>
</event>
<event>
10    2  0.1133532E-006  0.1016605E+03  0.7546771E-02  0.1279587E+00
         -1   -1    0    0    0  501 -0.00000000000E+00  0.00000000000E+00  0.18702602386E+03  0.18702602386E+03  0.00000000000E+00 0.  1.
          1   -1    0    0  503    0  0.00000000000E+00 -0.00000000000E+00 -0.38833523074E+03  0.38833523074E+03  0.00000000000E+00 0. -1.
         23    2    1    2    0    0 -0.11862500671E+03  0.26012565663E+02  0.64792403052E+02  0.16387249308E+03  0.88924646219E+02 0.  0.
         23    2    1    2    0    0  0.22631501573E+00 -0.64041848402E+01 -0.77678631002E+02  0.12251727648E+03  0.94527501387E+02 0.  0.
        -11    1    3    3    0    0 -0.34288611692E+02  0.47091348039E+02  0.52139515218E+01  0.58484948853E+02  0.00000000000E+00 0. -1.
         11    1    3    3    0    0 -0.84336395015E+02 -0.21078782376E+02  0.59578451530E+02  0.10538754422E+03  0.00000000000E+00 0.  1.
        -13    1    4    4    0    0 -0.15714810228E+02 -0.39521813743E+02 -0.73477198757E+01  0.43161533910E+02  0.00000000000E+00 0.  1.
         13    1    4    4    0    0  0.15941125243E+02  0.33117628903E+02 -0.70330911127E+02  0.79355742566E+02  0.00000000000E+00 0. -1.
         21    1    1    2  502  501  0.89025924478E+02 -0.52689386178E+01  0.82855837014E+01  0.89565773823E+02  0.00000000000E+00 0. -1.
         21    1    1    2  503  502  0.29372767213E+02 -0.14339442206E+02 -0.19670856264E+03  0.19940571123E+03  0.00000000000E+00 0. -1.
<scales pt_clust_5="13000.00000" pt_clust_6="13000.00000" pt_clust_7="13000.00000" pt_clust_8="13000.00000" pt_clust_9="95.66294" pt_clust_10="32.68607"></scales>
<clustering>
<clus scale="   32.686">  2 10  1 -1</clus>
<clus scale="   88.925">  5  6 -1 -1</clus>
<clus scale="   94.528">  7  8 -1 -1</clus>
<clus scale="   95.663">  1  9  2 -1</clus>
<clus scale="   96.473">  1  5  2 -1</clus>
<clus scale="   32.686">  2  5  1 -1</clus>
</clustering>
</event>
<event>
10    2  0.1133532E-006  0.1047325E+03  0.7546771E-02  0.1271525E+00
         -1   -1    0    0    0  501 -0.00000000000E+00  0.00000000000E+00  0.40600555899E+03  0.40600555899E+03  0.00000000000E+00 0.  1.
          1   -1    0    0  503    0  0.00000000000E+00 -0.00000000000E+00 -0.46166630139E+03  0.46166630139E+03  0.00000000000E+00 0. -1.
         23    2    1    2    0    0 -0.10389617037E+03 -0.19440521757E+02  0.29328295991E+03  0.32381791067E+03  0.87583083926E+02 0.  0.
         23    2    1    2    0    0  0.39247517916E+01 -0.54632961110E+01 -0.28160503525E+03  0.29560582704E+03  0.89644619591E+02 0.  0.
        -11    1    4    4    0    0  0.13380279142E+02  0.34817721035E+02 -0.63783605190E+02  0.73889470556E+02  0.00000000000E+00 0. -1.
         11    1    4    4    0    0 -0.94555273506E+01 -0.40281017146E+02 -0.21782143006E+03  0.22171635649E+03  0.00000000000E+00 0.  1.
        -13    1    3    3    0    0 -0.60898432692E+02 -0.32344697578E+02  0.25701937764E+03  0.26610854749E+03  0.00000000000E+00 0.  1.
         13    1    3    3    0    0 -0.42997737675E+02  0.12904175821E+02  0.36263582275E+02  0.57709363176E+02  0.00000000000E+00 0. -1.
         21    1    1    2  502  501  0.54735127263E+02 -0.73482149465E+01  0.76328952718E+02  0.94212735033E+02  0.00000000000E+00 0.  1.
         21    1    1    2  503  502  0.45236291313E+02  0.32252032814E+02 -0.14366761978E+03  0.15403538764E+03  0.00000000000E+00 0. -1.
<scales pt_clust_5="13000.00000" pt_clust_6="13000.00000" pt_clust_7="13000.00000" pt_clust_8="13000.00000" pt_clust_9="55.22618" pt_clust_10="56.21111"></scales>
<clustering>
<clus scale="   55.226">  1  9  2 -1</clus>
<clus scale="   56.211">  2 10  1 -1</clus>
<clus scale="   87.583">  7  8 -1 -1</clus>
<clus scale="   89.645">  5  6 -1 -1</clus>
<clus scale="  102.973">  1  7  2 -1</clus>
<clus scale="   56.211">  2  5  1 -1</clus>
</clustering>
</event>
<event>
10    2  0.1133532E-006  0.1325379E+03  0.7546771E-02  0.1224201E+00
         -1   -1    0    0    0  501 -0.00000000000E+00  0.00000000000E+00  0.51737621100E+02  0.51737621100E+02  0.00000000000E+00 0.  1.
          1   -1    0    0  503    0  0.00000000000E+00 -0.00000000000E+00 -0.78119678597E+03  0.78119678597E+03  0.00000000000E+00 0. -1.
         23    2    1    2    0    0 -0.52455690564E+02  0.72276941202E+02 -0.25335738327E+03  0.28360620850E+03  0.90922836184E+02 0.  0.
         23    2    1    2    0    0  0.34753143873E+02 -0.93389005635E+02 -0.44703228596E+03  0.46730120684E+03  0.92753791559E+02 0.  0.
        -11    1    3    3    0    0 -0.12007964457E+02  0.83647570782E+02 -0.18468777575E+03  0.20310263863E+03  0.00000000000E+00 0.  1.
         11    1    3    3    0    0 -0.40447726107E+02 -0.11370629580E+02 -0.68669607526E+02  0.80503569871E+02  0.00000000000E+00 0. -1.
        -13    1    4    4    0    0  0.10364976209E+02  0.18698043796E+02 -0.74752165876E+02  0.77749185698E+02  0.00000000000E+00 0.  1.
         13    1    4    4    0    0  0.24388167664E+02 -0.11208704943E+03 -0.37228012008E+03  0.38955202115E+03  0.00000000000E+00 0. -1.
         21    1    1    2  502  501 -0.10214667931E+02  0.17236988098E+02  0.18150492497E+02  0.27035043509E+02  0.00000000000E+00 0.  1.
         21    1    1    2  503  502  0.27917214623E+02  0.38750763352E+01 -0.47219988139E+02  0.54991948218E+02  0.00000000000E+00 0. -1.
<scales pt_clust_5="13000.00000" pt_clust_6="13000.00000" pt_clust_7="13000.00000" pt_clust_8="13000.00000" pt_clust_9="20.03630" pt_clust_10="27.26338"></scales>
<clustering>
<clus scale="   20.036">  1  9  2 -1</clus>
<clus scale="   27.263">  1 10  2 -1</clus>
<clus scale="   90.923">  5  6 -1 -1</clus>
<clus scale="   92.754">  7  8 -1 -1</clus>
<clus scale="  131.263">  1  5  2 -1</clus>
<clus scale="  132.538">  2  5  1 -1</clus>
</clustering>
</event>
<event>
10    2  0.1133532E-006  0.9654033E+02  0.7546771E-02  0.1288363E+00
         -3   -1    0    0    0  501 -0.00000000000E+00  0.00000000000E+00  0.66665722847E+03  0.66665722847E+03  0.00000000000E+00 0.  1.
          3   -1    0    0  503    0  0.00000000000E+00 -0.00000000000E+00 -0.70006768938E+02  0.70006768938E+02  0.00000000000E+00 0. -1.
         23    2    1    2    0    0  0.18852017184E+02 -0.69339611290E+01  0.34444209086E+03  0.35681172887E+03  0.90943815269E+02 0.  0.
         23    2    1    2    0    0  0.52083798543E+02 -0.37423070406E+02  0.96529433189E+01  0.11265671963E+03  0.92114867926E+02 0.  0.
        -11    1    4    4    0    0  0.49426653375E+02 -0.64921264002E+02 -0.42969779933E+01  0.81708191776E+02  0.00000000000E+00 0. -1.
         11    1    4    4    0    0  0.26571451683E+01  0.27498193596E+02  0.13949921312E+02  0.30948527850E+02  0.00000000000E+00 0.  1.
        -13    1    3    3    0    0  0.53663181372E+02 -0.12183364014E+02  0.25091274581E+03  0.25687619081E+03  0.00000000000E+00 0. -1.
         13    1    3    3    0    0 -0.34811164188E+02  0.52494028851E+01  0.93529345047E+02  0.99935538061E+02  0.00000000000E+00 0.  1.
         21    1    1    2  502  501 -0.28532671739E+02  0.43228201032E+02  0.20190875854E+03  0.20844648593E+03  0.00000000000E+00 0.  1.
         21    1    1    2  503  502 -0.42403143988E+02  0.11288305027E+01  0.40646666819E+02  0.58749062987E+02  0.00000000000E+00 0.  1.
<scales pt_clust_5="13000.00000" pt_clust_6="13000.00000" pt_clust_7="13000.00000" pt_clust_8="13000.00000" pt_clust_9="53.13156" pt_clust_10="42.41817"></scales>
<clustering>
<clus scale="   42.418">  2 10  1 -1</clus>
<clus scale="   53.132">  1  9  2 -1</clus>
<clus scale="   90.944">  7  8 -1 -1</clus>
<clus scale="   92.115">  5  6 -1 -1</clus>
<clus scale="   95.424">  1  7  2 -1</clus>
<clus scale="   42.418">  2  5  1 -1</clus>
</clustering>
</event>
<event>
10    2  0.1133532E-006  0.1028235E+03  0.7546771E-02  0.1275016E+00
         -1   -1    0    0    0  501 -0.00000000000E+00  0.00000000000E+00  0.86156657807E+03  0.86156657807E+03  0.00000000000E+00 0.  1.
          1   -1    0    0  503    0  0.00000000000E+00 -0.00000000000E+00 -0.71089803877E+02  0.71089803877E+02  0.00000000000E+00 0. -1.
         23    2    1    2    0    0 -0.74774029545E+01 -0.57441351859E+02  0.60542711390E+03  0.61522379429E+03  0.92751853652E+02 0.  0.
         23    2    1    2    0    0 -0.18785391122E+02  0.79398419341E+02  0.66321255574E+02  0.13942138708E+03  0.91557710335E+02 0.  0.
        -13    1    3    3    0    0  0.39573340218E+02 -0.46003315206E+02  0.35726160701E+03  0.36237854532E+03  0.00000000000E+00 0.  1.
         13    1    3    3    0    0 -0.47050743172E+02 -0.11438036653E+02  0.24816550689E+03  0.25284524896E+03  0.00000000000E+00 0. -1.
        -13    1    4    4    0    0 -0.16140000940E+02  0.20825451129E+02 -0.21376593976E+02  0.33928716673E+02  0.00000000000E+00 0. -1.
         13    1    4    4    0    0 -0.26453901828E+01  0.58572968213E+02  0.87697849551E+02  0.10549267041E+03  0.00000000000E+00 0.  1.
         21    1    1    2  502  501  0.25701419205E+02  0.27526567266E+02  0.12271532623E+03  0.12836403759E+03  0.00000000000E+00 0.  1.
         21    1    1    2  503  502  0.56137487200E+00 -0.49483634748E+02 -0.39869215080E+01  0.49647162988E+02  0.00000000000E+00 0. -1.
<scales pt_clust_5="13000.00000" pt_clust_6="13000.00000" pt_clust_7="13000.00000" pt_clust_8="13000.00000" pt_clust_9="37.65999" pt_clust_10="48.64879"></scales>
<clustering>
<clus scale="   37.660">  1  9  2 -1</clus>
<clus scale="   48.649">  2 10  1 -1</clus>
<clus scale="   91.558">  7  8 -1 -1</clus>
<clus scale="   92.752">  5  6 -1 -1</clus>
<clus scale="  101.748">  2  7  1 -1</clus>
<clus scale="   48.649">  2  5  1 -1</clus>
</clustering>
</event>
<event>
10    2  0.1133532E-006  0.3018819E+03  0.7546771E-02  0.1084398E+00
         -1   -1    0    0    0  501 -0.00000000000E+00  0.00000000000E+00  0.13493529175E+03  0.13493529175E+03  0.00000000000E+00 0.  1.
          1   -1    0    0  503    0  0.00000000000E+00 -0.00000000000E+00 -0.22380929321E+04  0.22380929321E+04  0.00000000000E+00 0. -1.
         23    2    1    2    0    0  0.77404461002E+02 -0.30936870886E+03 -0.40092750027E+03  0.52083551673E+03  0.93948530657E+02 0.  0.
         23    2    1    2    0    0 -0.26100849588E+03  0.15451421879E+03 -0.36219833644E+03  0.48120331398E+03  0.91481778128E+02 0.  0.
        -11    1    4    4    0    0 -0.17516198851E+03  0.14616223336E+03 -0.28814803162E+03  0.36752470502E+03  0.00000000000E+00 0. -1.
         11    1    4    4    0    0 -0.85846507373E+02  0.83519854371E+01 -0.74050304825E+02  0.11367860895E+03  0.00000000000E+00 0.  1.
        -11    1    3    3    0    0  0.51596440371E+01 -0.50145621895E+02 -0.12792797276E+03  0.13750189648E+03  0.00000000000E+00 0. -1.
         11    1    3    3    0    0  0.72244816965E+02 -0.25922308696E+03 -0.27299952751E+03  0.38333362025E+03  0.00000000000E+00 0.  1.
         21    1    1    2  502  501  0.31480973543E+01  0.40215047547E+02 -0.54514574582E+02  0.67815922968E+02  0.00000000000E+00 0.  1.
         21    1    1    2  503  502  0.18045593753E+03  0.11463944252E+03 -0.12855172290E+04  0.13031734702E+04  0.00000000000E+00 0. -1.
<scales pt_clust_5="13000.00000" pt_clust_6="13000.00000" pt_clust_7="13000.00000" pt_clust_8="13000.00000" pt_clust_9="40.33808" pt_clust_10="215.46917"></scales>
<clustering>
<clus scale="   40.338">  1  9  2 -1</clus>
<clus scale="   91.482">  5  6 -1 -1</clus>
<clus scale="   93.949">  7  8 -1 -1</clus>
<clus scale="  215.469">  2 10  1 -1</clus>
<clus scale="  301.123">  2  5  1 -1</clus>
<clus scale="  215.469">  2  5  1 -1</clus>
</clustering>
</event>
<event>
10    2  0.1133532E-006  0.9398527E+02  0.7546771E-02  0.1293942E+00
         -3   -1    0    0    0  501 -0.00000000000E+00  0.00000000000E+00  0.69658640408E+02  0.69658640408E+02  0.00000000000E+00 0.  1.
          3   -1    0    0  503    0  0.00000000000E+00 -0.00000000000E+00 -0.23136834796E+03  0.23136834796E+03  0.00000000000E+00 0. -1.
         23    2    1    2    0    0  0.23486471916E+01 -0.80682232978E+01 -0.39792740613E+02  0.10048871423E+03  0.91890734635E+02 0.  0.
         23    2    1    2    0    0 -0.18233611774E+02 -0.30075881454E+02 -0.10860820858E+03  0.14603248044E+03  0.91064368057E+02 0.  0.
        -11    1    3    3    0    0  0.19482383899E+02 -0.18480015384E+02  0.22509919767E+02  0.35039559628E+02  0.00000000000E+00 0.  1.
         11    1    3    3    0    0 -0.17133736707E+02  0.10411792086E+02 -0.62302660380E+02  0.65449154605E+02  0.00000000000E+00 0. -1.
        -13    1    4    4    0    0  0.10671124270E+02  0.21203710433E+02 -0.14636787391E+01  0.23782610975E+02  0.00000000000E+00 0.  1.
         13    1    4    4    0    0 -0.28904736045E+02 -0.51279591887E+02 -0.10714452984E+03  0.12224986947E+03  0.00000000000E+00 0. -1.
         21    1    1    2  502  501  0.18760769493E+02  0.80258593015E+01  0.21708162244E+01  0.20520558778E+02  0.00000000000E+00 0.  1.
         21    1    1    2  503  502 -0.28758049105E+01  0.30118245450E+02 -0.15479574581E+02  0.33985234913E+02  0.00000000000E+00 0.  1.
<scales pt_clust_5="13000.00000" pt_clust_6="13000.00000" pt_clust_7="13000.00000" pt_clust_8="13000.00000" pt_clust_9="20.40541" pt_clust_10="31.39191"></scales>
<clustering>
<clus scale="   20.405">  1  9  2 -1</clus>
<clus scale="   31.392">  1 10  2 -1</clus>
<clus scale="   91.064">  7  8 -1 -1</clus>
<clus scale="   91.891">  5  6 -1 -1</clus>
<clus scale="   93.177">  2  7  1 -1</clus>
<clus scale="   93.177">  2  5  1 -1</clus>
</clustering>
</event>
<event>
10    2  0.1133532E-006  0.9992744E+02  0.7546771E-02  0.1280733E+00
         -1   -1    0    0    0  501 -0.00000000000E+00  0.00000000000E+00  0.25690859216E+03  0.25690859216E+03  0.00000000000E+00 0.  1.
          1   -1    0    0  503    0  0.00000000000E+00 -0.00000000000E+00 -0.27039543700E+03  0.27039543700E+03  0.00000000000E+00 0. -1.
         23    2    1    2    0    0 -0.33413043663E+02 -0.25081798279E+02  0.16056413301E+03  0.18899465366E+03  0.90513038891E+02 0.  0.
         23    2    1    2    0    0  0.54286410177E+02 -0.21956790525E+02 -0.14684610839E+03  0.18246315595E+03  0.91103834983E+02 0.  0.
        -11    1    3    3    0    0 -0.52038449353E+02 -0.39430749249E+02  0.14924257237E+03  0.16289913936E+03  0.00000000000E+00 0.  1.
         11    1    3    3    0    0  0.18625405690E+02  0.14348950971E+02  0.11321560648E+02  0.26095514300E+02  0.00000000000E+00 0. -1.
        -13    1    4    4    0    0  0.54607670360E+02  0.89799944376E+01 -0.14032704571E+03  0.15084534372E+03  0.00000000000E+00 0. -1.
         13    1    4    4    0    0 -0.32126018229E+00 -0.30936784963E+02 -0.65190626739E+01  0.31617812228E+02  0.00000000000E+00 0.  1.
         21    1    1    2  502  501 -0.80991770247E+02  0.14142973929E+02 -0.28282049513E+00  0.82217823777E+02  0.00000000000E+00 0.  1.
         21    1    1    2  503  502  0.60118403732E+02  0.32895614875E+02 -0.26922048970E+02  0.73628395786E+02  0.00000000000E+00 0. -1.
<scales pt_clust_5="13000.00000" pt_clust_6="13000.00000" pt_clust_7="13000.00000" pt_clust_8="13000.00000" pt_clust_9="72.62274" pt_clust_10="68.52988"></scales>
<clustering>
<clus scale="   68.530">  2 10  1 -1</clus>
<clus scale="   72.623">  2  9  1 -1</clus>
<clus scale="   90.513">  5  6 -1 -1</clus>
<clus scale="   91.104">  7  8 -1 -1</clus>
<clus scale="   99.389">  1  5  2 -1</clus>
<clus scale="   68.530">  2  5  1 -1</clus>
</clustering>
</event>
<event>
10    2  0.1133532E-006  0.1227782E+03  0.7546771E-02  0.1240672E+00
          1   -1    0    0  503    0  0.00000000000E+00  0.00000000000E+00  0.16237237158E+03  0.16237237158E+03  0.00000000000E+00 0. -1.
         -1   -1    0    0    0  501 -0.00000000000E+00 -0.00000000000E+00 -0.23860940990E+03  0.23860940990E+03  0.00000000000E+00 0.  1.
         23    2    1    2    0    0 -0.64074441390E+02 -0.18973682972E+02 -0.43741095324E+02  0.12870105554E+03  0.10092147241E+03 0.  0.
         23    2    1    2    0    0  0.74474431630E+02 -0.18127986551E+00  0.40487240639E+02  0.12705775783E+03  0.94646623507E+02 0.  0.
        -11    1    4    4    0    0  0.23723909723E+02  0.14341740044E+02 -0.28785846510E+02  0.39964163438E+02  0.00000000000E+00 0.  1.
         11    1    4    4    0    0  0.50750521907E+02 -0.14523019909E+02  0.69273087148E+02  0.87093594392E+02  0.00000000000E+00 0. -1.
        -11    1    3    3    0    0  0.23374180090E+02 -0.58425202325E+01  0.90220105193E+01  0.25727106548E+02  0.00000000000E+00 0.  1.
         11    1    3    3    0    0 -0.87448621479E+02 -0.13131162739E+02 -0.52763105844E+02  0.10297394900E+03  0.00000000000E+00 0. -1.
         21    1    1    2  502  501 -0.71011581921E+01  0.46986121633E+02 -0.97193281363E+02  0.10818805856E+03  0.00000000000E+00 0.  1.
         21    1    1    2  503  502 -0.32988320480E+01 -0.27831158796E+02  0.24210097734E+02  0.37034909546E+02  0.00000000000E+00 0. -1.
<scales pt_clust_5="13000.00000" pt_clust_6="13000.00000" pt_clust_7="13000.00000" pt_clust_8="13000.00000" pt_clust_9="46.39306" pt_clust_10="28.02598"></scales>
<clustering>
<clus scale="   28.026">  1 10  2 -1</clus>
<clus scale="   46.393">  2  9  1 -1</clus>
<clus scale="   94.647">  5  6 -1 -1</clus>
<clus scale="  100.921">  7  8 -1 -1</clus>
<clus scale="  117.675">  1  5  2 -1</clus>
<clus scale="   28.026">  1  5  2 -1</clus>
</clustering>
</event>
<event>
10    2  0.1133532E-006  0.1392038E+03  0.7546771E-02  0.1235431E+00
         -2   -1    0    0    0  501 -0.00000000000E+00  0.00000000000E+00  0.38079584736E+03  0.38079584736E+03  0.00000000000E+00 0.  1.
          2   -1    0    0  503    0  0.00000000000E+00 -0.00000000000E+00 -0.22905230381E+03  0.22905230381E+03  0.00000000000E+00 0. -1.
         23    2    1    2    0    0 -0.94977754244E+02 -0.41948626422E+02  0.38620602010E+02  0.14343642066E+03  0.91115283091E+02 0.  0.
         23    2    1    2    0    0  0.44007757393E+02  0.31238472197E+02 -0.39019082962E+02  0.10926777216E+03  0.86628126739E+02 0.  0.
        -11    1    4    4    0    0  0.55888938625E+02 -0.61072917147E+01 -0.41681495011E+02  0.69987280981E+02  0.00000000000E+00 0.  1.
         11    1    4    4    0    0 -0.11881181232E+02  0.37345763911E+02  0.26624120488E+01  0.39280491182E+02  0.00000000000E+00 0. -1.
        -11    1    3    3    0    0 -0.49795558877E+02 -0.30272567063E+01  0.61828346677E+02  0.79444989898E+02  0.00000000000E+00 0.  1.
         11    1    3    3    0    0 -0.45182195367E+02 -0.38921369716E+02 -0.23207744667E+02  0.63991430764E+02  0.00000000000E+00 0. -1.
         21    1    1    2  502  501  0.95499234872E+02  0.44955975809E+02  0.23466789497E+03  0.25731335867E+03  0.00000000000E+00 0.  1.
         21    1    1    2  503  502 -0.44529238021E+02 -0.34245821583E+02 -0.82525870472E+02  0.99830599676E+02  0.00000000000E+00 0. -1.
<scales pt_clust_5="13000.00000" pt_clust_6="13000.00000" pt_clust_7="13000.00000" pt_clust_8="13000.00000" pt_clust_9="105.24116" pt_clust_10="56.17499"></scales>
<clustering>
<clus scale="   56.175">  2 10  1 -1</clus>
<clus scale="   86.628">  5  6 -1 -1</clus>
<clus scale="   89.840">  2  5  1 -1</clus>
<clus scale="   91.115">  7  8 -1 -1</clus>
<clus scale="  105.241">  1  9  2 -1</clus>
<clus scale="   56.175">  2  5  1 -1</clus>
</clustering>
</event>
<event>
10    2  0.1133532E-006  0.2580356E+03  0.7546771E-02  0.1108352E+00
          1   -1    0    0  503    0  0.00000000000E+00  0.00000000000E+00  0.11405385636E+04  0.11405385636E+04  0.00000000000E+00 0. -1.
         -1   -1    0    0    0  501 -0.00000000000E+00 -0.00000000000E+00 -0.12359167257E+03  0.12359167257E+03  0.00000000000E+00 0.  1.
         23    2    1    2    0    0  0.10487774398E+03 -0.21633066361E+03  0.21636610445E+03  0.33608367036E+03  0.91321657497E+02 0.  0.
         23    2    1    2    0    0 -0.58754589241E+01  0.26737550271E+03  0.47680029785E+03  0.55418963990E+03  0.90903533918E+02 0.  0.
        -11    1    4    4    0    0  0.34423378051E+02  0.55262410853E+02  0.88046618343E+02  0.10950392692E+03  0.00000000000E+00 0.  1.
         11    1    4    4    0    0 -0.40298836976E+02  0.21211309185E+03  0.38875367951E+03  0.44468571298E+03  0.00000000000E+00 0. -1.
        -13    1    3    3    0    0  0.69600426020E+02 -0.11429695250E+03  0.17538304273E+03  0.22060649204E+03  0.00000000000E+00 0.  1.
         13    1    3    3    0    0  0.35277317959E+02 -0.10203371110E+03  0.40983061717E+02  0.11547717831E+03  0.00000000000E+00 0. -1.
         21    1    1    2  502  501 -0.10031509925E+03 -0.75485904287E+01  0.86665210554E+02  0.13278162175E+03  0.00000000000E+00 0.  1.
         21    1    1    2  503  502  0.13128141978E+01 -0.43496248672E+02  0.23711527818E+03  0.24107530416E+03  0.00000000000E+00 0.  1.
<scales pt_clust_5="13000.00000" pt_clust_6="13000.00000" pt_clust_7="13000.00000" pt_clust_8="13000.00000" pt_clust_9="100.97537" pt_clust_10="43.51606"></scales>
<clustering>
<clus scale="   43.516">  1 10  2 -1</clus>
<clus scale="   90.904">  5  6 -1 -1</clus>
<clus scale="   91.322">  7  8 -1 -1</clus>
<clus scale="  100.975">  2  9  1 -1</clus>
<clus scale="  257.888">  1  5  2 -1</clus>
<clus scale="   43.516">  1  5  2 -1</clus>
</clustering>
</event>
<event>
10    2  0.1133532E-006  0.2148493E+03  0.7546771E-02  0.1138242E+00
          3   -1    0    0  503    0  0.00000000000E+00  0.00000000000E+00  0.69069571997E+03  0.69069571997E+03  0.00000000000E+00 0. -1.
         -3   -1    0    0    0  501 -0.00000000000E+00 -0.00000000000E+00 -0.16718169081E+03  0.16718169081E+03  0.00000000000E+00 0.  1.
         23    2    1    2    0    0 -0.16122844636E+03  0.17003469720E+02  0.16633265973E+03  0.25071817936E+03  0.94389204211E+02 0.  0.
         23    2    1    2    0    0  0.19303149731E+03 -0.13158049669E+03  0.34872432001E+03  0.42904299100E+03  0.88851846869E+02 0.  0.
        -13    1    3    3    0    0 -0.66375830265E+02  0.53108856904E+02  0.62407407324E+02  0.10545608571E+03  0.00000000000E+00 0. -1.
         13    1    3    3    0    0 -0.94852616092E+02 -0.36105387184E+02  0.10392525240E+03  0.14526209365E+03  0.00000000000E+00 0.  1.
        -13    1    4    4    0    0  0.83510943698E+02 -0.87470925700E+01  0.96969920662E+02  0.12827219051E+03  0.00000000000E+00 0. -1.
         13    1    4    4    0    0  0.10952055361E+03 -0.12283340412E+03  0.25175439935E+03  0.30077080048E+03  0.00000000000E+00 0.  1.
         21    1    1    2  502  501 -0.27169668777E+02  0.13717857539E+03 -0.20233897182E+02  0.14129955075E+03  0.00000000000E+00 0. -1.
         21    1    1    2  503  502 -0.46333821747E+01 -0.22601548420E+02  0.28690946608E+02  0.36816689676E+02  0.00000000000E+00 0.  1.
<scales pt_clust_5="13000.00000" pt_clust_6="13000.00000" pt_clust_7="13000.00000" pt_clust_8="13000.00000" pt_clust_9="137.88879" pt_clust_10="23.07159"></scales>
<clustering>
<clus scale="   23.072">  1 10  2 -1</clus>
<clus scale="   88.852">  7  8 -1 -1</clus>
<clus scale="   94.389">  5  6 -1 -1</clus>
<clus scale="  137.889">  2  9  1 -1</clus>
<clus scale="  212.475">  1  7  2 -1</clus>
<clus scale="   23.072">  1  5  2 -1</clus>
</clustering>
</event>
<event>
10    2  0.1133532E-006  0.2071577E+03  0.7546771E-02  0.1144360E+00
          1   -1    0    0  503    0  0.00000000000E+00  0.00000000000E+00  0.98755937157E+03  0.98755937157E+03  0.00000000000E+00 0. -1.
         -1   -1    0    0    0  501 -0.00000000000E+00 -0.00000000000E+00 -0.16463191850E+03  0.16463191850E+03  0.00000000000E+00 0.  1.
         23    2    1    2    0    0  0.21296711593E+03 -0.24249792666E+02  0.15376849222E+01  0.23540910026E+03  0.97324380791E+02 0.  0.
         23    2    1    2    0    0 -0.14348950009E+03  0.73696895923E+02  0.73404292263E+03  0.75713220897E+03  0.91704419115E+02 0.  0.
        -11    1    3    3    0    0  0.98610762692E+02  0.31497587430E+02  0.23889172276E+02  0.10623969637E+03  0.00000000000E+00 0. -1.
         11    1    3    3    0    0  0.11435635324E+03 -0.55747380096E+02 -0.22351487354E+02  0.12916940389E+03  0.00000000000E+00 0.  1.
        -13    1    4    4    0    0 -0.78069119603E+02  0.93537957500E+01  0.19364474706E+03  0.20899896888E+03  0.00000000000E+00 0.  1.
         13    1    4    4    0    0 -0.65420380483E+02  0.64343100173E+02  0.54039817558E+03  0.54813324009E+03  0.00000000000E+00 0. -1.
         21    1    1    2  502  501 -0.40882639922E+02 -0.39461105048E+02 -0.10005526537E+02  0.57694710502E+02  0.00000000000E+00 0. -1.
         21    1    1    2  503  502 -0.28594975923E+02 -0.99859982085E+01  0.97352372047E+02  0.10195527035E+03  0.00000000000E+00 0. -1.
<scales pt_clust_5="13000.00000" pt_clust_6="13000.00000" pt_clust_7="13000.00000" pt_clust_8="13000.00000" pt_clust_9="57.56027" pt_clust_10="30.28849"></scales>
<clustering>
<clus scale="   30.288">  1 10  2 -1</clus>
<clus scale="   57.560">  2  9  1 -1</clus>
<clus scale="   91.704">  7  8 -1 -1</clus>
<clus scale="   97.324">  5  6 -1 -1</clus>
<clus scale="  204.578">  1  7  2 -1</clus>
<clus scale="   30.288">  1  5  2 -1</clus>
</clustering>
</event>
<event>
10    2  0.1133532E-006  0.1257133E+03  0.7546771E-02  0.1234899E+00
         -1   -1    0    0    0  501 -0.00000000000E+00  0.00000000000E+00  0.43235088367E+03  0.43235088367E+03  0.00000000000E+00 0.  1.
          1   -1    0    0  503    0  0.00000000000E+00 -0.00000000000E+00 -0.27963927228E+03  0.27963927228E+03  0.00000000000E+00 0. -1.
         23    2    1    2    0    0 -0.30650099944E+02 -0.38673640890E+02  0.56725976420E+02  0.11769470052E+03  0.90549030940E+02 0.  0.
         23    2    1    2    0    0  0.64681109809E+02  0.45891762069E+02 -0.16786199656E+03  0.20800062882E+03  0.93791854170E+02 0.  0.
        -11    1    3    3    0    0 -0.50154746115E+02 -0.57298203721E+02  0.42411171521E+02  0.87162435586E+02  0.00000000000E+00 0.  1.
         11    1    3    3    0    0  0.19504646171E+02  0.18624562831E+02  0.14314804899E+02  0.30532264937E+02  0.00000000000E+00 0. -1.
        -13    1    4    4    0    0  0.34874308216E+02 -0.24578814615E+02 -0.85668849520E+02  0.95705210305E+02  0.00000000000E+00 0.  1.
         13    1    4    4    0    0  0.29806801593E+02  0.70470576683E+02 -0.82193147044E+02  0.11229541852E+03  0.00000000000E+00 0. -1.
         21    1    1    2  502  501 -0.40419595754E+02 -0.28585831315E+02  0.32107810765E+03  0.32487235137E+03  0.00000000000E+00 0.  1.
         21    1    1    2  503  502  0.63885858886E+01  0.21367710136E+02 -0.57230476120E+02  0.61422475227E+02  0.00000000000E+00 0.  1.
<scales pt_clust_5="13000.00000" pt_clust_6="13000.00000" pt_clust_7="13000.00000" pt_clust_8="13000.00000" pt_clust_9="49.35548" pt_clust_10="22.30231"></scales>
<clustering>
<clus scale="   22.302">  2 10  1 -1</clus>
<clus scale="   49.355">  1  9  2 -1</clus>
<clus scale="   90.549">  5  6 -1 -1</clus>
<clus scale="   93.792">  7  8 -1 -1</clus>
<clus scale="  123.313">  1  5  2 -1</clus>
<clus scale="   22.302">  2  5  1 -1</clus>
</clustering>
</event>
<event>
10    2  0.1133532E-006  0.1670534E+03  0.7546771E-02  0.1181078E+00
         -1   -1    0    0    0  501 -0.00000000000E+00  0.00000000000E+00  0.54525416519E+02  0.54525416519E+02  0.00000000000E+00 0.  1.
          1   -1    0    0  503    0  0.00000000000E+00 -0.00000000000E+00 -0.10883674846E+04  0.10883674846E+04  0.00000000000E+00 0. -1.
         23    2    1    2    0    0  0.12295287716E+03  0.53475086339E+01 -0.29949230613E+03  0.33678535536E+03  0.92643015401E+02 0.  0.
         23    2    1    2    0    0 -0.15747603961E+03 -0.96838400707E+01 -0.44144100112E+03  0.47769501368E+03  0.91814425973E+02 0.  0.
        -11    1    4    4    0    0 -0.12093231838E+03  0.45708284123E+01 -0.40980914852E+03  0.42730440708E+03  0.00000000000E+00 0. -1.
         11    1    4    4    0    0 -0.36543721228E+02 -0.14254668483E+02 -0.31631852608E+02  0.50390606606E+02  0.00000000000E+00 0.  1.
        -13    1    3    3    0    0  0.11409697853E+03  0.37884897986E+02 -0.22881092297E+03  0.25847209613E+03  0.00000000000E+00 0. -1.
         13    1    3    3    0    0  0.88558986321E+01 -0.32537389353E+02 -0.70681383152E+02  0.78313259227E+02  0.00000000000E+00 0.  1.
         21    1    1    2  502  501  0.90191516013E+01  0.32548966625E+02 -0.74481678110E+00  0.33783651016E+02  0.00000000000E+00 0.  1.
         21    1    1    2  503  502  0.25504010844E+02 -0.28212635188E+02 -0.29216394401E+03  0.29462888102E+03  0.00000000000E+00 0. -1.
<scales pt_clust_5="13000.00000" pt_clust_6="13000.00000" pt_clust_7="13000.00000" pt_clust_8="13000.00000" pt_clust_9="33.77544" pt_clust_10="37.45622"></scales>
<clustering>
<clus scale="   33.775">  1  9  2 -1</clus>
<clus scale="   37.456">  2 10  1 -1</clus>
<clus scale="   91.814">  5  6 -1 -1</clus>
<clus scale="   92.643">  7  8 -1 -1</clus>
<clus scale="  166.595">  2  5  1 -1</clus>
<clus scale="   37.456">  2  5  1 -1</clus>
</clustering>
</event>
<event>
10    2  0.1133532E-006  0.1349535E+03  0.7546771E-02  0.1222099E+00
         -1   -1    0    0    0  501 -0.00000000000E+00  0.00000000000E+00  0.22613646700E+03  0.22613646700E+03  0.00000000000E+00 0.  1.
          1   -1    0    0  503    0  0.00000000000E+00 -0.00000000000E+00 -0.48191584744E+03  0.48191584744E+03  0.00000000000E+00 0. -1.
         23    2    1    2    0    0 -0.63087947320E+02  0.85802237079E+02  0.40429660474E+02  0.14260574766E+03  0.85788861947E+02 0.  0.
         23    2    1    2    0    0  0.43338352930E+02 -0.15369582213E+02 -0.13142499783E+03  0.16757060642E+03  0.93235943653E+02 0.  0.
        -13    1    3    3    0    0 -0.25831241697E+02  0.51687500864E+02 -0.22412235363E+02  0.61977085178E+02  0.00000000000E+00 0. -1.
         13    1    3    3    0    0 -0.37256705623E+02  0.34114736215E+02  0.62841895837E+02  0.80628662480E+02  0.00000000000E+00 0.  1.
        -13    1    4    4    0    0  0.38455033583E+02  0.34815305634E+02 -0.81539566224E+02  0.96641585119E+02  0.00000000000E+00 0.  1.
         13    1    4    4    0    0  0.48833193466E+01 -0.50184887846E+02 -0.49885431603E+02  0.70929021298E+02  0.00000000000E+00 0. -1.
         21    1    1    2  502  501 -0.59571562142E+01  0.25827535715E+02  0.10604193648E+03  0.10930435309E+03  0.00000000000E+00 0.  1.
         21    1    1    2  503  502  0.25706750605E+02 -0.96260190581E+02 -0.27082597957E+03  0.28857160728E+03  0.00000000000E+00 0. -1.
<scales pt_clust_5="13000.00000" pt_clust_6="13000.00000" pt_clust_7="13000.00000" pt_clust_8="13000.00000" pt_clust_9="26.50565" pt_clust_10="97.64957"></scales>
<clustering>
<clus scale="   26.506">  1  9  2 -1</clus>
<clus scale="   85.789">  5  6 -1 -1</clus>
<clus scale="   93.236">  7  8 -1 -1</clus>
<clus scale="   97.650">  2 10  1 -1</clus>
<clus scale="  129.920">  1  5  2 -1</clus>
<clus scale="   97.650">  2  5  1 -1</clus>
</clustering>
</event>
<event>
10    2  0.1133532E-006  0.1078319E+03  0.7546771E-02  0.1276646E+00
         -1   -1    0    0    0  501 -0.00000000000E+00  0.00000000000E+00  0.19481664178E+03  0.19481664178E+03  0.00000000000E+00 0.  1.
          1   -1    0    0  503    0  0.00000000000E+00 -0.00000000000E+00 -0.15291936654E+03  0.15291936654E+03  0.00000000000E+00 0. -1.
         23    2    1    2    0    0  0.80529897981E+02 -0.16468805583E+02  0.56323611320E+02  0.11810722909E+03  0.63408850677E+02 0.  0.
         23    2    1    2    0    0 -0.35582337646E+02  0.39786000357E+02 -0.34390762072E+01  0.10581960773E+03  0.91306810028E+02 0.  0.
        -13    1    3    3    0    0  0.42267045207E+02 -0.18196103431E+02 -0.44911696348E+01  0.46236045412E+02  0.00000000000E+00 0. -1.
         13    1    3    3    0    0  0.38262852773E+02  0.17272978481E+01  0.60814780955E+02  0.71871183674E+02  0.00000000000E+00 0.  1.
        -13    1    4    4    0    0 -0.55930036866E+02 -0.23761335251E+01  0.10535077603E+02  0.56963171387E+02  0.00000000000E+00 0. -1.
         13    1    4    4    0    0  0.20347699220E+02  0.42162133882E+02 -0.13974153810E+02  0.48856436339E+02  0.00000000000E+00 0.  1.
         21    1    1    2  502  501 -0.39837488857E+02  0.18678104554E+02  0.38668239553E+02  0.58575847056E+02  0.00000000000E+00 0. -1.
         21    1    1    2  503  502 -0.51100714777E+01 -0.41995299329E+02 -0.49655499420E+02  0.65233324450E+02  0.00000000000E+00 0. -1.
<scales pt_clust_5="13000.00000" pt_clust_6="13000.00000" pt_clust_7="13000.00000" pt_clust_8="13000.00000" pt_clust_9="42.82806" pt_clust_10="42.30506"></scales>
<clustering>
<clus scale="   42.305">  2 10  1 -1</clus>
<clus scale="   42.828">  1  9  2 -1</clus>
<clus scale="   63.409">  5  6 -1 -1</clus>
<clus scale="   85.507">  1  5  2 -1</clus>
<clus scale="   91.307">  7  8 -1 -1</clus>
<clus scale="   42.305">  2  5  1 -1</clus>
</clustering>
</event>
<event>
10    2  0.1133532E-006  0.2036909E+03  0.7546771E-02  0.1147051E+00
         -2   -1    0    0    0  501 -0.00000000000E+00  0.00000000000E+00  0.13001949167E+03  0.13001949167E+03  0.00000000000E+00 0.  1.
          2   -1    0    0  503    0  0.00000000000E+00 -0.00000000000E+00 -0.61093513535E+03  0.61093513535E+03  0.00000000000E+00 0. -1.
         23    2    1    2    0    0  0.12612920917E+03 -0.12358595016E+03 -0.87155570222E+02  0.21791780307E+03  0.93327439669E+02 0.  0.
         23    2    1    2    0    0 -0.17009066572E+03  0.91676870732E+02 -0.21397886118E+03  0.30177896823E+03  0.89152170136E+02 0.  0.
        -11    1    3    3    0    0  0.94833944078E+02 -0.12844660125E+03 -0.46330044182E+02  0.16624824606E+03  0.00000000000E+00 0.  1.
         11    1    3    3    0    0  0.31295265090E+02  0.48606510972E+01 -0.40825526040E+02  0.51669557019E+02  0.00000000000E+00 0. -1.
        -13    1    4    4    0    0 -0.19617260880E+02  0.29055719494E+02 -0.30107685410E+01  0.35187163667E+02  0.00000000000E+00 0.  1.
         13    1    4    4    0    0 -0.15047340484E+03  0.62621151238E+02 -0.21096809264E+03  0.26659180456E+03  0.00000000000E+00 0. -1.
         21    1    1    2  502  501  0.53636352837E+02  0.61201166264E+02 -0.70380873293E+02  0.10759139568E+03  0.00000000000E+00 0.  1.
         21    1    1    2  503  502 -0.96748962837E+01 -0.29292086841E+02 -0.10940033898E+03  0.11366646004E+03  0.00000000000E+00 0. -1.
<scales pt_clust_5="13000.00000" pt_clust_6="13000.00000" pt_clust_7="13000.00000" pt_clust_8="13000.00000" pt_clust_9="76.34694" pt_clust_10="30.84850"></scales>
<clustering>
<clus scale="   30.849">  2 10  1 -1</clus>
<clus scale="   76.347">  2  9  1 -1</clus>
<clus scale="   89.152">  7  8 -1 -1</clus>
<clus scale="   93.327">  5  6 -1 -1</clus>
<clus scale="  201.812">  2  7  1 -1</clus>
<clus scale="   30.849">  2  5  1 -1</clus>
</clustering>
</event>
<event>
10    2  0.1133532E-006  0.2731353E+03  0.7546771E-02  0.1125568E+00
          2   -1    0    0  503    0  0.00000000000E+00  0.00000000000E+00  0.29493760080E+03  0.29493760080E+03  0.00000000000E+00 0. -1.
         -2   -1    0    0    0  501 -0.00000000000E+00 -0.00000000000E+00 -0.99120944387E+03  0.99120944387E+03  0.00000000000E+00 0.  1.
         23    2    1    2    0    0 -0.17750209261E+03  0.23534029654E+02 -0.10699256228E+03  0.22809316815E+03  0.92294320182E+02 0.  0.
         23    2    1    2    0    0 -0.12316581484E+03 -0.24517127744E+01  0.14571941298E+03  0.20704777704E+03  0.80366695951E+02 0.  0.
        -11    1    3    3    0    0 -0.14510681733E+03  0.41039173944E+01 -0.39001364469E+02  0.15031279721E+03  0.00000000000E+00 0. -1.
         11    1    3    3    0    0 -0.32395275278E+02  0.19430112259E+02 -0.67991197814E+02  0.77780370936E+02  0.00000000000E+00 0.  1.
        -13    1    4    4    0    0 -0.84241259552E+02  0.15590634086E+02  0.43272249229E+02  0.95979921002E+02  0.00000000000E+00 0. -1.
         13    1    4    4    0    0 -0.38924555286E+02 -0.18042346860E+02  0.10244716375E+03  0.11106785604E+03  0.00000000000E+00 0.  1.
         21    1    1    2  502  501  0.28913831433E+03 -0.39541700965E+02 -0.76220687265E+03  0.81616409357E+03  0.00000000000E+00 0.  1.
         21    1    1    2  503  502  0.11529593120E+02  0.18459384086E+02  0.27208178874E+02  0.34842005912E+02  0.00000000000E+00 0.  1.
<scales pt_clust_5="13000.00000" pt_clust_6="13000.00000" pt_clust_7="13000.00000" pt_clust_8="13000.00000" pt_clust_9="257.06939" pt_clust_10="21.76420"></scales>
<clustering>
<clus scale="   21.764">  1 10  2 -1</clus>
<clus scale="   80.367">  7  8 -1 -1</clus>
<clus scale="   92.294">  5  6 -1 -1</clus>
<clus scale="  141.023">  1  7  2 -1</clus>
<clus scale="  257.069">  2  9  1 -1</clus>
<clus scale="   21.764">  1  5  2 -1</clus>
</clustering>
</event>
<event>
10    2  0.1133532E-006  0.1609538E+03  0.7546771E-02  0.1190648E+00
         -2   -1    0    0    0  501 -0.00000000000E+00  0.00000000000E+00  0.12176230478E+03  0.12176230478E+03  0.00000000000E+00 0.  1.
          2   -1    0    0  503    0  0.00000000000E+00 -0.00000000000E+00 -0.43117374756E+03  0.43117374756E+03  0.00000000000E+00 0. -1.
         23    2    1    2    0    0  0.10754267300E+03 -0.31810985224E+01  0.20465784819E+02  0.15456595436E+03  0.10906988583E+03 0.  0.
         23    2    1    2    0    0 -0.10552364061E+03  0.43526278655E+01 -0.21659424564E+03  0.25829903306E+03  0.93011500032E+02 0.  0.
        -11    1    3    3    0    0  0.11391358563E+03 -0.34749697250E+02  0.59604844751E+01  0.11924501593E+03  0.00000000000E+00 0.  1.
         11    1    3    3    0    0 -0.63709126300E+01  0.31568598728E+02  0.14505300344E+02  0.35320938428E+02  0.00000000000E+00 0. -1.
        -11    1    4    4    0    0 -0.98693709636E+02  0.24572660720E+02 -0.21382036270E+03  0.23677713462E+03  0.00000000000E+00 0. -1.
         11    1    4    4    0    0 -0.68299309715E+01 -0.20220032855E+02 -0.27738829448E+01  0.21521898436E+02  0.00000000000E+00 0.  1.
         21    1    1    2  502  501  0.20939089149E+02 -0.14382295281E+02 -0.17797862745E+01  0.25464946713E+02  0.00000000000E+00 0.  1.
         21    1    1    2  503  502 -0.22958121536E+02  0.13210765938E+02 -0.11150319569E+03  0.11460611820E+03  0.00000000000E+00 0.  1.
<scales pt_clust_5="13000.00000" pt_clust_6="13000.00000" pt_clust_7="13000.00000" pt_clust_8="13000.00000" pt_clust_9="25.40267" pt_clust_10="26.13033"></scales>
<clustering>
<clus scale="   25.403">  1  9  2 -1</clus>
<clus scale="   26.130">  2 10  1 -1</clus>
<clus scale="   93.012">  7  8 -1 -1</clus>
<clus scale="  109.070">  5  6 -1 -1</clus>
<clus scale="  150.536">  2  7  1 -1</clus>
<clus scale="   26.130">  2  5  1 -1</clus>
</clustering>
</event>
<event>
10    2  0.1133532E-006  0.9537203E+02  0.7546771E-02  0.1290451E+00
          1   -1    0    0  503    0  0.00000000000E+00  0.00000000000E+00  0.49764014546E+03  0.49764014546E+03  0.00000000000E+00 0. -1.
         -1   -1    0    0    0  501 -0.00000000000E+00 -0.00000000000E+00 -0.15571901015E+03  0.15571901015E+03  0.00000000000E+00 0.  1.
         23    2    1    2    0    0  0.11450380994E+02 -0.26534243571E+02 -0.12029375725E+02  0.96214732107E+02  0.90980170847E+02 0.  0.
         23    2    1    2    0    0  0.15571208938E+02 -0.18687411395E+01  0.25293494570E+03  0.26918736659E+03  0.90773326663E+02 0.  0.
        -11    1    3    3    0    0  0.35071353702E+02  0.20186748557E+02 -0.16436700541E+02  0.43676879381E+02  0.00000000000E+00 0.  1.
         11    1    3    3    0    0 -0.23620972708E+02 -0.46720992128E+02  0.44073248161E+01  0.52537852727E+02  0.00000000000E+00 0. -1.
        -13    1    4    4    0    0  0.37775700214E+02  0.32172699727E+02  0.11179133423E+03  0.12230857919E+03  0.00000000000E+00 0. -1.
         13    1    4    4    0    0 -0.22204491276E+02 -0.34041440866E+02  0.14114361147E+03  0.14687878740E+03  0.00000000000E+00 0.  1.
         21    1    1    2  502  501  0.26961660390E+02  0.12971357350E+02 -0.86861491033E+02  0.91870048802E+02  0.00000000000E+00 0.  1.
         21    1    1    2  503  502 -0.53983250322E+02  0.15431627361E+02  0.18787705636E+03  0.19608700810E+03  0.00000000000E+00 0. -1.
<scales pt_clust_5="13000.00000" pt_clust_6="13000.00000" pt_clust_7="13000.00000" pt_clust_8="13000.00000" pt_clust_9="29.91968" pt_clust_10="54.77620"></scales>
<clustering>
<clus scale="   29.920">  2  9  1 -1</clus>
<clus scale="   54.776">  1 10  2 -1</clus>
<clus scale="   90.773">  7  8 -1 -1</clus>
<clus scale="   90.980">  5  6 -1 -1</clus>
<clus scale="   95.175">  1  7  2 -1</clus>
<clus scale="   54.776">  1  5  2 -1</clus>
</clustering>
</event>
<event>
10    2  0.1133532E-006  0.1364003E+03  0.7546771E-02  0.1219689E+00
         -2   -1    0    0    0  501 -0.00000000000E+00  0.00000000000E+00  0.13264976608E+03  0.13264976608E+03  0.00000000000E+00 0.  1.
          2   -1    0    0  503    0  0.00000000000E+00 -0.00000000000E+00 -0.74282358110E+03  0.74282358110E+03  0.00000000000E+00 0. -1.
         23    2    1    2    0    0 -0.13270377510E+02 -0.10345387045E+03 -0.31511972054E+03  0.34584478783E+03  0.97104957482E+02 0.  0.
         23    2    1    2    0    0  0.43113795757E+01  0.89362588958E+02 -0.30453229928E+03  0.33028064217E+03  0.91329737696E+02 0.  0.
        -11    1    3    3    0    0 -0.49988144544E+02 -0.62753832434E+02 -0.23852421034E+03  0.25165583045E+03  0.00000000000E+00 0. -1.
         11    1    3    3    0    0  0.36717767034E+02 -0.40700038018E+02 -0.76595510203E+02  0.94188957388E+02  0.00000000000E+00 0.  1.
        -13    1    4    4    0    0 -0.42241231080E+02  0.35942054720E+02 -0.10888228430E+03  0.12219453644E+03  0.00000000000E+00 0. -1.
         13    1    4    4    0    0  0.46552610655E+02  0.53420534239E+02 -0.19565001498E+03  0.20808610573E+03  0.00000000000E+00 0.  1.
         21    1    1    2  502  501  0.33678612732E+02  0.17754770278E+02  0.99176827016E+02  0.10623334618E+03  0.00000000000E+00 0.  1.
         21    1    1    2  503  502 -0.24719614797E+02 -0.36634887851E+01 -0.89698622210E+02  0.93114570999E+02  0.00000000000E+00 0. -1.
<scales pt_clust_5="13000.00000" pt_clust_6="13000.00000" pt_clust_7="13000.00000" pt_clust_8="13000.00000" pt_clust_9="37.94438" pt_clust_10="24.98961"></scales>
<clustering>
<clus scale="   24.990">  2 10  1 -1</clus>
<clus scale="   37.944">  1  9  2 -1</clus>
<clus scale="   91.330">  7  8 -1 -1</clus>
<clus scale="   97.105">  5  6 -1 -1</clus>
<clus scale="  132.351">  2  7  1 -1</clus>
<clus scale="   24.990">  2  5  1 -1</clus>
</clustering>
</event>
<event>
10    2  0.1133532E-006  0.1226564E+03  0.7546771E-02  0.1239763E+00
          1   -1    0    0  503    0  0.00000000000E+00  0.00000000000E+00  0.59894242013E+03  0.59894242013E+03  0.00000000000E+00 0. -1.
         -1   -1    0    0    0  501 -0.00000000000E+00 -0.00000000000E+00 -0.15589137843E+03  0.15589137843E+03  0.00000000000E+00 0.  1.
         23    2    1    2    0    0 -0.98638108170E+02 -0.18902019093E+02  0.22602697683E+03  0.26366731440E+03  0.91353684750E+02 0.  0.
         23    2    1    2    0    0  0.63344374072E+02  0.35429853387E+02  0.28279583345E+03  0.30495205444E+03  0.88059569917E+02 0.  0.
        -11    1    3    3    0    0 -0.38801267647E+02  0.38151386812E+01  0.12791139887E+02  0.41032997865E+02  0.00000000000E+00 0.  1.
         11    1    3    3    0    0 -0.59836840523E+02 -0.22717157774E+02  0.21323583694E+03  0.22263431653E+03  0.00000000000E+00 0. -1.
        -11    1    4    4    0    0 -0.13317119623E+02  0.28795807349E+02  0.13074817824E+03  0.13454229933E+03  0.00000000000E+00 0.  1.
         11    1    4    4    0    0  0.76661493695E+02  0.66340460381E+01  0.15204765521E+03  0.17040975511E+03  0.00000000000E+00 0. -1.
         21    1    1    2  502  501  0.74595261819E+01  0.21641331271E+02 -0.11542869242E+03  0.11767656854E+03  0.00000000000E+00 0.  1.
         21    1    1    2  503  502  0.27834207917E+02 -0.38169165565E+02  0.49656923843E+02  0.68537861185E+02  0.00000000000E+00 0. -1.
<scales pt_clust_5="13000.00000" pt_clust_6="13000.00000" pt_clust_7="13000.00000" pt_clust_8="13000.00000" pt_clust_9="22.89087" pt_clust_10="44.32830"></scales>
<clustering>
<clus scale="   22.891">  2  9  1 -1</clus>
<clus scale="   44.328">  2 10  1 -1</clus>
<clus scale="   88.060">  7  8 -1 -1</clus>
<clus scale="   91.354">  5  6 -1 -1</clus>
<clus scale="  120.223">  1  7  2 -1</clus>
<clus scale="  120.223">  1  5  2 -1</clus>
</clustering>
</event>
<event>
10    2  0.1133532E-006  0.1225616E+03  0.7546771E-02  0.1241021E+00
         -2   -1    0    0    0  501 -0.00000000000E+00  0.00000000000E+00  0.45709783398E+02  0.45709783398E+02  0.00000000000E+00 0.  1.
          2   -1    0    0  503    0  0.00000000000E+00 -0.00000000000E+00 -0.87058822428E+03  0.87058822428E+03  0.00000000000E+00 0. -1.
         23    2    1    2    0    0  0.94958031775E+02 -0.53008829213E+01 -0.23559171480E+03  0.27197626586E+03  0.97069593343E+02 0.  0.
         23    2    1    2    0    0 -0.49396225324E+02  0.34497819579E+02 -0.41455799214E+03  0.42858813483E+03  0.90550393913E+02 0.  0.
        -13    1    3    3    0    0  0.15104919106E+02  0.27749510761E+02 -0.13821473161E+03  0.14177977981E+03  0.00000000000E+00 0.  1.
         13    1    3    3    0    0  0.79853112669E+02 -0.33050393682E+02 -0.97376983189E+02  0.13019648605E+03  0.00000000000E+00 0. -1.
        -13    1    4    4    0    0 -0.51224332700E+02  0.61897608451E+02 -0.33197618890E+03  0.34156029656E+03  0.00000000000E+00 0.  1.
         13    1    4    4    0    0  0.18281073761E+01 -0.27399788872E+02 -0.82581803242E+02  0.87027838268E+02  0.00000000000E+00 0. -1.
         21    1    1    2  502  501 -0.18715603044E+02 -0.74726653302E+01  0.13569266207E+02  0.24294845335E+02  0.00000000000E+00 0.  1.
         21    1    1    2  503  502 -0.26846203407E+02 -0.21724271327E+02 -0.18829800015E+03  0.19143876165E+03  0.00000000000E+00 0. -1.
<scales pt_clust_5="13000.00000" pt_clust_6="13000.00000" pt_clust_7="13000.00000" pt_clust_8="13000.00000" pt_clust_9="20.15228" pt_clust_10="35.66555"></scales>
<clustering>
<clus scale="   20.152">  1  9  2 -1</clus>
<clus scale="   35.666">  2 10  1 -1</clus>
<clus scale="   90.550">  7  8 -1 -1</clus>
<clus scale="   97.070">  5  6 -1 -1</clus>
<clus scale="  117.466">  2  7  1 -1</clus>
<clus scale="   35.666">  2  5  1 -1</clus>
</clustering>
</event>
<event>
10    2  0.1133532E-006  0.1186819E+03  0.7546771E-02  0.1245811E+00
          1   -1    0    0  503    0  0.00000000000E+00  0.00000000000E+00  0.40643940530E+03  0.40643940530E+03  0.00000000000E+00 0. -1.
         -1   -1    0    0    0  501 -0.00000000000E+00 -0.00000000000E+00 -0.50963068001E+03  0.50963068001E+03  0.00000000000E+00 0.  1.
         23    2    1    2    0    0  0.49629232959E+02 -0.25999287212E+02 -0.63949180805E+02  0.12528123077E+03  0.92015571278E+02 0.  0.
         23    2    1    2    0    0  0.41709209053E+01  0.51944880855E+02  0.31663469138E+03  0.33338612386E+03  0.90405268504E+02 0.  0.
        -13    1    4    4    0    0 -0.23049907322E+02  0.66702447472E+02  0.18122682143E+03  0.19448309832E+03  0.00000000000E+00 0. -1.
         13    1    4    4    0    0  0.27220828227E+02 -0.14757566617E+02  0.13540786995E+03  0.13890302555E+03  0.00000000000E+00 0.  1.
        -13    1    3    3    0    0 -0.23882278463E+02  0.34755095648E+01 -0.31521198161E+02  0.39699223227E+02  0.00000000000E+00 0. -1.
         13    1    3    3    0    0  0.73511511421E+02 -0.29474796777E+02 -0.32427982644E+02  0.85582007542E+02  0.00000000000E+00 0.  1.
         21    1    1    2  502  501 -0.87529126095E+01 -0.51529712245E+02 -0.39121578120E+03  0.39469192060E+03  0.00000000000E+00 0.  1.
         21    1    1    2  503  502 -0.45047241255E+02  0.25584118602E+02  0.35338995917E+02  0.62710810086E+02  0.00000000000E+00 0. -1.
<scales pt_clust_5="13000.00000" pt_clust_6="13000.00000" pt_clust_7="13000.00000" pt_clust_8="13000.00000" pt_clust_9="52.18238" pt_clust_10="51.80542"></scales>
<clustering>
<clus scale="   51.805">  1 10  2 -1</clus>
<clus scale="   52.182">  2  9  1 -1</clus>
<clus scale="   90.405">  5  6 -1 -1</clus>
<clus scale="   92.016">  7  8 -1 -1</clus>
<clus scale="  117.438">  1  5  2 -1</clus>
<clus scale="   51.805">  1  5  2 -1</clus>
</clustering>
</event>
<event>
10    2  0.1133532E-006  0.1076807E+03  0.7546771E-02  0.1265519E+00
         -2   -1    0    0    0  501 -0.00000000000E+00  0.00000000000E+00  0.41068719465E+03  0.41068719465E+03  0.00000000000E+00 0.  1.
          2   -1    0    0  503    0  0.00000000000E+00 -0.00000000000E+00 -0.70119368289E+02  0.70119368289E+02  0.00000000000E+00 0. -1.
         23    2    1    2    0    0 -0.64529967369E+02  0.34628177491E+02  0.18751216624E+03  0.22078472646E+03  0.90674448344E+02 0.  0.
         23    2    1    2    0    0  0.23602726144E+02 -0.47513505015E+02  0.27117268117E+02  0.10971272698E+03  0.92124450562E+02 0.  0.
        -11    1    3    3    0    0 -0.33469728738E+02 -0.19140915368E+02  0.13192336648E+03  0.13744224971E+03  0.00000000000E+00 0. -1.
         11    1    3    3    0    0 -0.31060238632E+02  0.53769092859E+02  0.55588799766E+02  0.83342476746E+02  0.00000000000E+00 0.  1.
        -13    1    4    4    0    0  0.49842769596E+02 -0.20727940850E+02  0.42977065364E+02  0.68999835943E+02  0.00000000000E+00 0.  1.
         13    1    4    4    0    0 -0.26240043452E+02 -0.26785564165E+02 -0.15859797247E+02  0.40712891039E+02  0.00000000000E+00 0. -1.
         21    1    1    2  502  501 -0.30807646028E+01 -0.19927185191E+02  0.66093399334E+02  0.69100805029E+02  0.00000000000E+00 0. -1.
         21    1    1    2  503  502  0.44008005828E+02  0.32812512716E+02  0.59844992667E+02  0.81208304470E+02  0.00000000000E+00 0.  1.
<scales pt_clust_5="13000.00000" pt_clust_6="13000.00000" pt_clust_7="13000.00000" pt_clust_8="13000.00000" pt_clust_9="20.16392" pt_clust_10="52.01910"></scales>
<clustering>
<clus scale="   20.164">  1  9  2 -1</clus>
<clus scale="   52.019">  1 10  2 -1</clus>
<clus scale="   90.674">  5  6 -1 -1</clus>
<clus scale="   92.124">  7  8 -1 -1</clus>
<clus scale="  106.443">  1  5  2 -1</clus>
<clus scale="  107.681">  2  5  1 -1</clus>
</clustering>
</event>
<event>
10    2  0.1133532E-006  0.1234845E+03  0.7546771E-02  0.1237758E+00
          1   -1    0    0  503    0  0.00000000000E+00  0.00000000000E+00  0.24187939127E+03  0.24187939127E+03  0.00000000000E+00 0. -1.
         -1   -1    0    0    0  501 -0.00000000000E+00 -0.00000000000E+00 -0.25432270526E+03  0.25432270526E+03  0.00000000000E+00 0.  1.
         23    2    1    2    0    0  0.35105745579E+02 -0.10872161313E+03 -0.11649607732E+03  0.18639082851E+03  0.90096628043E+02 0.  0.
         23    2    1    2    0    0  0.17569430118E+02  0.67768044767E+02  0.14065176201E+03  0.18059697547E+03  0.89057041421E+02 0.  0.
        -11    1    4    4    0    0  0.72917309331E+01  0.86113000191E+02  0.13218469391E+03  0.15792850106E+03  0.00000000000E+00 0. -1.
         11    1    4    4    0    0  0.10277699185E+02 -0.18344955423E+02  0.84670680963E+01  0.22668474412E+02  0.00000000000E+00 0.  1.
        -13    1    3    3    0    0  0.32753537174E+02 -0.52469972700E+02 -0.11440007681E+03  0.13005102771E+03  0.00000000000E+00 0.  1.
         13    1    3    3    0    0  0.23522084048E+01 -0.56251640435E+02 -0.20960005075E+01  0.56339800799E+02  0.00000000000E+00 0. -1.
         21    1    1    2  502  501 -0.30750459478E+01  0.32374236575E+02 -0.64083716223E+02  0.71862854009E+02  0.00000000000E+00 0. -1.
         21    1    1    2  503  502 -0.49600129749E+02  0.85793317930E+01  0.27484717548E+02  0.57351438551E+02  0.00000000000E+00 0. -1.
<scales pt_clust_5="13000.00000" pt_clust_6="13000.00000" pt_clust_7="13000.00000" pt_clust_8="13000.00000" pt_clust_9="32.51995" pt_clust_10="51.08356"></scales>
<clustering>
<clus scale="   32.520">  2  9  1 -1</clus>
<clus scale="   51.084">  1 10  2 -1</clus>
<clus scale="   89.057">  5  6 -1 -1</clus>
<clus scale="   90.097">  7  8 -1 -1</clus>
<clus scale="  122.728">  1  5  2 -1</clus>
<clus scale="   51.084">  1  5  2 -1</clus>
</clustering>
</event>
<event>
10    2  0.1133532E-006  0.1020281E+03  0.7546771E-02  0.1277118E+00
         -1   -1    0    0    0  501 -0.00000000000E+00  0.00000000000E+00  0.10480311916E+03  0.10480311916E+03  0.00000000000E+00 0.  1.
          1   -1    0    0  503    0  0.00000000000E+00 -0.00000000000E+00 -0.43040673797E+03  0.43040673797E+03  0.00000000000E+00 0. -1.
         23    2    1    2    0    0 -0.39983975076E+02 -0.47124799930E+02 -0.58932265328E+02  0.12475060100E+03  0.90940835283E+02 0.  0.
         23    2    1    2    0    0 -0.17635474231E+02  0.43050958030E+02 -0.16562112070E+03  0.19562027890E+03  0.93126489028E+02 0.  0.
        -11    1    4    4    0    0  0.13236990585E+02 -0.25477417510E+02 -0.51733791066E+02  0.59166729340E+02  0.00000000000E+00 0.  1.
         11    1    4    4    0    0 -0.30872464816E+02  0.68528375540E+02 -0.11388732963E+03  0.13645354956E+03  0.00000000000E+00 0. -1.
        -13    1    3    3    0    0 -0.14824904925E+02 -0.39814822607E+02  0.15978333612E+02  0.45390583278E+02  0.00000000000E+00 0.  1.
         13    1    3    3    0    0 -0.25159070152E+02 -0.73099773230E+01 -0.74910598940E+02  0.79360017722E+02  0.00000000000E+00 0. -1.
         21    1    1    2  502  501  0.37095574243E+02  0.13651600637E+02  0.49075336659E+02  0.63014573683E+02  0.00000000000E+00 0.  1.
         21    1    1    2  503  502  0.20523875064E+02 -0.95777587373E+01 -0.15012556944E+03  0.15182440354E+03  0.00000000000E+00 0. -1.
<scales pt_clust_5="13000.00000" pt_clust_6="13000.00000" pt_clust_7="13000.00000" pt_clust_8="13000.00000" pt_clust_9="39.92773" pt_clust_10="22.64868"></scales>
<clustering>
<clus scale="   22.649">  2 10  1 -1</clus>
<clus scale="   39.928">  1  9  2 -1</clus>
<clus scale="   90.941">  7  8 -1 -1</clus>
<clus scale="   93.126">  5  6 -1 -1</clus>
<clus scale="  100.037">  1  7  2 -1</clus>
<clus scale="   22.649">  2  5  1 -1</clus>
</clustering>
</event>
<event>
10    2  0.1133532E-006  0.1257893E+03  0.7546771E-02  0.1233918E+00
         -1   -1    0    0    0  501 -0.00000000000E+00  0.00000000000E+00  0.20171926006E+03  0.20171926006E+03  0.00000000000E+00 0.  1.
          1   -1    0    0  503    0  0.00000000000E+00 -0.00000000000E+00 -0.25326906468E+03  0.25326906468E+03  0.00000000000E+00 0. -1.
         23    2    1    2    0    0  0.12540262479E+02  0.11031054315E+03  0.10830897083E+03  0.18063762664E+03  0.92592898649E+02 0.  0.
         23    2    1    2    0    0  0.27048939368E+02 -0.66110109504E+02 -0.70544535790E+02  0.13638877422E+03  0.92321040418E+02 0.  0.
        -11    1    4    4    0    0 -0.31016371215E+02 -0.35978991234E+02 -0.47105940548E+02  0.66898974046E+02  0.00000000000E+00 0.  1.
         11    1    4    4    0    0  0.58065310582E+02 -0.30131118270E+02 -0.23438595242E+02  0.69489800174E+02  0.00000000000E+00 0. -1.
        -11    1    3    3    0    0  0.41739664663E+01  0.37001751825E+02 -0.12328995465E+02  0.39224428145E+02  0.00000000000E+00 0. -1.
         11    1    3    3    0    0  0.83662960126E+01  0.73308791329E+02  0.12063796630E+03  0.14141319849E+03  0.00000000000E+00 0.  1.
         21    1    1    2  502  501 -0.28210326570E+02 -0.26125106739E+02  0.71956974597E+01  0.39116771201E+02  0.00000000000E+00 0.  1.
         21    1    1    2  503  502 -0.11378875277E+02 -0.18075326911E+02 -0.96509937121E+02  0.98845152681E+02  0.00000000000E+00 0.  1.
<scales pt_clust_5="13000.00000" pt_clust_6="13000.00000" pt_clust_7="13000.00000" pt_clust_8="13000.00000" pt_clust_9="40.56946" pt_clust_10="21.35875"></scales>
<clustering>
<clus scale="   21.359">  2 10  1 -1</clus>
<clus scale="   40.569">  1  9  2 -1</clus>
<clus scale="   92.321">  5  6 -1 -1</clus>
<clus scale="   92.593">  7  8 -1 -1</clus>
<clus scale="  125.589">  2  5  1 -1</clus>
<clus scale="   21.359">  2  5  1 -1</clus>
</clustering>
</event>
<event>
10    2  0.1133532E-006  0.9593371E+02  0.7546771E-02  0.1290469E+00
         -1   -1    0    0    0  501 -0.00000000000E+00  0.00000000000E+00  0.25236842552E+03  0.25236842552E+03  0.00000000000E+00 0.  1.
          1   -1    0    0  503    0  0.00000000000E+00 -0.00000000000E+00 -0.12951066981E+03  0.12951066981E+03  0.00000000000E+00 0. -1.
         23    2    1    2    0    0  0.25212900771E+01 -0.52951165473E+02  0.11948367035E+03  0.15872349303E+03  0.90036753231E+02 0.  0.
         23    2    1    2    0    0 -0.22106310365E+02 -0.12468847194E+02 -0.53338473562E+02  0.10981876829E+03  0.92579738601E+02 0.  0.
        -11    1    4    4    0    0 -0.14091927234E+01 -0.37461599068E+02 -0.65249317829E+02  0.75251782078E+02  0.00000000000E+00 0. -1.
         11    1    4    4    0    0 -0.20697117642E+02  0.24992751873E+02  0.11910844267E+02  0.34566986216E+02  0.00000000000E+00 0.  1.
        -13    1    3    3    0    0  0.39500152259E+02 -0.30107953507E+02  0.98813933660E+02  0.11059360008E+03  0.00000000000E+00 0.  1.
         13    1    3    3    0    0 -0.36978862182E+02 -0.22843211966E+02  0.20669736688E+02  0.48129892956E+02  0.00000000000E+00 0. -1.
         21    1    1    2  502  501  0.16335171754E+02  0.34173565242E+02  0.69712812109E+02  0.79338178513E+02  0.00000000000E+00 0.  1.
         21    1    1    2  503  502  0.32498485338E+01  0.31246447426E+02 -0.13000253186E+02  0.33998655490E+02  0.00000000000E+00 0.  1.
<scales pt_clust_5="13000.00000" pt_clust_6="13000.00000" pt_clust_7="13000.00000" pt_clust_8="13000.00000" pt_clust_9="39.22342" pt_clust_10="31.41500"></scales>
<clustering>
<clus scale="   31.415">  2 10  1 -1</clus>
<clus scale="   39.223">  1  9  2 -1</clus>
<clus scale="   90.037">  7  8 -1 -1</clus>
<clus scale="   92.580">  5  6 -1 -1</clus>
<clus scale="   93.482">  1  7  2 -1</clus>
<clus scale="   31.415">  2  5  1 -1</clus>
</clustering>
</event>
<event>
10    2  0.1133532E-006  0.9717265E+02  0.7546771E-02  0.1286409E+00
          2   -1    0    0  503    0  0.00000000000E+00  0.00000000000E+00  0.75762426278E+03  0.75762426278E+03  0.00000000000E+00 0. -1.
         -2   -1    0    0    0  501 -0.00000000000E+00 -0.00000000000E+00 -0.70548439925E+02  0.70548439925E+02  0.00000000000E+00 0.  1.
         23    2    1    2    0    0 -0.24512824762E+02  0.80175677754E+02  0.47441164483E+02  0.13255038659E+03  0.91049014370E+02 0.  0.
         23    2    1    2    0    0  0.43786701240E+02  0.27871519744E+02  0.45451198806E+03  0.46645884955E+03  0.91151600163E+02 0.  0.
        -11    1    3    3    0    0 -0.14797778099E+02 -0.19019493682E+02  0.95279860412E+01  0.25913276415E+02  0.00000000000E+00 0.  1.
         11    1    3    3    0    0 -0.97150466636E+01  0.99195171436E+02  0.37913178441E+02  0.10663711018E+03  0.00000000000E+00 0. -1.
        -11    1    4    4    0    0 -0.18466088905E+02 -0.18515011302E+02  0.87413081449E+02  0.91240609880E+02  0.00000000000E+00 0.  1.
         11    1    4    4    0    0  0.62252790145E+02  0.46386531046E+02  0.36709890661E+03  0.37521823967E+03  0.00000000000E+00 0. -1.
         21    1    1    2  502  501  0.23936860789E+02 -0.49928323640E+02  0.44684787066E+02  0.71151535479E+02  0.00000000000E+00 0.  1.
         21    1    1    2  503  502 -0.43210737267E+02 -0.58118873858E+02  0.14043788324E+03  0.15801193108E+03  0.00000000000E+00 0.  1.
<scales pt_clust_5="13000.00000" pt_clust_6="13000.00000" pt_clust_7="13000.00000" pt_clust_8="13000.00000" pt_clust_9="55.36976" pt_clust_10="76.74393"></scales>
<clustering>
<clus scale="   55.370">  2  9  1 -1</clus>
<clus scale="   76.744">  1 10  2 -1</clus>
<clus scale="   91.049">  5  6 -1 -1</clus>
<clus scale="   91.152">  7  8 -1 -1</clus>
<clus scale="   97.076">  2  5  1 -1</clus>
<clus scale="   76.744">  1  5  2 -1</clus>
</clustering>
</event>
<event>
10    2  0.1133532E-006  0.1456055E+03  0.7546771E-02  0.1206120E+00
         -2   -1    0    0    0  501 -0.00000000000E+00  0.00000000000E+00  0.24034670099E+03  0.24034670099E+03  0.00000000000E+00 0.  1.
          2   -1    0    0  503    0  0.00000000000E+00 -0.00000000000E+00 -0.35655420471E+03  0.35655420471E+03  0.00000000000E+00 0. -1.
         23    2    1    2    0    0  0.91807399124E+02  0.38874582048E+02  0.12817932168E+03  0.18611878064E+03  0.90941906386E+02 0.  0.
         23    2    1    2    0    0 -0.77602884823E+02 -0.90381457726E+02 -0.19721017053E+03  0.24795363216E+03  0.91641348233E+02 0.  0.
        -13    1    4    4    0    0  0.18859418924E+02 -0.33132690767E+02 -0.50494154115E+02  0.63270154729E+02  0.00000000000E+00 0.  1.
         13    1    4    4    0    0 -0.96462303747E+02 -0.57248766958E+02 -0.14671601642E+03  0.18468347743E+03  0.00000000000E+00 0. -1.
        -13    1    3    3    0    0  0.32191246983E+02 -0.10238429768E+02  0.97189957424E+02  0.10289309817E+03  0.00000000000E+00 0.  1.
         13    1    3    3    0    0  0.59616152141E+02  0.49113011816E+02  0.30989364252E+02  0.83225682469E+02  0.00000000000E+00 0. -1.
         21    1    1    2  502  501  0.23832699826E+02 -0.88832822447E+01  0.41698535823E+02  0.48843404613E+02  0.00000000000E+00 0.  1.
         21    1    1    2  503  502 -0.38037214127E+02  0.60390157923E+02 -0.88875190689E+02  0.11398508829E+03  0.00000000000E+00 0. -1.
<scales pt_clust_5="13000.00000" pt_clust_6="13000.00000" pt_clust_7="13000.00000" pt_clust_8="13000.00000" pt_clust_9="25.43443" pt_clust_10="70.07667"></scales>
<clustering>
<clus scale="   25.434">  1  9  2 -1</clus>
<clus scale="   70.077">  2 10  1 -1</clus>
<clus scale="   90.942">  7  8 -1 -1</clus>
<clus scale="   91.641">  5  6 -1 -1</clus>
<clus scale="  145.166">  1  7  2 -1</clus>
<clus scale="   70.077">  2  5  1 -1</clus>
</clustering>
</event>
<event>
10    2  0.1133532E-006  0.9968062E+02  0.7546771E-02  0.1282471E+00
          1   -1    0    0  503    0  0.00000000000E+00  0.00000000000E+00  0.11267881823E+03  0.11267881823E+03  0.00000000000E+00 0. -1.
         -1   -1    0    0    0  501 -0.00000000000E+00 -0.00000000000E+00 -0.45646710226E+03  0.45646710226E+03  0.00000000000E+00 0.  1.
         23    2    1    2    0    0 -0.17567521234E+02 -0.97261139071E+00 -0.33905480671E+03  0.35149765611E+03  0.91010309965E+02 0.  0.
         23    2    1    2    0    0  0.35838994095E+02 -0.27759421561E+01  0.66987564434E+02  0.12088480335E+03  0.93987565880E+02 0.  0.
        -11    1    4    4    0    0  0.25608999879E+01 -0.22221720878E+02  0.77720319027E+02  0.80875281002E+02  0.00000000000E+00 0. -1.
         11    1    4    4    0    0  0.33278094107E+02  0.19445778722E+02 -0.10732754593E+02  0.40009522350E+02  0.00000000000E+00 0.  1.
        -13    1    3    3    0    0  0.24584431846E+02 -0.31501210351E+02 -0.16881491080E+03  0.17347966639E+03  0.00000000000E+00 0. -1.
         13    1    3    3    0    0 -0.42151953079E+02  0.30528598960E+02 -0.17023989591E+03  0.17801798971E+03  0.00000000000E+00 0.  1.
         21    1    1    2  502  501 -0.96380338834E+01 -0.23882798397E+02 -0.60432809799E+02  0.65691736593E+02  0.00000000000E+00 0. -1.
         21    1    1    2  503  502 -0.86334389778E+01  0.27631351944E+02 -0.11288231953E+02  0.31071724436E+02  0.00000000000E+00 0.  1.
<scales pt_clust_5="13000.00000" pt_clust_6="13000.00000" pt_clust_7="13000.00000" pt_clust_8="13000.00000" pt_clust_9="25.75422" pt_clust_10="27.89003"></scales>
<clustering>
<clus scale="   25.754">  2  9  1 -1</clus>
<clus scale="   27.890">  1 10  2 -1</clus>
<clus scale="   91.010">  7  8 -1 -1</clus>
<clus scale="   93.988">  5  6 -1 -1</clus>
<clus scale="   96.878">  2  7  1 -1</clus>
<clus scale="   27.890">  1  5  2 -1</clus>
</clustering>
</event>
<event>
10    2  0.1133532E-006  0.1012320E+03  0.7546771E-02  0.1278033E+00
         -2   -1    0    0    0  501 -0.00000000000E+00  0.00000000000E+00  0.45248310600E+02  0.45248310600E+02  0.00000000000E+00 0.  1.
          2   -1    0    0  503    0  0.00000000000E+00 -0.00000000000E+00 -0.89561877064E+03  0.89561877064E+03  0.00000000000E+00 0. -1.
         23    2    1    2    0    0 -0.11725335745E+02 -0.25309135631E+02 -0.10889203591E+03  0.14559035123E+03  0.92525883103E+02 0.  0.
         23    2    1    2    0    0 -0.26108278081E+02  0.84317003620E+02 -0.25350136314E+03  0.28371777371E+03  0.91879457567E+02 0.  0.
        -13    1    3    3    0    0  0.16213892797E+02 -0.24315172247E+02 -0.11354769887E+03  0.11724844494E+03  0.00000000000E+00 0. -1.
         13    1    3    3    0    0 -0.27939228541E+02 -0.99396338351E+00  0.46556629693E+01  0.28341906294E+02  0.00000000000E+00 0.  1.
        -13    1    4    4    0    0 -0.43751824773E+02  0.30900499346E+02 -0.52535791071E+02  0.75027144250E+02  0.00000000000E+00 0.  1.
         13    1    4    4    0    0  0.17643546691E+02  0.53416504274E+02 -0.20096557207E+03  0.20869062946E+03  0.00000000000E+00 0. -1.
         21    1    1    2  502  501 -0.18046266587E+02  0.15244109298E+02 -0.11814217966E+02  0.26412617291E+02  0.00000000000E+00 0.  1.
         21    1    1    2  503  502  0.55879880413E+02 -0.74251977288E+02 -0.47616284303E+03  0.48514633900E+03  0.00000000000E+00 0. -1.
<scales pt_clust_5="13000.00000" pt_clust_6="13000.00000" pt_clust_7="13000.00000" pt_clust_8="13000.00000" pt_clust_9="23.62309" pt_clust_10="90.20569"></scales>
<clustering>
<clus scale="   23.623">  1  9  2 -1</clus>
<clus scale="   90.206">  2 10  1 -1</clus>
<clus scale="   91.879">  7  8 -1 -1</clus>
<clus scale="   92.526">  5  6 -1 -1</clus>
<clus scale="  100.642">  2  7  1 -1</clus>
<clus scale="   90.206">  2  5  1 -1</clus>
</clustering>
</event>
<event>
10    2  0.1133532E-006  0.1051732E+03  0.7546771E-02  0.1270240E+00
          1   -1    0    0  503    0  0.00000000000E+00  0.00000000000E+00  0.65000707415E+03  0.65000707415E+03  0.00000000000E+00 0. -1.
         -1   -1    0    0    0  501 -0.00000000000E+00 -0.00000000000E+00 -0.10380486136E+03  0.10380486136E+03  0.00000000000E+00 0.  1.
         23    2    1    2    0    0  0.20767167795E+02  0.41646532775E+02  0.25086456372E+02  0.10636280803E+03  0.92293053303E+02 0.  0.
         23    2    1    2    0    0  0.58901637963E+02 -0.76261439020E+01  0.50917031292E+03  0.52067697643E+03  0.91227984730E+02 0.  0.
        -11    1    4    4    0    0 -0.20670045285E+01 -0.39589258493E+02  0.20736686335E+03  0.21112223452E+03  0.00000000000E+00 0.  1.
         11    1    4    4    0    0  0.60968642492E+02  0.31963114591E+02  0.30180344957E+03  0.30955474190E+03  0.00000000000E+00 0. -1.
        -13    1    3    3    0    0  0.26622700056E+02  0.64221868648E+02 -0.33299863671E+01  0.69601044390E+02  0.00000000000E+00 0.  1.
         13    1    3    3    0    0 -0.58555322610E+01 -0.22575335873E+02  0.28416442739E+02  0.36761763638E+02  0.00000000000E+00 0. -1.
         21    1    1    2  502  501 -0.30845837498E+02  0.10842215333E+02 -0.33168921865E+02  0.46574635823E+02  0.00000000000E+00 0. -1.
         21    1    1    2  503  502 -0.48822968261E+02 -0.44862604206E+02  0.45114365363E+02  0.80197515224E+02  0.00000000000E+00 0. -1.
<scales pt_clust_5="13000.00000" pt_clust_6="13000.00000" pt_clust_7="13000.00000" pt_clust_8="13000.00000" pt_clust_9="32.69586" pt_clust_10="70.96691"></scales>
<clustering>
<clus scale="   32.696">  2  9  1 -1</clus>
<clus scale="   70.967">  2 10  1 -1</clus>
<clus scale="   91.228">  5  6 -1 -1</clus>
<clus scale="   92.293">  7  8 -1 -1</clus>
<clus scale="  104.240">  1  5  2 -1</clus>
<clus scale="  104.240">  1  5  2 -1</clus>
</clustering>
</event>
<event>
10    2  0.1133532E-006  0.9318494E+02  0.7546771E-02  0.1298583E+00
         -1   -1    0    0    0  501 -0.00000000000E+00  0.00000000000E+00  0.63404878749E+02  0.63404878749E+02  0.00000000000E+00 0.  1.
          1   -1    0    0  503    0  0.00000000000E+00 -0.00000000000E+00 -0.36133361099E+03  0.36133361099E+03  0.00000000000E+00 0. -1.
         23    2    1    2    0    0  0.85588262518E+00 -0.18578292401E+02 -0.76689661756E+02  0.12133777493E+03  0.92171936730E+02 0.  0.
         23    2    1    2    0    0  0.98735710277E+01 -0.49715966211E+01 -0.17697462547E+03  0.19735352617E+03  0.86638282858E+02 0.  0.
        -11    1    3    3    0    0 -0.41627433216E+02  0.93208322755E+01 -0.28528652189E+02  0.51318662358E+02  0.00000000000E+00 0.  1.
         11    1    3    3    0    0  0.42483315841E+02 -0.27899124677E+02 -0.48161009566E+02  0.70019112570E+02  0.00000000000E+00 0. -1.
        -11    1    4    4    0    0  0.35570830904E+02  0.18763075142E+02 -0.14315659728E+03  0.14869817868E+03  0.00000000000E+00 0.  1.
         11    1    4    4    0    0 -0.25697259876E+02 -0.23734671763E+02 -0.33818028192E+02  0.48655347493E+02  0.00000000000E+00 0. -1.
         21    1    1    2  502  501 -0.33322618179E+02  0.17540975233E+02  0.16370146747E+02  0.41061714516E+02  0.00000000000E+00 0.  1.
         21    1    1    2  503  502  0.22593164527E+02  0.60089137889E+01 -0.60634591761E+02  0.64985474117E+02  0.00000000000E+00 0. -1.
<scales pt_clust_5="13000.00000" pt_clust_6="13000.00000" pt_clust_7="13000.00000" pt_clust_8="13000.00000" pt_clust_9="36.95219" pt_clust_10="23.37858"></scales>
<clustering>
<clus scale="   23.379">  2 10  1 -1</clus>
<clus scale="   36.952">  1  9  2 -1</clus>
<clus scale="   86.638">  7  8 -1 -1</clus>
<clus scale="   87.715">  2  7  1 -1</clus>
<clus scale="   92.172">  5  6 -1 -1</clus>
<clus scale="   23.379">  2  5  1 -1</clus>
</clustering>
</event>
<event>
10    2  0.1133532E-006  0.9691668E+02  0.7546771E-02  0.1287072E+00
          1   -1    0    0  502    0  0.00000000000E+00  0.00000000000E+00  0.18606921095E+03  0.18606921095E+03  0.00000000000E+00 0. -1.
         -1   -1    0    0    0  501 -0.00000000000E+00 -0.00000000000E+00 -0.53851568898E+03  0.53851568898E+03  0.00000000000E+00 0.  1.
         23    2    1    2    0    0 -0.91194676653E+01 -0.10302235821E+03 -0.10714110642E+03  0.17441828432E+03  0.90806113452E+02 0.  0.
         23    2    1    2    0    0  0.29134580091E+02  0.92309037489E+01  0.12494423597E+03  0.15762498698E+03  0.91107305291E+02 0.  0.
        -11    1    3    3    0    0  0.28829220272E+02 -0.52164390202E+01 -0.87180305096E+01  0.30566963106E+02  0.00000000000E+00 0. -1.
         11    1    3    3    0    0 -0.37948687938E+02 -0.97805919189E+02 -0.98423075907E+02  0.14385132122E+03  0.00000000000E+00 0.  1.
        -13    1    4    4    0    0  0.59490567891E+02  0.10484913724E+02  0.56377384744E+02  0.82628509574E+02  0.00000000000E+00 0.  1.
         13    1    4    4    0    0 -0.30355987800E+02 -0.12540099755E+01  0.68566851228E+02  0.74996477408E+02  0.00000000000E+00 0. -1.
         21    1    1    2  502  503 -0.17242273469E+02  0.52648556869E+02 -0.33102704622E+03  0.33563085654E+03  0.00000000000E+00 0.  1.
         21    1    1    2  503  501 -0.27728389568E+01  0.41142897591E+02 -0.39222561371E+02  0.56910772079E+02  0.00000000000E+00 0.  1.
<scales pt_clust_5="13000.00000" pt_clust_6="13000.00000" pt_clust_7="13000.00000" pt_clust_8="13000.00000" pt_clust_9="82.84900" pt_clust_10="41.23623"></scales>
<clustering>
<clus scale="   41.236">  2 10  1 -1</clus>
<clus scale="   82.849">  2  9  1 -1</clus>
<clus scale="   90.806">  5  6 -1 -1</clus>
<clus scale="   91.107">  7  8 -1 -1</clus>
<clus scale="   96.634">  2  5  1 -1</clus>
<clus scale="   96.917">  1  5  2 -1</clus>
</clustering>
</event>
<event>
10    2  0.1133532E-006  0.9324176E+02  0.7546771E-02  0.1295442E+00
          1   -1    0    0  502    0  0.00000000000E+00  0.00000000000E+00  0.75278775943E+02  0.75278775943E+02  0.00000000000E+00 0. -1.
         -1   -1    0    0    0  501 -0.00000000000E+00 -0.00000000000E+00 -0.34356546106E+03  0.34356546106E+03  0.00000000000E+00 0.  1.
         23    2    1    2    0    0 -0.20888399385E+02  0.37645512062E+02 -0.14333976549E+03  0.17591337487E+03  0.92443048851E+02 0.  0.
         23    2    1    2    0    0  0.27713701904E+01  0.32329864485E+02 -0.12874531329E+03  0.16152869068E+03  0.91995986813E+02 0.  0.
        -13    1    3    3    0    0 -0.33292004135E+02  0.49267569524E+01 -0.59987225300E+01  0.34185013461E+02  0.00000000000E+00 0. -1.
         13    1    3    3    0    0  0.12403604750E+02  0.32718755110E+02 -0.13734104296E+03  0.14172836141E+03  0.00000000000E+00 0.  1.
        -13    1    4    4    0    0  0.28171003219E+02 -0.89543947230E+01 -0.10193865075E+03  0.10613800037E+03  0.00000000000E+00 0.  1.
         13    1    4    4    0    0 -0.25399633029E+02  0.41284259208E+02 -0.26806662543E+02  0.55390690310E+02  0.00000000000E+00 0. -1.
         21    1    1    2  502  503  0.73256918910E+01 -0.31714874338E+02 -0.16799469808E+02  0.36629512715E+02  0.00000000000E+00 0.  1.
         21    1    1    2  503  501  0.10791337304E+02 -0.38260502210E+02  0.20597863473E+02  0.44772658731E+02  0.00000000000E+00 0.  1.
<scales pt_clust_5="13000.00000" pt_clust_6="13000.00000" pt_clust_7="13000.00000" pt_clust_8="13000.00000" pt_clust_9="32.54995" pt_clust_10="56.01664"></scales>
<clustering>
<clus scale="   32.550">  1  9  2 -1</clus>
<clus scale="   56.017">  1 10  2 -1</clus>
<clus scale="   91.996">  7  8 -1 -1</clus>
<clus scale="   92.443">  5  6 -1 -1</clus>
<clus scale="   92.799">  1  7  2 -1</clus>
<clus scale="   32.550">  1  5  2 -1</clus>
</clustering>
</event>
<event>
10    2  0.1133532E-006  0.1776794E+03  0.7546771E-02  0.1194244E+00
         -1   -1    0    0    0  501 -0.00000000000E+00  0.00000000000E+00  0.39572205681E+03  0.39572205681E+03  0.00000000000E+00 0.  1.
          1   -1    0    0  503    0  0.00000000000E+00 -0.00000000000E+00 -0.38255941117E+03  0.38255941117E+03  0.00000000000E+00 0. -1.
         23    2    1    2    0    0  0.34831677220E+02  0.24299527675E+02  0.11378473194E+03  0.15318984364E+03  0.93361931159E+02 0.  0.
         23    2    1    2    0    0 -0.14647233639E+03 -0.10854928873E+03 -0.19773186713E+03  0.28388332674E+03  0.90855701573E+02 0.  0.
        -11    1    4    4    0    0 -0.33910626121E+02 -0.51733534641E+02 -0.18164136349E+02  0.64468791052E+02  0.00000000000E+00 0.  1.
         11    1    4    4    0    0 -0.11256171027E+03 -0.56815754091E+02 -0.17956773078E+03  0.21941453569E+03  0.00000000000E+00 0. -1.
        -13    1    3    3    0    0 -0.29516872862E+02 -0.79728033189E+01  0.34640861568E+02  0.46203903152E+02  0.00000000000E+00 0. -1.
         13    1    3    3    0    0  0.64348550082E+02  0.32272330994E+02  0.79143870372E+02  0.10698594049E+03  0.00000000000E+00 0.  1.
         21    1    1    2  502  501  0.10038250235E+03  0.53359023278E+02  0.20172237409E+03  0.23155074682E+03  0.00000000000E+00 0.  1.
         21    1    1    2  503  502  0.11258156815E+02  0.30890737779E+02 -0.10461259326E+03  0.10965755079E+03  0.00000000000E+00 0.  1.
<scales pt_clust_5="13000.00000" pt_clust_6="13000.00000" pt_clust_7="13000.00000" pt_clust_8="13000.00000" pt_clust_9="152.69317" pt_clust_10="32.87832"></scales>
<clustering>
<clus scale="   32.878">  2 10  1 -1</clus>
<clus scale="   90.856">  5  6 -1 -1</clus>
<clus scale="   93.362">  7  8 -1 -1</clus>
<clus scale="  103.389">  1  7  2 -1</clus>
<clus scale="  152.693">  1  9  2 -1</clus>
<clus scale="   32.878">  2  5  1 -1</clus>
</clustering>
</event>
<event>
10    2  0.1133532E-006  0.1151866E+03  0.7546771E-02  0.1253346E+00
         -3   -1    0    0    0  501 -0.00000000000E+00  0.00000000000E+00  0.86931352446E+02  0.86931352446E+02  0.00000000000E+00 0.  1.
          3   -1    0    0  503    0  0.00000000000E+00 -0.00000000000E+00 -0.40631841552E+03  0.40631841552E+03  0.00000000000E+00 0. -1.
         23    2    1    2    0    0 -0.70350675504E+01 -0.68780055896E+02 -0.22356419736E+02  0.11942581619E+03  0.94776198517E+02 0.  0.
         23    2    1    2    0    0  0.41264171325E+02  0.52840408185E+02 -0.15740418402E+03  0.19285759017E+03  0.89011978778E+02 0.  0.
        -11    1    3    3    0    0  0.78401816911E+00 -0.23219692101E+02  0.37307109864E+02  0.43949849057E+02  0.00000000000E+00 0.  1.
         11    1    3    3    0    0 -0.78190857195E+01 -0.45560363796E+02 -0.59663529600E+02  0.75475967135E+02  0.00000000000E+00 0. -1.
        -13    1    4    4    0    0  0.69655171801E+02  0.35941298126E+02 -0.11216104843E+03  0.13683464713E+03  0.00000000000E+00 0.  1.
         13    1    4    4    0    0 -0.28391000476E+02  0.16899110060E+02 -0.45243135587E+02  0.56022943037E+02  0.00000000000E+00 0. -1.
         21    1    1    2  502  501  0.31027236524E+02 -0.38499416759E+01 -0.73047285750E+01  0.32107172357E+02  0.00000000000E+00 0.  1.
         21    1    1    2  503  502 -0.65256340299E+02  0.19789589387E+02 -0.13232173074E+03  0.14885918925E+03  0.00000000000E+00 0. -1.
<scales pt_clust_5="13000.00000" pt_clust_6="13000.00000" pt_clust_7="13000.00000" pt_clust_8="13000.00000" pt_clust_9="31.26518" pt_clust_10="64.77561"></scales>
<clustering>
<clus scale="   31.265">  1  9  2 -1</clus>
<clus scale="   64.776">  2 10  1 -1</clus>
<clus scale="   89.012">  7  8 -1 -1</clus>
<clus scale="   94.776">  5  6 -1 -1</clus>
<clus scale="  110.492">  2  7  1 -1</clus>
<clus scale="   64.776">  2  5  1 -1</clus>
</clustering>
</event>
<event>
10    2  0.1133532E-006  0.9808777E+02  0.7546771E-02  0.1286267E+00
         -1   -1    0    0    0  501 -0.00000000000E+00  0.00000000000E+00  0.41932306117E+03  0.41932306117E+03  0.00000000000E+00 0.  1.
          1   -1    0    0  503    0  0.00000000000E+00 -0.00000000000E+00 -0.14056543363E+03  0.14056543363E+03  0.00000000000E+00 0. -1.
         23    2    1    2    0    0  0.87258472527E+01  0.28229407325E+02  0.15150040904E+03  0.17980777678E+03  0.92224849168E+02 0.  0.
         23    2    1    2    0    0  0.23819606654E+02  0.82214520294E+00 -0.22423441812E+02  0.94400529851E+02  0.88547160934E+02 0.  0.
        -11    1    3    3    0    0 -0.24142913928E+02  0.77899973867E+01  0.13561795682E+03  0.13797026695E+03  0.00000000000E+00 0.  1.
         11    1    3    3    0    0  0.32868761181E+02  0.20439409938E+02  0.15882452226E+02  0.41837509831E+02  0.00000000000E+00 0. -1.
        -11    1    4    4    0    0  0.22843568301E+02  0.23809973894E+02 -0.49109592562E+02  0.59164985855E+02  0.00000000000E+00 0. -1.
         11    1    4    4    0    0  0.97603835337E+00 -0.22987828691E+02  0.26686150750E+02  0.35235543996E+02  0.00000000000E+00 0.  1.
         21    1    1    2  502  501 -0.59736667325E+02 -0.20538895025E+02  0.20982538683E+03  0.21912783619E+03  0.00000000000E+00 0.  1.
         21    1    1    2  503  502  0.27191213418E+02 -0.85126575030E+01 -0.60144726522E+02  0.66552351975E+02  0.00000000000E+00 0. -1.
<scales pt_clust_5="13000.00000" pt_clust_6="13000.00000" pt_clust_7="13000.00000" pt_clust_8="13000.00000" pt_clust_9="61.79515" pt_clust_10="28.49259"></scales>
<clustering>
<clus scale="   28.493">  2 10  1 -1</clus>
<clus scale="   61.795">  1  9  2 -1</clus>
<clus scale="   88.547">  7  8 -1 -1</clus>
<clus scale="   92.225">  5  6 -1 -1</clus>
<clus scale="   94.638">  2  7  1 -1</clus>
<clus scale="   28.493">  2  5  1 -1</clus>
</clustering>
</event>
<event>
10    2  0.1133532E-006  0.1470479E+03  0.7546771E-02  0.1204212E+00
         -2   -1    0    0    0  501 -0.00000000000E+00  0.00000000000E+00  0.12244989830E+03  0.12244989830E+03  0.00000000000E+00 0.  1.
          2   -1    0    0  503    0  0.00000000000E+00 -0.00000000000E+00 -0.65161845361E+03  0.65161845361E+03  0.00000000000E+00 0. -1.
         23    2    1    2    0    0  0.91735172791E+02  0.33632303763E+02 -0.12520424270E+03  0.18356884701E+03  0.92059466752E+02 0.  0.
         23    2    1    2    0    0 -0.13058141928E+03 -0.32598361569E+02 -0.31186848411E+03  0.35200957759E+03  0.92383067165E+02 0.  0.
        -11    1    3    3    0    0  0.62774753240E+02 -0.16614237566E+02 -0.10239533579E+03  0.12124977247E+03  0.00000000000E+00 0. -1.
         11    1    3    3    0    0  0.28960419551E+02  0.50246541329E+02 -0.22808906909E+02  0.62319074531E+02  0.00000000000E+00 0.  1.
        -13    1    4    4    0    0 -0.37091444357E+02 -0.15581434213E+02 -0.20539550356E+03  0.20929851700E+03  0.00000000000E+00 0.  1.
         13    1    4    4    0    0 -0.93489974927E+02 -0.17016927356E+02 -0.10647298055E+03  0.14271106059E+03  0.00000000000E+00 0. -1.
         21    1    1    2  502  501  0.26932626505E+02 -0.39430793336E+02  0.62555920047E+02  0.78698138265E+02  0.00000000000E+00 0. -1.
         21    1    1    2  503  502  0.11913619988E+02  0.38396851142E+02 -0.15465174855E+03  0.15979178905E+03  0.00000000000E+00 0.  1.
<scales pt_clust_5="13000.00000" pt_clust_6="13000.00000" pt_clust_7="13000.00000" pt_clust_8="13000.00000" pt_clust_9="47.34583" pt_clust_10="40.20264"></scales>
<clustering>
<clus scale="   40.203">  2 10  1 -1</clus>
<clus scale="   47.346">  1  9  2 -1</clus>
<clus scale="   92.059">  5  6 -1 -1</clus>
<clus scale="   92.383">  7  8 -1 -1</clus>
<clus scale="  146.845">  1  5  2 -1</clus>
<clus scale="   40.203">  2  5  1 -1</clus>
</clustering>
</event>
<event>
10    2  0.1133532E-006  0.1675976E+03  0.7546771E-02  0.1181584E+00
         -3   -1    0    0    0  501 -0.00000000000E+00  0.00000000000E+00  0.63278721266E+03  0.63278721266E+03  0.00000000000E+00 0.  1.
          3   -1    0    0  503    0  0.00000000000E+00 -0.00000000000E+00 -0.14767198182E+03  0.14767198182E+03  0.00000000000E+00 0. -1.
         23    2    1    2    0    0 -0.13632013384E+03  0.66674232914E+02  0.26343660184E+03  0.31743668379E+03  0.91315786176E+02 0.  0.
         23    2    1    2    0    0  0.21380396822E+02 -0.14327705487E+03  0.11712378767E+02  0.16727054314E+03  0.82805911423E+02 0.  0.
        -11    1    4    4    0    0  0.20433510969E+02  0.29020544491E+01  0.25627293479E+00  0.20640154223E+02  0.00000000000E+00 0.  1.
         11    1    4    4    0    0  0.94688585263E+00 -0.14617910932E+03  0.11456105833E+02  0.14663038892E+03  0.00000000000E+00 0. -1.
        -13    1    3    3    0    0 -0.40998700224E+02  0.68391291677E+02  0.14413299045E+03  0.16471970475E+03  0.00000000000E+00 0.  1.
         13    1    3    3    0    0 -0.95321433616E+02 -0.17170587633E+01  0.11930361139E+03  0.15271697904E+03  0.00000000000E+00 0. -1.
         21    1    1    2  502  501  0.57713851312E+02  0.66054017080E+02  0.21987378385E+03  0.23672452900E+03  0.00000000000E+00 0.  1.
         21    1    1    2  503  502  0.57225885706E+02  0.10548804872E+02 -0.99075336114E+01  0.59027438547E+02  0.00000000000E+00 0. -1.
<scales pt_clust_5="13000.00000" pt_clust_6="13000.00000" pt_clust_7="13000.00000" pt_clust_8="13000.00000" pt_clust_9="91.14886" pt_clust_10="58.19003"></scales>
<clustering>
<clus scale="   58.190">  2 10  1 -1</clus>
<clus scale="   82.806">  5  6 -1 -1</clus>
<clus scale="   91.149">  1  9  2 -1</clus>
<clus scale="   91.316">  7  8 -1 -1</clus>
<clus scale="  163.117">  2  5  1 -1</clus>
<clus scale="   58.190">  2  5  1 -1</clus>
</clustering>
</event>
<event>
10    2  0.1133532E-006  0.1412976E+03  0.7546771E-02  0.1212154E+00
          1   -1    0    0  503    0  0.00000000000E+00  0.00000000000E+00  0.36167569726E+03  0.36167569726E+03  0.00000000000E+00 0. -1.
         -1   -1    0    0    0  501 -0.00000000000E+00 -0.00000000000E+00 -0.39588545936E+03  0.39588545936E+03  0.00000000000E+00 0.  1.
         23    2    1    2    0    0 -0.86695547507E+02  0.12420415472E+03 -0.24187786590E+03  0.30013747047E+03  0.92923673842E+02 0.  0.
         23    2    1    2    0    0  0.72004013809E+02 -0.11865856905E+03  0.21387052744E+03  0.27049825243E+03  0.90356339281E+02 0.  0.
        -11    1    4    4    0    0  0.52262033483E+02 -0.13177023831E+03  0.18726818222E+03  0.23487036407E+03  0.00000000000E+00 0. -1.
         11    1    4    4    0    0  0.19741980325E+02  0.13111669257E+02  0.26602345217E+02  0.35627888359E+02  0.00000000000E+00 0.  1.
        -13    1    3    3    0    0 -0.26409325781E+02  0.40952059158E+01 -0.41391949732E+01  0.27043596927E+02  0.00000000000E+00 0. -1.
         13    1    3    3    0    0 -0.60286221726E+02  0.12010894880E+03 -0.23773867092E+03  0.27309387354E+03  0.00000000000E+00 0.  1.
         21    1    1    2  502  501  0.37493337529E+02 -0.41447487776E+02 -0.82456281395E+02  0.99612664573E+02  0.00000000000E+00 0.  1.
         21    1    1    2  503  502 -0.22801803831E+02  0.35901902106E+02  0.76253857761E+02  0.87312769148E+02  0.00000000000E+00 0. -1.
<scales pt_clust_5="13000.00000" pt_clust_6="13000.00000" pt_clust_7="13000.00000" pt_clust_8="13000.00000" pt_clust_9="54.60521" pt_clust_10="42.53080"></scales>
<clustering>
<clus scale="   42.531">  1 10  2 -1</clus>
<clus scale="   54.605">  2  9  1 -1</clus>
<clus scale="   90.356">  5  6 -1 -1</clus>
<clus scale="   92.924">  7  8 -1 -1</clus>
<clus scale="  139.623">  1  5  2 -1</clus>
<clus scale="   42.531">  1  5  2 -1</clus>
</clustering>
</event>
<event>
10    2  0.1133532E-006  0.1210374E+03  0.7546771E-02  0.1241518E+00
         -2   -1    0    0    0  501 -0.00000000000E+00  0.00000000000E+00  0.13458400330E+03  0.13458400330E+03  0.00000000000E+00 0.  1.
          2   -1    0    0  503    0  0.00000000000E+00 -0.00000000000E+00 -0.82923488694E+03  0.82923488694E+03  0.00000000000E+00 0. -1.
         23    2    1    2    0    0 -0.22687953267E+02 -0.21018653894E+02  0.47947040158E+02  0.10682201909E+03  0.90307796277E+02 0.  0.
         23    2    1    2    0    0 -0.19454680963E+02  0.12859167784E+03 -0.59261206976E+03  0.61345883097E+03  0.90710351375E+02 0.  0.
        -11    1    3    3    0    0 -0.41732042490E+02  0.22443009131E+02  0.30043598033E+02  0.56105880369E+02  0.00000000000E+00 0. -1.
         11    1    3    3    0    0  0.19044089223E+02 -0.43461663025E+02  0.17903442125E+02  0.50716138725E+02  0.00000000000E+00 0.  1.
        -13    1    4    4    0    0 -0.37091072023E+02  0.83431201610E+02 -0.50626020002E+03  0.51442774337E+03  0.00000000000E+00 0. -1.
         13    1    4    4    0    0  0.17636391060E+02  0.45160476233E+02 -0.86351869742E+02  0.99031087600E+02  0.00000000000E+00 0.  1.
         21    1    1    2  502  501  0.11449090791E+02 -0.62996397588E+02  0.18439401338E+02  0.66630618417E+02  0.00000000000E+00 0.  1.
         21    1    1    2  503  502  0.30693543439E+02 -0.44576626361E+02 -0.16842525537E+03  0.17690742176E+03  0.00000000000E+00 0.  1.
<scales pt_clust_5="13000.00000" pt_clust_6="13000.00000" pt_clust_7="13000.00000" pt_clust_8="13000.00000" pt_clust_9="65.84437" pt_clust_10="54.12180"></scales>
<clustering>
<clus scale="   54.122">  2 10  1 -1</clus>
<clus scale="   65.844">  1  9  2 -1</clus>
<clus scale="   90.308">  5  6 -1 -1</clus>
<clus scale="   90.710">  7  8 -1 -1</clus>
<clus scale="  120.736">  1  5  2 -1</clus>
<clus scale="   54.122">  2  5  1 -1</clus>
</clustering>
</event>
<event>
10    2  0.1133532E-006  0.1172977E+03  0.7546771E-02  0.1250333E+00
          1   -1    0    0  503    0  0.00000000000E+00  0.00000000000E+00  0.48372241226E+02  0.48372241226E+02  0.00000000000E+00 0. -1.
         -1   -1    0    0    0  501 -0.00000000000E+00 -0.00000000000E+00 -0.54402174381E+03  0.54402174381E+03  0.00000000000E+00 0.  1.
         23    2    1    2    0    0 -0.59882347018E+02  0.52946210039E+02 -0.28419835096E+03  0.30818117329E+03  0.88417963312E+02 0.  0.
         23    2    1    2    0    0  0.22416338130E+02 -0.37496347457E+02 -0.72682971693E+02  0.12815473881E+03  0.96085141503E+02 0.  0.
        -11    1    3    3    0    0  0.23192700496E+02  0.93985321425E+01 -0.70291193340E+02  0.74612905210E+02  0.00000000000E+00 0. -1.
         11    1    3    3    0    0 -0.83075047515E+02  0.43547677896E+02 -0.21390715762E+03  0.23356826808E+03  0.00000000000E+00 0.  1.
        -13    1    4    4    0    0  0.22560282120E+02  0.13298531110E+02  0.12467673793E+02  0.29004484978E+02  0.00000000000E+00 0. -1.
         13    1    4    4    0    0 -0.14394398997E+00 -0.50794878566E+02 -0.85150645486E+02  0.99150253833E+02  0.00000000000E+00 0.  1.
         21    1    1    2  502  501  0.17233973110E+02  0.11976528109E+02 -0.10839009576E+03  0.11040316986E+03  0.00000000000E+00 0.  1.
         21    1    1    2  503  502  0.20232035779E+02 -0.27426390691E+02 -0.30378084166E+02  0.45654903084E+02  0.00000000000E+00 0.  1.
<scales pt_clust_5="13000.00000" pt_clust_6="13000.00000" pt_clust_7="13000.00000" pt_clust_8="13000.00000" pt_clust_9="20.98683" pt_clust_10="34.18255"></scales>
<clustering>
<clus scale="   20.987">  2  9  1 -1</clus>
<clus scale="   34.183">  1 10  2 -1</clus>
<clus scale="   88.418">  5  6 -1 -1</clus>
<clus scale="   96.085">  7  8 -1 -1</clus>
<clus scale="  111.104">  2  5  1 -1</clus>
<clus scale="   34.183">  1  5  2 -1</clus>
</clustering>
</event>
<event>
10    2  0.1133532E-006  0.9733468E+02  0.7546771E-02  0.1300072E+00
          1   -1    0    0  503    0  0.00000000000E+00  0.00000000000E+00  0.60820078306E+03  0.60820078306E+03  0.00000000000E+00 0. -1.
         -1   -1    0    0    0  501 -0.00000000000E+00 -0.00000000000E+00 -0.96358868064E+02  0.96358868064E+02  0.00000000000E+00 0.  1.
         23    2    1    2    0    0  0.10504585659E+02  0.26274717064E+02 -0.14825883826E+01  0.71270588319E+02  0.65395654400E+02 0.  0.
         23    2    1    2    0    0 -0.54619000356E+02 -0.24308854512E+01  0.45338997630E+02  0.11483967754E+03  0.90240691642E+02 0.  0.
        -13    1    4    4    0    0 -0.72899737085E+02 -0.12227274539E+02  0.11012291489E+02  0.74733850921E+02  0.00000000000E+00 0.  1.
         13    1    4    4    0    0  0.18280736729E+02  0.97963890875E+01  0.34326706141E+02  0.40105826621E+02  0.00000000000E+00 0. -1.
        -13    1    3    3    0    0  0.37115049258E+02  0.14565074061E+02 -0.97491925427E+01  0.41045280107E+02  0.00000000000E+00 0. -1.
         13    1    3    3    0    0 -0.26610463599E+02  0.11709643003E+02  0.82666041601E+01  0.30225308213E+02  0.00000000000E+00 0.  1.
         21    1    1    2  502  501  0.16290223548E+02  0.37083242337E+02 -0.49405404950E+01  0.40803764359E+02  0.00000000000E+00 0.  1.
         21    1    1    2  503  502  0.27824191150E+02 -0.60927073950E+02  0.47292604625E+03  0.47764562091E+03  0.00000000000E+00 0. -1.
<scales pt_clust_5="13000.00000" pt_clust_6="13000.00000" pt_clust_7="13000.00000" pt_clust_8="13000.00000" pt_clust_9="40.50356" pt_clust_10="66.12103"></scales>
<clustering>
<clus scale="   40.504">  2  9  1 -1</clus>
<clus scale="   65.396">  7  8 -1 -1</clus>
<clus scale="   66.121">  1 10  2 -1</clus>
<clus scale="   74.882">  2  7  1 -1</clus>
<clus scale="   90.241">  5  6 -1 -1</clus>
<clus scale="   66.121">  1  5  2 -1</clus>
</clustering>
</event>
<event>
10    2  0.1133532E-006  0.1187440E+03  0.7546771E-02  0.1245760E+00
          2   -1    0    0  503    0  0.00000000000E+00  0.00000000000E+00  0.93125205708E+02  0.93125205708E+02  0.00000000000E+00 0. -1.
         -2   -1    0    0    0  501 -0.00000000000E+00 -0.00000000000E+00 -0.77447110674E+03  0.77447110674E+03  0.00000000000E+00 0.  1.
         23    2    1    2    0    0 -0.46698714451E+02  0.90254876591E+02 -0.46298006393E+03  0.48306387657E+03  0.93131394102E+02 0.  0.
         23    2    1    2    0    0  0.64188194231E+02  0.18843976964E-01 -0.24393932255E+03  0.26828407739E+03  0.91377395803E+02 0.  0.
        -13    1    3    3    0    0 -0.61573391322E+02  0.34180861000E+02 -0.16358721477E+03  0.17810219149E+03  0.00000000000E+00 0. -1.
         13    1    3    3    0    0  0.14874676871E+02  0.56074015591E+02 -0.29939284916E+03  0.30496168507E+03  0.00000000000E+00 0.  1.
        -13    1    4    4    0    0  0.81897567290E+02  0.11669116941E+02 -0.22547716572E+03  0.24017354576E+03  0.00000000000E+00 0.  1.
         13    1    4    4    0    0 -0.17709373059E+02 -0.11650272964E+02 -0.18462156823E+02  0.28110531636E+02  0.00000000000E+00 0. -1.
         21    1    1    2  502  501 -0.87929105465E+01 -0.50878129900E+02 -0.20011249935E+02  0.55374628684E+02  0.00000000000E+00 0. -1.
         21    1    1    2  503  502 -0.86965692333E+01 -0.39395590668E+02  0.45584735380E+02  0.60873729804E+02  0.00000000000E+00 0. -1.
<scales pt_clust_5="13000.00000" pt_clust_6="13000.00000" pt_clust_7="13000.00000" pt_clust_8="13000.00000" pt_clust_9="69.49849" pt_clust_10="40.34406"></scales>
<clustering>
<clus scale="   40.344">  1 10  2 -1</clus>
<clus scale="   69.498">  1  9  2 -1</clus>
<clus scale="   91.377">  7  8 -1 -1</clus>
<clus scale="   93.131">  5  6 -1 -1</clus>
<clus scale="  117.373">  1  7  2 -1</clus>
<clus scale="   40.344">  1  5  2 -1</clus>
</clustering>
</event>
<event>
10    2  0.1133532E-006  0.1208590E+03  0.7546771E-02  0.1241956E+00
          1   -1    0    0  503    0  0.00000000000E+00  0.00000000000E+00  0.57657256254E+03  0.57657256254E+03  0.00000000000E+00 0. -1.
         -1   -1    0    0    0  501 -0.00000000000E+00 -0.00000000000E+00 -0.16186962963E+03  0.16186962963E+03  0.00000000000E+00 0.  1.
         23    2    1    2    0    0 -0.43345743213E+02 -0.96094069594E+02 -0.86394010464E+02  0.16470702968E+03  0.92474628505E+02 0.  0.
         23    2    1    2    0    0  0.19792605794E+02  0.35001846751E+02  0.22759821869E+03  0.24861789520E+03  0.91613493240E+02 0.  0.
        -11    1    4    4    0    0  0.43551027457E+01 -0.29832179668E+02  0.44354624080E+02  0.53630761145E+02  0.00000000000E+00 0.  1.
         11    1    4    4    0    0  0.15437503048E+02  0.64834026419E+02  0.18324359461E+03  0.19498713406E+03  0.00000000000E+00 0. -1.
        -11    1    3    3    0    0 -0.27601854555E+02 -0.61959657577E+02 -0.10322861545E+03  0.12351926404E+03  0.00000000000E+00 0.  1.
         11    1    3    3    0    0 -0.15743888658E+02 -0.34134412017E+02  0.16834604982E+02  0.41187765644E+02  0.00000000000E+00 0. -1.
         21    1    1    2  502  501 -0.11876771399E+02  0.34115201513E+02 -0.10523609243E+02  0.37625138201E+02  0.00000000000E+00 0. -1.
         21    1    1    2  503  502  0.35429908818E+02  0.26977021330E+02  0.28402233392E+03  0.28749212909E+03  0.00000000000E+00 0. -1.
<scales pt_clust_5="13000.00000" pt_clust_6="13000.00000" pt_clust_7="13000.00000" pt_clust_8="13000.00000" pt_clust_9="36.12346" pt_clust_10="44.67464"></scales>
<clustering>
<clus scale="   36.123">  2  9  1 -1</clus>
<clus scale="   44.675">  1 10  2 -1</clus>
<clus scale="   91.613">  5  6 -1 -1</clus>
<clus scale="   92.475">  7  8 -1 -1</clus>
<clus scale="  120.201">  1  5  2 -1</clus>
<clus scale="   44.675">  1  5  2 -1</clus>
</clustering>
</event>
<event>
10    2  0.1133532E-006  0.1106889E+03  0.7546771E-02  0.1259448E+00
          1   -1    0    0  503    0  0.00000000000E+00  0.00000000000E+00  0.33247255091E+03  0.33247255091E+03  0.00000000000E+00 0. -1.
         -1   -1    0    0    0  501 -0.00000000000E+00 -0.00000000000E+00 -0.10307798251E+03  0.10307798251E+03  0.00000000000E+00 0.  1.
         23    2    1    2    0    0 -0.60673793423E+02  0.24228332576E+02 -0.26473772211E+02  0.11592261481E+03  0.92026467402E+02 0.  0.
         23    2    1    2    0    0  0.45539782057E+02 -0.12505578403E+02  0.15425518620E+03  0.18553317609E+03  0.91638614794E+02 0.  0.
        -11    1    4    4    0    0 -0.20440401773E+02 -0.75681147534E-01  0.38190699687E+01  0.20794255161E+02  0.00000000000E+00 0.  1.
         11    1    4    4    0    0  0.65980183829E+02 -0.12429897256E+02  0.15043611623E+03  0.16473892093E+03  0.00000000000E+00 0. -1.
        -13    1    3    3    0    0 -0.48667595434E+02 -0.12377294899E+02 -0.49933607977E+02  0.70817352958E+02  0.00000000000E+00 0.  1.
         13    1    3    3    0    0 -0.12006197989E+02  0.36605627475E+02  0.23459835765E+02  0.45105261857E+02  0.00000000000E+00 0. -1.
         21    1    1    2  502  501  0.22161796878E+02 -0.36872090058E+02  0.18238015203E+02  0.46726025560E+02  0.00000000000E+00 0. -1.
         21    1    1    2  503  502 -0.70277855119E+01  0.25149335885E+02  0.83375139213E+02  0.87368716962E+02  0.00000000000E+00 0.  1.
<scales pt_clust_5="13000.00000" pt_clust_6="13000.00000" pt_clust_7="13000.00000" pt_clust_8="13000.00000" pt_clust_9="39.72075" pt_clust_10="26.11281"></scales>
<clustering>
<clus scale="   26.113">  1 10  2 -1</clus>
<clus scale="   39.721">  1  9  2 -1</clus>
<clus scale="   91.639">  5  6 -1 -1</clus>
<clus scale="   92.026">  7  8 -1 -1</clus>
<clus scale="  110.367">  1  5  2 -1</clus>
<clus scale="   26.113">  1  5  2 -1</clus>
</clustering>
</event>
<event>
10    2  0.1133532E-006  0.2485923E+03  0.7546771E-02  0.1114629E+00
          2   -1    0    0  503    0  0.00000000000E+00  0.00000000000E+00  0.38499415823E+03  0.38499415823E+03  0.00000000000E+00 0. -1.
         -2   -1    0    0    0  501 -0.00000000000E+00 -0.00000000000E+00 -0.72405774269E+03  0.72405774269E+03  0.00000000000E+00 0.  1.
         23    2    1    2    0    0 -0.23654740170E+03 -0.11034592052E+03 -0.68350686174E+01  0.27944357445E+03  0.99554496188E+02 0.  0.
         23    2    1    2    0    0  0.20558813857E+03  0.80737999653E+02  0.17134715900E+03  0.29448867965E+03  0.92620873647E+02 0.  0.
        -11    1    4    4    0    0  0.63661038689E+02 -0.18514868441E+02  0.49121849739E+02  0.82513540235E+02  0.00000000000E+00 0. -1.
         11    1    4    4    0    0  0.14192709988E+03  0.99252868094E+02  0.12222530926E+03  0.21197513942E+03  0.00000000000E+00 0.  1.
        -11    1    3    3    0    0 -0.16818010905E+03 -0.12337634858E+03  0.60196575616E+01  0.20866841818E+03  0.00000000000E+00 0. -1.
         11    1    3    3    0    0 -0.68367292646E+02  0.13030428060E+02 -0.12854726179E+02  0.70775156265E+02  0.00000000000E+00 0.  1.
         21    1    1    2  502  501  0.37390651970E+02  0.60139993982E+02 -0.49850310616E+03  0.50350792108E+03  0.00000000000E+00 0.  1.
         21    1    1    2  503  502 -0.64313888437E+01 -0.30532073116E+02 -0.50725686810E+01  0.31611725740E+02  0.00000000000E+00 0. -1.
<scales pt_clust_5="13000.00000" pt_clust_6="13000.00000" pt_clust_7="13000.00000" pt_clust_8="13000.00000" pt_clust_9="70.61844" pt_clust_10="31.20209"></scales>
<clustering>
<clus scale="   31.202">  1 10  2 -1</clus>
<clus scale="   70.618">  2  9  1 -1</clus>
<clus scale="   92.621">  5  6 -1 -1</clus>
<clus scale="   99.554">  7  8 -1 -1</clus>
<clus scale="  245.898">  1  5  2 -1</clus>
<clus scale="   31.202">  1  5  2 -1</clus>
</clustering>
</event>
<event>
10    2  0.1133532E-006  0.9596032E+02  0.7546771E-02  0.1290045E+00
         -1   -1    0    0    0  501 -0.00000000000E+00  0.00000000000E+00  0.99850481070E+02  0.99850481070E+02  0.00000000000E+00 0.  1.
          1   -1    0    0  503    0  0.00000000000E+00 -0.00000000000E+00 -0.26805873507E+03  0.26805873507E+03  0.00000000000E+00 0. -1.
         23    2    1    2    0    0 -0.49081783915E+02  0.67342414445E+01 -0.83748816320E+02  0.13209259584E+03  0.89332066589E+02 0.  0.
         23    2    1    2    0    0  0.24573617924E+02 -0.17057053594E+02 -0.93129090116E+02  0.13116276886E+03  0.87383286351E+02 0.  0.
        -11    1    4    4    0    0  0.21648902776E+02  0.29866601712E+02 -0.14673709424E+02  0.39698950080E+02  0.00000000000E+00 0.  1.
         11    1    4    4    0    0  0.29247151481E+01 -0.46923655306E+02 -0.78455380692E+02  0.91463818778E+02  0.00000000000E+00 0. -1.
        -13    1    3    3    0    0  0.76554161054E+01 -0.22908245081E+02  0.29382473193E+01  0.24331592339E+02  0.00000000000E+00 0.  1.
         13    1    3    3    0    0 -0.56737200020E+02  0.29642486525E+02 -0.86687063639E+02  0.10776100350E+03  0.00000000000E+00 0. -1.
         21    1    1    2  502  501  0.45057289345E+02  0.43673586675E+01  0.44142775903E+02  0.63228299117E+02  0.00000000000E+00 0.  1.
         21    1    1    2  503  502 -0.20549123354E+02  0.59554534824E+01 -0.35473123463E+02  0.41425552320E+02  0.00000000000E+00 0. -1.
<scales pt_clust_5="13000.00000" pt_clust_6="13000.00000" pt_clust_7="13000.00000" pt_clust_8="13000.00000" pt_clust_9="44.44350" pt_clust_10="21.39472"></scales>
<clustering>
<clus scale="   21.395">  2 10  1 -1</clus>
<clus scale="   44.443">  1  9  2 -1</clus>
<clus scale="   87.383">  5  6 -1 -1</clus>
<clus scale="   89.332">  7  8 -1 -1</clus>
<clus scale="   94.149">  2  5  1 -1</clus>
<clus scale="   21.395">  2  5  1 -1</clus>
</clustering>
</event>
<event>
10    2  0.1133532E-006  0.1350589E+03  0.7546771E-02  0.1241956E+00
          2   -1    0    0  503    0  0.00000000000E+00  0.00000000000E+00  0.51308123185E+03  0.51308123185E+03  0.00000000000E+00 0. -1.
         -2   -1    0    0    0  501 -0.00000000000E+00 -0.00000000000E+00 -0.75144243201E+02  0.75144243201E+02  0.00000000000E+00 0.  1.
         23    2    1    2    0    0 -0.38684025174E+02  0.97950845219E+02  0.61475900928E+02  0.15009817388E+03  0.87517732632E+02 0.  0.
         23    2    1    2    0    0 -0.28542673731E+02 -0.41430329549E+02  0.18525623424E+03  0.20507703803E+03  0.72149586091E+02 0.  0.
        -13    1    4    4    0    0  0.23418076544E+02 -0.59611015394E+01  0.65229991187E+02  0.69562150562E+02  0.00000000000E+00 0. -1.
         13    1    4    4    0    0 -0.51960750274E+02 -0.35469228010E+02  0.12002624305E+03  0.13551488747E+03  0.00000000000E+00 0.  1.
        -13    1    3    3    0    0  0.99046790841E+01  0.57290526381E+02  0.64287562262E+02  0.86678704088E+02  0.00000000000E+00 0. -1.
         13    1    3    3    0    0 -0.48588704258E+02  0.40660318838E+02 -0.28116613347E+01  0.63419469793E+02  0.00000000000E+00 0.  1.
         21    1    1    2  502  501  0.12835445170E+02  0.16970913457E+02  0.18739109077E+00  0.21278996022E+02  0.00000000000E+00 0. -1.
         21    1    1    2  503  502  0.54391253734E+02 -0.73491429126E+02  0.19101746239E+03  0.21177126712E+03  0.00000000000E+00 0.  1.
<scales pt_clust_5="13000.00000" pt_clust_6="13000.00000" pt_clust_7="13000.00000" pt_clust_8="13000.00000" pt_clust_9="21.27817" pt_clust_10="102.86666"></scales>
<clustering>
<clus scale="   21.278">  2  9  1 -1</clus>
<clus scale="   72.150">  5  6 -1 -1</clus>
<clus scale="   86.135">  1  5  2 -1</clus>
<clus scale="   87.518">  7  8 -1 -1</clus>
<clus scale="  102.867">  1 10  2 -1</clus>
<clus scale="   86.135">  1  5  2 -1</clus>
</clustering>
</event>
<event>
10    2  0.1133532E-006  0.1581363E+03  0.7546771E-02  0.1191233E+00
         -3   -1    0    0    0  501 -0.00000000000E+00  0.00000000000E+00  0.53393022922E+02  0.53393022922E+02  0.00000000000E+00 0.  1.
          3   -1    0    0  503    0  0.00000000000E+00 -0.00000000000E+00 -0.16386654844E+04  0.16386654844E+04  0.00000000000E+00 0. -1.
         23    2    1    2    0    0 -0.48731927358E+02  0.14177658960E+03 -0.71136955064E+03  0.73326889412E+03  0.95714321799E+02 0.  0.
         23    2    1    2    0    0  0.42908353769E+02 -0.96737247475E+02 -0.49016631621E+03  0.51006720740E+03  0.93307645148E+02 0.  0.
        -11    1    4    4    0    0  0.46633951118E+02 -0.55641791067E+02 -0.43584647396E+03  0.44185165290E+03  0.00000000000E+00 0. -1.
         11    1    4    4    0    0 -0.37255973493E+01 -0.41095456407E+02 -0.54319842253E+02  0.68215554497E+02  0.00000000000E+00 0.  1.
        -13    1    3    3    0    0  0.24153943008E+02  0.72018999361E+02 -0.26735871701E+03  0.27794034035E+03  0.00000000000E+00 0. -1.
         13    1    3    3    0    0 -0.72885870367E+02  0.69757590238E+02 -0.44401083363E+03  0.45532855377E+03  0.00000000000E+00 0.  1.
         21    1    1    2  502  501 -0.32334703205E+02 -0.79223065783E+02 -0.29064033196E+02  0.90368939404E+02  0.00000000000E+00 0.  1.
         21    1    1    2  503  502  0.38158276794E+02  0.34183723659E+02 -0.35467256141E+03  0.35835346638E+03  0.00000000000E+00 0. -1.
<scales pt_clust_5="13000.00000" pt_clust_6="13000.00000" pt_clust_7="13000.00000" pt_clust_8="13000.00000" pt_clust_9="83.42856" pt_clust_10="51.23067"></scales>
<clustering>
<clus scale="   51.231">  2 10  1 -1</clus>
<clus scale="   83.429">  1  9  2 -1</clus>
<clus scale="   93.308">  5  6 -1 -1</clus>
<clus scale="   95.714">  7  8 -1 -1</clus>
<clus scale="  156.691">  2  5  1 -1</clus>
<clus scale="   51.231">  2  5  1 -1</clus>
</clustering>
</event>
<event>
10    2  0.1133532E-006  0.1000012E+03  0.7546771E-02  0.1281116E+00
          1   -1    0    0  503    0  0.00000000000E+00  0.00000000000E+00  0.73342494016E+02  0.73342494016E+02  0.00000000000E+00 0. -1.
         -1   -1    0    0    0  501 -0.00000000000E+00 -0.00000000000E+00 -0.34014553146E+03  0.34014553146E+03  0.00000000000E+00 0.  1.
         23    2    1    2    0    0 -0.48007835747E+02  0.26908863779E+02 -0.12209318080E+03  0.16193137839E+03  0.91028496998E+02 0.  0.
         23    2    1    2    0    0  0.22100546051E+02  0.37323721951E+02 -0.30197328638E+02  0.10671183695E+03  0.92704062114E+02 0.  0.
        -11    1    3    3    0    0 -0.23872858618E+02  0.52061198228E+02 -0.32629532654E+02  0.65916372327E+02  0.00000000000E+00 0. -1.
         11    1    3    3    0    0 -0.24134977129E+02 -0.25152334449E+02 -0.89463648148E+02  0.96015006063E+02  0.00000000000E+00 0.  1.
        -11    1    4    4    0    0  0.36161966133E+02  0.62876592673E+01 -0.53896283814E+02  0.65207605864E+02  0.00000000000E+00 0. -1.
         11    1    4    4    0    0 -0.14061420082E+02  0.31036062684E+02  0.23698955175E+02  0.41504231086E+02  0.00000000000E+00 0.  1.
         21    1    1    2  502  501  0.59939781819E+01 -0.31674230924E+02 -0.98170820612E+02  0.10332809250E+03  0.00000000000E+00 0.  1.
         21    1    1    2  503  502  0.19913311514E+02 -0.32558354806E+02 -0.16341707389E+02  0.41516717639E+02  0.00000000000E+00 0.  1.
<scales pt_clust_5="13000.00000" pt_clust_6="13000.00000" pt_clust_7="13000.00000" pt_clust_8="13000.00000" pt_clust_9="32.23639" pt_clust_10="41.83120"></scales>
<clustering>
<clus scale="   32.236">  2  9  1 -1</clus>
<clus scale="   41.831">  1 10  2 -1</clus>
<clus scale="   91.028">  5  6 -1 -1</clus>
<clus scale="   92.704">  7  8 -1 -1</clus>
<clus scale="   98.450">  2  5  1 -1</clus>
<clus scale="   41.831">  1  5  2 -1</clus>
</clustering>
</event>
<event>
10    2  0.1133532E-006  0.1759676E+03  0.7546771E-02  0.1195633E+00
         -2   -1    0    0    0  501 -0.00000000000E+00  0.00000000000E+00  0.20417390566E+03  0.20417390566E+03  0.00000000000E+00 0.  1.
          2   -1    0    0  503    0  0.00000000000E+00 -0.00000000000E+00 -0.74306827872E+03  0.74306827872E+03  0.00000000000E+00 0. -1.
         23    2    1    2    0    0 -0.11457573427E+03 -0.13068134859E+03  0.50338945466E+02  0.20294500917E+03  0.91910029738E+02 0.  0.
         23    2    1    2    0    0  0.31213260257E+02  0.31897997104E+02 -0.97585522754E+02  0.14100481740E+03  0.91474993537E+02 0.  0.
        -11    1    4    4    0    0  0.41981180474E+02  0.53495829969E+02 -0.94862935007E+02  0.11671846373E+03  0.00000000000E+00 0. -1.
         11    1    4    4    0    0 -0.10767920216E+02 -0.21597832864E+02 -0.27225877468E+01  0.24286353663E+02  0.00000000000E+00 0.  1.
        -11    1    3    3    0    0 -0.80185023201E+02 -0.11558689928E+03  0.73600743822E+02  0.15876724700E+03  0.00000000000E+00 0.  1.
         11    1    3    3    0    0 -0.34390711065E+02 -0.15094449310E+02 -0.23261798355E+02  0.44177762169E+02  0.00000000000E+00 0. -1.
         21    1    1    2  502  501  0.19396244856E+02  0.13098965468E+02  0.47867439376E+02  0.53283102042E+02  0.00000000000E+00 0.  1.
         21    1    1    2  503  502  0.63966229153E+02  0.85684386015E+02 -0.53951523515E+03  0.55000925577E+03  0.00000000000E+00 0. -1.
<scales pt_clust_5="13000.00000" pt_clust_6="13000.00000" pt_clust_7="13000.00000" pt_clust_8="13000.00000" pt_clust_9="23.40507" pt_clust_10="150.05708"></scales>
<clustering>
<clus scale="   23.405">  1  9  2 -1</clus>
<clus scale="   91.475">  5  6 -1 -1</clus>
<clus scale="   91.910">  7  8 -1 -1</clus>
<clus scale="  103.245">  2  5  1 -1</clus>
<clus scale="  150.057">  2 10  1 -1</clus>
<clus scale="  103.245">  2  5  1 -1</clus>
</clustering>
</event>
<event>
10    2  0.1133532E-006  0.1094558E+03  0.7546771E-02  0.1261730E+00
         -1   -1    0    0    0  501 -0.00000000000E+00  0.00000000000E+00  0.98381865187E+02  0.98381865187E+02  0.00000000000E+00 0.  1.
          1   -1    0    0  503    0  0.00000000000E+00 -0.00000000000E+00 -0.25872070508E+03  0.25872070508E+03  0.00000000000E+00 0. -1.
         23    2    1    2    0    0  0.16450233385E+02 -0.61364108828E+02 -0.26514097546E+02  0.11492631707E+03  0.92026610043E+02 0.  0.
         23    2    1    2    0    0  0.72228745172E+00  0.57272987169E+02 -0.42337083421E+02  0.11607084337E+03  0.91647669305E+02 0.  0.
        -11    1    3    3    0    0  0.41907661161E+02  0.19621685658E+01 -0.19659047604E+02  0.46331202468E+02  0.00000000000E+00 0. -1.
         11    1    3    3    0    0 -0.25457427776E+02 -0.63326277393E+02 -0.68550499427E+01  0.68595114602E+02  0.00000000000E+00 0.  1.
        -11    1    4    4    0    0  0.22962304317E+01  0.82630408254E+02 -0.31882775935E+02  0.88597790287E+02  0.00000000000E+00 0. -1.
         11    1    4    4    0    0 -0.15739429800E+01 -0.25357421084E+02 -0.10454307486E+02  0.27473053081E+02  0.00000000000E+00 0.  1.
         21    1    1    2  502  501  0.18682401616E+02  0.13128549321E+02  0.44723059263E+01  0.23267841708E+02  0.00000000000E+00 0. -1.
         21    1    1    2  503  502 -0.35854922453E+02 -0.90374276631E+01 -0.95959964853E+02  0.10283756812E+03  0.00000000000E+00 0.  1.
<scales pt_clust_5="13000.00000" pt_clust_6="13000.00000" pt_clust_7="13000.00000" pt_clust_8="13000.00000" pt_clust_9="22.83399" pt_clust_10="36.11018"></scales>
<clustering>
<clus scale="   22.834">  1  9  2 -1</clus>
<clus scale="   36.110">  2 10  1 -1</clus>
<clus scale="   91.648">  7  8 -1 -1</clus>
<clus scale="   92.027">  5  6 -1 -1</clus>
<clus scale="  109.137">  2  7  1 -1</clus>
<clus scale="   36.110">  2  5  1 -1</clus>
</clustering>
</event>
<event>
10    2  0.1133532E-006  0.1154958E+03  0.7546771E-02  0.1256393E+00
          2   -1    0    0  503    0  0.00000000000E+00  0.00000000000E+00  0.34602783822E+03  0.34602783822E+03  0.00000000000E+00 0. -1.
         -2   -1    0    0    0  501 -0.00000000000E+00 -0.00000000000E+00 -0.12550332623E+03  0.12550332623E+03  0.00000000000E+00 0.  1.
         23    2    1    2    0    0 -0.39511661332E+01  0.41296689421E+02 -0.86045835509E+01  0.99824126241E+02  0.90386885391E+02 0.  0.
         23    2    1    2    0    0  0.53230494790E+02 -0.20292904763E+02  0.24452149412E+03  0.27184204916E+03  0.10422116411E+03 0.  0.
        -13    1    3    3    0    0  0.35206519867E+02  0.33947672266E+02 -0.27083698984E+02  0.55905905270E+02  0.00000000000E+00 0.  1.
         13    1    3    3    0    0 -0.39157686000E+02  0.73490171550E+01  0.18479115434E+02  0.43918220971E+02  0.00000000000E+00 0. -1.
        -13    1    4    4    0    0 -0.29277882149E+02  0.99090609134E+01  0.64440338828E+02  0.71469861757E+02  0.00000000000E+00 0.  1.
         13    1    4    4    0    0  0.82508376938E+02 -0.30201965676E+02  0.18008115529E+03  0.20037218741E+03  0.00000000000E+00 0. -1.
         21    1    1    2  502  501 -0.31824429771E+02  0.21122106662E+02 -0.33496975009E+02  0.50803396096E+02  0.00000000000E+00 0. -1.
         21    1    1    2  503  502 -0.17454898885E+02 -0.42125891320E+02  0.18104576439E+02  0.49061592949E+02  0.00000000000E+00 0. -1.
<scales pt_clust_5="13000.00000" pt_clust_6="13000.00000" pt_clust_7="13000.00000" pt_clust_8="13000.00000" pt_clust_9="38.19604" pt_clust_10="44.78189"></scales>
<clustering>
<clus scale="   38.196">  2  9  1 -1</clus>
<clus scale="   44.782">  2 10  1 -1</clus>
<clus scale="   90.387">  5  6 -1 -1</clus>
<clus scale="  103.184">  2  5  1 -1</clus>
<clus scale="  104.221">  7  8 -1 -1</clus>
<clus scale="  115.496">  1  5  2 -1</clus>
</clustering>
</event>
<event>
10    2  0.1133532E-006  0.1035643E+03  0.7546771E-02  0.1276706E+00
          1   -1    0    0  503    0  0.00000000000E+00  0.00000000000E+00  0.98920691026E+02  0.98920691026E+02  0.00000000000E+00 0. -1.
         -1   -1    0    0    0  501 -0.00000000000E+00 -0.00000000000E+00 -0.34203323226E+03  0.34203323226E+03  0.00000000000E+00 0.  1.
         23    2    1    2    0    0 -0.51957881016E+02 -0.16474474398E+02 -0.14073725045E+03  0.17399830398E+03  0.86587565025E+02 0.  0.
         23    2    1    2    0    0  0.13591664281E+02  0.47288039703E+02 -0.19905228967E+02  0.10837691300E+03  0.94490449754E+02 0.  0.
        -13    1    4    4    0    0 -0.21373798351E+02  0.45225034868E+02  0.21238201271E+02  0.54343391760E+02  0.00000000000E+00 0.  1.
         13    1    4    4    0    0  0.34965462632E+02  0.20630048352E+01 -0.41143430238E+02  0.54033521242E+02  0.00000000000E+00 0. -1.
        -13    1    3    3    0    0 -0.69679128397E+02  0.10065784263E+02 -0.96971974868E+02  0.11983348804E+03  0.00000000000E+00 0.  1.
         13    1    3    3    0    0  0.17721247380E+02 -0.26540258661E+02 -0.43765275584E+02  0.54164815937E+02  0.00000000000E+00 0. -1.
         21    1    1    2  502  501  0.21865400049E+02 -0.65109158087E+01 -0.11354668455E+03  0.11581596313E+03  0.00000000000E+00 0. -1.
         21    1    1    2  503  502  0.16500816687E+02 -0.24302649496E+02  0.31076622729E+02  0.42762743178E+02  0.00000000000E+00 0. -1.
<scales pt_clust_5="13000.00000" pt_clust_6="13000.00000" pt_clust_7="13000.00000" pt_clust_8="13000.00000" pt_clust_9="22.81420" pt_clust_10="29.83150"></scales>
<clustering>
<clus scale="   22.814">  2  9  1 -1</clus>
<clus scale="   29.831">  1 10  2 -1</clus>
<clus scale="   86.588">  7  8 -1 -1</clus>
<clus scale="   94.490">  5  6 -1 -1</clus>
<clus scale="   96.408">  2  7  1 -1</clus>
<clus scale="   29.831">  1  5  2 -1</clus>
</clustering>
</event>
<event>
10    2  0.1133532E-006  0.1085580E+03  0.7546771E-02  0.1264986E+00
          1   -1    0    0  502    0  0.00000000000E+00  0.00000000000E+00  0.56041891829E+03  0.56041891829E+03  0.00000000000E+00 0. -1.
         -1   -1    0    0    0  501 -0.00000000000E+00 -0.00000000000E+00 -0.72241781217E+02  0.72241781217E+02  0.00000000000E+00 0.  1.
         23    2    1    2    0    0  0.58303620079E+02 -0.49757990435E+01 -0.82545962213E+01  0.10648662031E+03  0.88584373655E+02 0.  0.
         23    2    1    2    0    0 -0.35060749915E+02  0.46453144528E+02  0.33350418612E+03  0.35103514351E+03  0.92808830380E+02 0.  0.
        -11    1    4    4    0    0 -0.55150664110E+02  0.60222789628E+02  0.28884353795E+03  0.30016490394E+03  0.00000000000E+00 0.  1.
         11    1    4    4    0    0  0.20089914195E+02 -0.13769645101E+02  0.44660648169E+02  0.50870239565E+02  0.00000000000E+00 0. -1.
        -11    1    3    3    0    0 -0.11048573727E+02  0.19889848615E+02 -0.21875596140E+02  0.31562933415E+02  0.00000000000E+00 0. -1.
         11    1    3    3    0    0  0.69352193806E+02 -0.24865647658E+02  0.13620999919E+02  0.74923686895E+02  0.00000000000E+00 0.  1.
         21    1    1    2  502  503  0.34066497107E+01 -0.27660138665E+02  0.41032022426E+02  0.49601566483E+02  0.00000000000E+00 0.  1.
         21    1    1    2  503  501 -0.26649519874E+02 -0.13817206820E+02  0.12189552475E+03  0.12553736921E+03  0.00000000000E+00 0. -1.
<scales pt_clust_5="13000.00000" pt_clust_6="13000.00000" pt_clust_7="13000.00000" pt_clust_8="13000.00000" pt_clust_9="27.86913" pt_clust_10="32.95288"></scales>
<clustering>
<clus scale="   27.869">  1  9  2 -1</clus>
<clus scale="   32.953">  1 10  2 -1</clus>
<clus scale="   88.584">  7  8 -1 -1</clus>
<clus scale="   92.809">  5  6 -1 -1</clus>
<clus scale="  104.969">  2  7  1 -1</clus>
<clus scale="   27.869">  1  5  2 -1</clus>
</clustering>
</event>
<event>
10    2  0.1133532E-006  0.1653295E+03  0.7546771E-02  0.1183325E+00
         -2   -1    0    0    0  501 -0.00000000000E+00  0.00000000000E+00  0.32199821124E+03  0.32199821124E+03  0.00000000000E+00 0.  1.
          2   -1    0    0  503    0  0.00000000000E+00 -0.00000000000E+00 -0.18486160171E+03  0.18486160171E+03  0.00000000000E+00 0. -1.
         23    2    1    2    0    0 -0.24485305890E+02  0.18895119958E+03  0.42209908559E+02  0.21611548527E+03  0.92855482154E+02 0.  0.
         23    2    1    2    0    0 -0.12676126016E+02 -0.94456502487E+02  0.55500655351E+02  0.14198641714E+03  0.89426533402E+02 0.  0.
        -13    1    3    3    0    0  0.26817978257E+02  0.18380575476E+02  0.15453672655E+02  0.35998132051E+02  0.00000000000E+00 0. -1.
         13    1    3    3    0    0 -0.51303284146E+02  0.17057062410E+03  0.26756235904E+02  0.18011735322E+03  0.00000000000E+00 0.  1.
        -13    1    4    4    0    0  0.24214281945E+02  0.34935315385E+01  0.19553238521E+02  0.31318769922E+02  0.00000000000E+00 0.  1.
         13    1    4    4    0    0 -0.36890407962E+02 -0.97950034026E+02  0.35947416830E+02  0.11066764722E+03  0.00000000000E+00 0. -1.
         21    1    1    2  502  501  0.58436990046E+01 -0.80270257609E+02  0.66962337046E+02  0.10469678915E+03  0.00000000000E+00 0. -1.
         21    1    1    2  503  502  0.31317732901E+02 -0.14224439480E+02 -0.27536291431E+02  0.44061121393E+02  0.00000000000E+00 0. -1.
<scales pt_clust_5="13000.00000" pt_clust_6="13000.00000" pt_clust_7="13000.00000" pt_clust_8="13000.00000" pt_clust_9="82.65462" pt_clust_10="34.39673"></scales>
<clustering>
<clus scale="   34.397">  2 10  1 -1</clus>
<clus scale="   82.655">  1  9  2 -1</clus>
<clus scale="   89.427">  7  8 -1 -1</clus>
<clus scale="   92.855">  5  6 -1 -1</clus>
<clus scale="  163.428">  2  7  1 -1</clus>
<clus scale="   34.397">  2  5  1 -1</clus>
</clustering>
</event>
<event>
10    2  0.1133532E-006  0.1119478E+03  0.7546771E-02  0.1257787E+00
         -4   -1    0    0    0  501 -0.00000000000E+00  0.00000000000E+00  0.12119900486E+03  0.12119900486E+03  0.00000000000E+00 0.  1.
          4   -1    0    0  502    0  0.00000000000E+00 -0.00000000000E+00 -0.25539491247E+03  0.25539491247E+03  0.00000000000E+00 0. -1.
         23    2    1    2    0    0  0.45395100263E+02 -0.52040099408E+02 -0.52024512835E+01  0.11150413181E+03  0.87391182837E+02 0.  0.
         23    2    1    2    0    0  0.72808331300E+01  0.83023236895E+02 -0.39218700793E+01  0.11923746188E+03  0.85184052828E+02 0.  0.
        -11    1    3    3    0    0  0.65171088036E+02 -0.31020295773E+02  0.18098504178E+02  0.74411593983E+02  0.00000000000E+00 0.  1.
         11    1    3    3    0    0 -0.19775987773E+02 -0.21019803635E+02 -0.23300955461E+02  0.37092537829E+02  0.00000000000E+00 0. -1.
        -11    1    4    4    0    0  0.37573921693E+02  0.34386844877E+02  0.23051280510E+02  0.55907210851E+02  0.00000000000E+00 0.  1.
         11    1    4    4    0    0 -0.30293088563E+02  0.48636392018E+02 -0.26973150589E+02  0.63330251033E+02  0.00000000000E+00 0. -1.
         21    1    1    2  502  503 -0.62792942557E+01 -0.20543175855E+02 -0.15756268380E+02  0.26640412982E+02  0.00000000000E+00 0. -1.
         21    1    1    2  503  501 -0.46396639138E+02 -0.10439961632E+02 -0.10931531786E+03  0.11921191065E+03  0.00000000000E+00 0. -1.
<scales pt_clust_5="13000.00000" pt_clust_6="13000.00000" pt_clust_7="13000.00000" pt_clust_8="13000.00000" pt_clust_9="21.48142" pt_clust_10="53.52616"></scales>
<clustering>
<clus scale="   21.481">  2  9  1 -1</clus>
<clus scale="   53.526">  2 10  1 -1</clus>
<clus scale="   85.184">  7  8 -1 -1</clus>
<clus scale="   87.391">  5  6 -1 -1</clus>
<clus scale="  110.233">  2  7  1 -1</clus>
<clus scale="   21.481">  2  5  1 -1</clus>
</clustering>
</event>
<event>
10    2  0.1133532E-006  0.1168475E+03  0.7546771E-02  0.1250797E+00
          2   -1    0    0  503    0  0.00000000000E+00  0.00000000000E+00  0.39131642368E+03  0.39131642368E+03  0.00000000000E+00 0. -1.
         -2   -1    0    0    0  501 -0.00000000000E+00 -0.00000000000E+00 -0.10310895093E+03  0.10310895093E+03  0.00000000000E+00 0.  1.
         23    2    1    2    0    0 -0.10800456201E+03  0.15825183789E+02  0.72630579352E+02  0.15563800260E+03  0.83860389570E+02 0.  0.
         23    2    1    2    0    0  0.49947251670E+02  0.16199247306E+02  0.78370659246E+02  0.13108979541E+03  0.91024341076E+02 0.  0.
        -11    1    3    3    0    0 -0.14017080733E+02  0.38412101577E+02  0.18919717760E+02  0.45054675895E+02  0.00000000000E+00 0. -1.
         11    1    3    3    0    0 -0.93987481274E+02 -0.22586917788E+02  0.53710861592E+02  0.11058332670E+03  0.00000000000E+00 0.  1.
        -11    1    4    4    0    0  0.43478042320E+02 -0.25817628600E+02  0.11511209925E+02  0.51859406711E+02  0.00000000000E+00 0.  1.
         11    1    4    4    0    0  0.64692093497E+01  0.42016875906E+02  0.66859449321E+02  0.79230388703E+02  0.00000000000E+00 0. -1.
         21    1    1    2  502  501  0.54897289564E+02 -0.11318465023E+02 -0.11754714148E+02  0.57271226254E+02  0.00000000000E+00 0.  1.
         21    1    1    2  503  502  0.31600207736E+01 -0.20705966073E+02  0.14896094830E+03  0.15042635035E+03  0.00000000000E+00 0. -1.
<scales pt_clust_5="13000.00000" pt_clust_6="13000.00000" pt_clust_7="13000.00000" pt_clust_8="13000.00000" pt_clust_9="56.76742" pt_clust_10="20.94571"></scales>
<clustering>
<clus scale="   20.946">  1 10  2 -1</clus>
<clus scale="   56.767">  2  9  1 -1</clus>
<clus scale="   83.860">  5  6 -1 -1</clus>
<clus scale="   91.024">  7  8 -1 -1</clus>
<clus scale="  111.357">  2  5  1 -1</clus>
<clus scale="   20.946">  1  5  2 -1</clus>
</clustering>
</event>
<event>
10    2  0.1133532E-006  0.1333972E+03  0.7546771E-02  0.1224352E+00
          1   -1    0    0  503    0  0.00000000000E+00  0.00000000000E+00  0.27653035941E+03  0.27653035941E+03  0.00000000000E+00 0. -1.
         -1   -1    0    0    0  501 -0.00000000000E+00 -0.00000000000E+00 -0.50847346358E+03  0.50847346358E+03  0.00000000000E+00 0.  1.
         23    2    1    2    0    0 -0.11629179280E+03  0.11310850405E+02 -0.39102865202E+03  0.41675073534E+03  0.84415948133E+02 0.  0.
         23    2    1    2    0    0  0.71251371128E+02  0.24225500884E+02  0.18393812953E+03  0.21896832465E+03  0.91925289888E+02 0.  0.
        -11    1    4    4    0    0  0.34085948389E+02 -0.34350928565E+02  0.61659708447E+02  0.78382126895E+02  0.00000000000E+00 0.  1.
         11    1    4    4    0    0  0.37165422739E+02  0.58576429449E+02  0.12227842109E+03  0.14058619775E+03  0.00000000000E+00 0. -1.
        -13    1    3    3    0    0 -0.36446221558E+02 -0.33953137228E+02 -0.10225599033E+03  0.11374282462E+03  0.00000000000E+00 0. -1.
         13    1    3    3    0    0 -0.79845571241E+02  0.45263987633E+02 -0.28877266169E+03  0.30300791072E+03  0.00000000000E+00 0.  1.
         21    1    1    2  502  501  0.19677586502E+02 -0.23061092748E+02 -0.80965666701E+02  0.86454962805E+02  0.00000000000E+00 0.  1.
         21    1    1    2  503  502  0.25362835168E+02 -0.12475258540E+02  0.56113085018E+02  0.62829800204E+02  0.00000000000E+00 0. -1.
<scales pt_clust_5="13000.00000" pt_clust_6="13000.00000" pt_clust_7="13000.00000" pt_clust_8="13000.00000" pt_clust_9="30.64386" pt_clust_10="28.26492"></scales>
<clustering>
<clus scale="   28.265">  1 10  2 -1</clus>
<clus scale="   30.644">  2  9  1 -1</clus>
<clus scale="   84.416">  7  8 -1 -1</clus>
<clus scale="   91.925">  5  6 -1 -1</clus>
<clus scale="  128.338">  2  7  1 -1</clus>
<clus scale="   28.265">  1  5  2 -1</clus>
</clustering>
</event>
<event>
10    2  0.1133532E-006  0.9427554E+02  0.7546771E-02  0.1294585E+00
          4   -1    0    0  503    0  0.00000000000E+00  0.00000000000E+00  0.15520815971E+03  0.15520815971E+03  0.00000000000E+00 0. -1.
         -4   -1    0    0    0  501 -0.00000000000E+00 -0.00000000000E+00 -0.25042132074E+03  0.25042132074E+03  0.00000000000E+00 0.  1.
         23    2    1    2    0    0 -0.28784642693E+02  0.22054883895E+02 -0.14822338491E+03  0.17764204318E+03  0.90948062733E+02 0.  0.
         23    2    1    2    0    0  0.45565458884E+01 -0.39712008808E+00  0.49597997733E+02  0.10092446574E+03  0.87777369472E+02 0.  0.
        -11    1    3    3    0    0 -0.47929142464E+02  0.37081284969E+02 -0.56878826711E+02  0.83110921787E+02  0.00000000000E+00 0.  1.
         11    1    3    3    0    0  0.19144499771E+02 -0.15026401074E+02 -0.91344558194E+02  0.94531121396E+02  0.00000000000E+00 0. -1.
        -13    1    4    4    0    0  0.22942832642E+02  0.11770938458E+02 -0.16923918300E+02  0.30843922780E+02  0.00000000000E+00 0.  1.
         13    1    4    4    0    0 -0.18386286753E+02 -0.12168058546E+02  0.66521916032E+02  0.70080542963E+02  0.00000000000E+00 0. -1.
         21    1    1    2  502  501  0.46363996499E+01 -0.54916415542E+02 -0.40652049889E+02  0.68482830388E+02  0.00000000000E+00 0. -1.
         21    1    1    2  503  502  0.19591697155E+02  0.33258651735E+02  0.44064276040E+02  0.58580141136E+02  0.00000000000E+00 0.  1.
<scales pt_clust_5="13000.00000" pt_clust_6="13000.00000" pt_clust_7="13000.00000" pt_clust_8="13000.00000" pt_clust_9="50.98114" pt_clust_10="38.60016"></scales>
<clustering>
<clus scale="   38.600">  1 10  2 -1</clus>
<clus scale="   50.981">  2  9  1 -1</clus>
<clus scale="   87.777">  7  8 -1 -1</clus>
<clus scale="   90.948">  5  6 -1 -1</clus>
<clus scale="   91.221">  1  7  2 -1</clus>
<clus scale="   38.600">  1  5  2 -1</clus>
</clustering>
</event>
<event>
10    2  0.1133532E-006  0.1154665E+03  0.7546771E-02  0.1250779E+00
         -3   -1    0    0    0  501 -0.00000000000E+00  0.00000000000E+00  0.21910368059E+03  0.21910368059E+03  0.00000000000E+00 0.  1.
          3   -1    0    0  503    0  0.00000000000E+00 -0.00000000000E+00 -0.19859720169E+03  0.19859720169E+03  0.00000000000E+00 0. -1.
         23    2    1    2    0    0  0.20062501768E+02  0.12165588050E+02  0.17877207243E+02  0.95754454367E+02  0.91097834675E+02 0.  0.
         23    2    1    2    0    0 -0.11572076694E+03 -0.68836235930E+02  0.74034616052E+02  0.17864818052E+03  0.91128067848E+02 0.  0.
        -13    1    4    4    0    0 -0.52623585110E+02 -0.48498526159E+02  0.85364407526E+02  0.11139313633E+03  0.00000000000E+00 0. -1.
         13    1    4    4    0    0 -0.63097181829E+02 -0.20337709771E+02 -0.11329791474E+02  0.67255044185E+02  0.00000000000E+00 0.  1.
        -13    1    3    3    0    0  0.44934816988E+02 -0.21885979116E+02  0.71802618469E-01  0.49981386688E+02  0.00000000000E+00 0. -1.
         13    1    3    3    0    0 -0.24872315220E+02  0.34051567167E+02  0.17805404625E+02  0.45773067679E+02  0.00000000000E+00 0.  1.
         21    1    1    2  502  501  0.65772754677E+02  0.51051190753E+02 -0.23424697027E+02  0.86492749788E+02  0.00000000000E+00 0. -1.
         21    1    1    2  503  502  0.29885510493E+02  0.56194571272E+01 -0.47980647367E+02  0.56805497600E+02  0.00000000000E+00 0. -1.
<scales pt_clust_5="13000.00000" pt_clust_6="13000.00000" pt_clust_7="13000.00000" pt_clust_8="13000.00000" pt_clust_9="93.57573" pt_clust_10="30.40924"></scales>
<clustering>
<clus scale="   30.409">  2 10  1 -1</clus>
<clus scale="   91.098">  7  8 -1 -1</clus>
<clus scale="   91.128">  5  6 -1 -1</clus>
<clus scale="   93.576">  2  9  1 -1</clus>
<clus scale="  115.443">  1  7  2 -1</clus>
<clus scale="   30.409">  2  5  1 -1</clus>
</clustering>
</event>
<event>
10    2  0.1133532E-006  0.1028720E+03  0.7546771E-02  0.1275113E+00
          1   -1    0    0  503    0  0.00000000000E+00  0.00000000000E+00  0.44932133008E+03  0.44932133008E+03  0.00000000000E+00 0. -1.
         -1   -1    0    0    0  501 -0.00000000000E+00 -0.00000000000E+00 -0.10143491263E+03  0.10143491263E+03  0.00000000000E+00 0.  1.
         23    2    1    2    0    0  0.44337156815E+02  0.20403824056E+02 -0.17771095777E+02  0.10523004613E+03  0.91517491508E+02 0.  0.
         23    2    1    2    0    0  0.58983290938E+01 -0.59765306013E+02  0.13442960002E+03  0.17249869648E+03  0.89876586702E+02 0.  0.
        -11    1    3    3    0    0  0.56207324198E+02  0.47793194812E+02 -0.10683678911E+02  0.74549270680E+02  0.00000000000E+00 0.  1.
         11    1    3    3    0    0 -0.11870167383E+02 -0.27389370756E+02 -0.70874168655E+01  0.30680775446E+02  0.00000000000E+00 0. -1.
        -11    1    4    4    0    0  0.35825694790E+02 -0.24143339376E+02  0.17424876857E+02  0.46583340122E+02  0.00000000000E+00 0.  1.
         11    1    4    4    0    0 -0.29927365697E+02 -0.35621966637E+02  0.11700472316E+03  0.12591535636E+03  0.00000000000E+00 0. -1.
         21    1    1    2  502  501 -0.18447867764E+02  0.21799974774E+02 -0.90987104337E+01  0.29972474985E+02  0.00000000000E+00 0.  1.
         21    1    1    2  503  502 -0.31787618144E+02  0.17561507184E+02  0.24032662364E+03  0.24305502511E+03  0.00000000000E+00 0.  1.
<scales pt_clust_5="13000.00000" pt_clust_6="13000.00000" pt_clust_7="13000.00000" pt_clust_8="13000.00000" pt_clust_9="28.55806" pt_clust_10="36.76106"></scales>
<clustering>
<clus scale="   28.558">  2  9  1 -1</clus>
<clus scale="   36.761">  1 10  2 -1</clus>
<clus scale="   89.877">  7  8 -1 -1</clus>
<clus scale="   91.517">  5  6 -1 -1</clus>
<clus scale="  101.415">  1  7  2 -1</clus>
<clus scale="   36.761">  1  5  2 -1</clus>
</clustering>
</event>
<event>
10    2  0.1133532E-006  0.9366063E+02  0.7546771E-02  0.1294754E+00
         -2   -1    0    0    0  501 -0.00000000000E+00  0.00000000000E+00  0.12977267944E+03  0.12977267944E+03  0.00000000000E+00 0.  1.
          2   -1    0    0  502    0  0.00000000000E+00 -0.00000000000E+00 -0.13609427049E+03  0.13609427049E+03  0.00000000000E+00 0. -1.
         23    2    1    2    0    0 -0.98620560920E+01  0.24848619620E+02  0.17710547412E+02  0.96363096046E+02  0.90870615397E+02 0.  0.
         23    2    1    2    0    0  0.18307069609E+02  0.34718622607E+02 -0.27858832531E+02  0.10366415256E+03  0.91812909896E+02 0.  0.
        -11    1    3    3    0    0 -0.18448775261E+02 -0.24677135285E+02  0.31681326106E+02  0.44193039478E+02  0.00000000000E+00 0.  1.
         11    1    3    3    0    0  0.85867191693E+01  0.49525754905E+02 -0.13970778693E+02  0.52170056568E+02  0.00000000000E+00 0. -1.
        -11    1    4    4    0    0  0.40301568611E+02 -0.10330121340E+02 -0.33229598402E+02  0.53245976838E+02  0.00000000000E+00 0. -1.
         11    1    4    4    0    0 -0.21994499002E+02  0.45048743947E+02  0.53707658712E+01  0.50418175727E+02  0.00000000000E+00 0.  1.
         21    1    1    2  502  503 -0.92152038180E+01 -0.34220601099E+02  0.14546182344E+02  0.38308758029E+02  0.00000000000E+00 0.  1.
         21    1    1    2  503  501  0.77019030097E+00 -0.25346641129E+02 -0.10719488278E+02  0.27530943292E+02  0.00000000000E+00 0. -1.
<scales pt_clust_5="13000.00000" pt_clust_6="13000.00000" pt_clust_7="13000.00000" pt_clust_8="13000.00000" pt_clust_9="65.72840" pt_clust_10="22.39059"></scales>
<clustering>
<clus scale="   22.391">  9 10 -1 -1</clus>
<clus scale="   65.728">  1  9  2 -1</clus>
<clus scale="   90.871">  5  6 -1 -1</clus>
<clus scale="   91.813">  7  8 -1 -1</clus>
<clus scale="   92.737">  1  5  2 -1</clus>
<clus scale="   93.661">  2  5  1 -1</clus>
</clustering>
</event>
<event>
10    2  0.1133532E-006  0.1154044E+03  0.7546771E-02  0.1251576E+00
         -1   -1    0    0    0  501 -0.00000000000E+00  0.00000000000E+00  0.53835384132E+03  0.53835384132E+03  0.00000000000E+00 0.  1.
          1   -1    0    0  503    0  0.00000000000E+00 -0.00000000000E+00 -0.10116006562E+03  0.10116006562E+03  0.00000000000E+00 0. -1.
         23    2    1    2    0    0 -0.11035249894E+03 -0.47808064743E+02  0.61198926984E+02  0.16353201561E+03  0.92380335508E+02 0.  0.
         23    2    1    2    0    0  0.21125829786E+02  0.24643001962E+02  0.37699363310E+02  0.10316433911E+03  0.90377323709E+02 0.  0.
        -11    1    4    4    0    0  0.12908809404E+02  0.58948932455E+02  0.19168544628E+02  0.63317036420E+02  0.00000000000E+00 0. -1.
         11    1    4    4    0    0  0.82170203819E+01 -0.34305930493E+02  0.18530818682E+02  0.39847302694E+02  0.00000000000E+00 0.  1.
        -13    1    3    3    0    0 -0.67866595656E+02 -0.72698923293E+02  0.55690984103E+02  0.11398462161E+03  0.00000000000E+00 0.  1.
         13    1    3    3    0    0 -0.42485903282E+02  0.24890858549E+02  0.55079428814E+01  0.49547393996E+02  0.00000000000E+00 0. -1.
         21    1    1    2  502  501  0.52130411421E+02  0.52175044696E+02  0.30826316377E+03  0.31696370963E+03  0.00000000000E+00 0.  1.
         21    1    1    2  503  502  0.37096257731E+02 -0.29009981915E+02  0.30032321636E+02  0.55853842582E+02  0.00000000000E+00 0.  1.
<scales pt_clust_5="13000.00000" pt_clust_6="13000.00000" pt_clust_7="13000.00000" pt_clust_8="13000.00000" pt_clust_9="74.07183" pt_clust_10="47.09258"></scales>
<clustering>
<clus scale="   47.093">  2 10  1 -1</clus>
<clus scale="   74.072">  1  9  2 -1</clus>
<clus scale="   90.377">  5  6 -1 -1</clus>
<clus scale="   92.380">  7  8 -1 -1</clus>
<clus scale="  113.807">  2  5  1 -1</clus>
<clus scale="   47.093">  2  5  1 -1</clus>
</clustering>
</event>
<event>
10    2  0.1133532E-006  0.1102552E+03  0.7546771E-02  0.1260579E+00
          1   -1    0    0  503    0  0.00000000000E+00  0.00000000000E+00  0.34153758359E+03  0.34153758359E+03  0.00000000000E+00 0. -1.
         -1   -1    0    0    0  501 -0.00000000000E+00 -0.00000000000E+00 -0.12699574271E+03  0.12699574271E+03  0.00000000000E+00 0.  1.
         23    2    1    2    0    0  0.11643696686E+02  0.53954971930E+02  0.51465790234E+01  0.10626184952E+03  0.90655274078E+02 0.  0.
         23    2    1    2    0    0 -0.55550728285E+02 -0.61957736111E+02  0.69260854462E+02  0.14201323752E+03  0.91902389480E+02 0.  0.
        -13    1    4    4    0    0 -0.21695318356E+02 -0.38371317691E+01 -0.20333124576E+02  0.29980766731E+02  0.00000000000E+00 0.  1.
         13    1    4    4    0    0 -0.33855409929E+02 -0.58120604342E+02  0.89593979037E+02  0.11203247079E+03  0.00000000000E+00 0. -1.
        -13    1    3    3    0    0  0.37847821205E+02 -0.79903122319E+01 -0.12211406465E+01  0.38701341631E+02  0.00000000000E+00 0. -1.
         13    1    3    3    0    0 -0.26204124520E+02  0.61945284162E+02  0.63677196699E+01  0.67560507884E+02  0.00000000000E+00 0.  1.
         21    1    1    2  502  501  0.21006373396E+02 -0.19958918053E+02 -0.32696574614E+02  0.43688581170E+02  0.00000000000E+00 0. -1.
         21    1    1    2  503  502  0.22900658203E+02  0.27961682234E+02  0.17283098200E+03  0.17656965810E+03  0.00000000000E+00 0. -1.
<scales pt_clust_5="13000.00000" pt_clust_6="13000.00000" pt_clust_7="13000.00000" pt_clust_8="13000.00000" pt_clust_9="28.97630" pt_clust_10="36.10298"></scales>
<clustering>
<clus scale="   28.976">  2  9  1 -1</clus>
<clus scale="   36.103">  1 10  2 -1</clus>
<clus scale="   90.655">  7  8 -1 -1</clus>
<clus scale="   91.902">  5  6 -1 -1</clus>
<clus scale="  109.218">  2  7  1 -1</clus>
<clus scale="   36.103">  1  5  2 -1</clus>
</clustering>
</event>
<event>
10    2  0.1133532E-006  0.9420035E+02  0.7546771E-02  0.1293794E+00
         -2   -1    0    0    0  501 -0.00000000000E+00  0.00000000000E+00  0.30331591827E+03  0.30331591827E+03  0.00000000000E+00 0.  1.
          2   -1    0    0  502    0  0.00000000000E+00 -0.00000000000E+00 -0.83329888486E+02  0.83329888486E+02  0.00000000000E+00 0. -1.
         23    2    1    2    0    0  0.12945259686E+02 -0.64023312449E+01  0.17885813200E+03  0.20207199179E+03  0.92920874349E+02 0.  0.
         23    2    1    2    0    0 -0.12695299526E+01  0.16736882910E+02 -0.29670883211E+02  0.97640949756E+02  0.91496769357E+02 0.  0.
        -13    1    4    4    0    0 -0.43784139013E+02 -0.17533079288E+01 -0.24694296995E+01  0.43888757112E+02  0.00000000000E+00 0. -1.
         13    1    4    4    0    0  0.42514609061E+02  0.18490190838E+02 -0.27201453512E+02  0.53752192643E+02  0.00000000000E+00 0.  1.
        -13    1    3    3    0    0  0.12580865461E+02 -0.48403117651E+02  0.11764918587E+03  0.12783767407E+03  0.00000000000E+00 0.  1.
         13    1    3    3    0    0  0.36439422480E+00  0.42000786406E+02  0.61208946124E+02  0.74234317721E+02  0.00000000000E+00 0. -1.
         21    1    1    2  502  503 -0.26330350364E+01 -0.29092946044E+02  0.46694063237E+02  0.55078742947E+02  0.00000000000E+00 0.  1.
         21    1    1    2  503  501 -0.90426946970E+01  0.18758394379E+02  0.24104717765E+02  0.31854122270E+02  0.00000000000E+00 0. -1.
<scales pt_clust_5="13000.00000" pt_clust_6="13000.00000" pt_clust_7="13000.00000" pt_clust_8="13000.00000" pt_clust_9="25.98507" pt_clust_10="20.82421"></scales>
<clustering>
<clus scale="   20.824">  1 10  2 -1</clus>
<clus scale="   25.985">  1  9  2 -1</clus>
<clus scale="   91.497">  5  6 -1 -1</clus>
<clus scale="   92.796">  2  5  1 -1</clus>
<clus scale="   92.921">  7  8 -1 -1</clus>
<clus scale="   92.796">  2  5  1 -1</clus>
</clustering>
</event>
<event>
10    2  0.1133532E-006  0.9522876E+02  0.7546771E-02  0.1291856E+00
         -1   -1    0    0    0  501 -0.00000000000E+00  0.00000000000E+00  0.59640980332E+03  0.59640980332E+03  0.00000000000E+00 0.  1.
          1   -1    0    0  503    0  0.00000000000E+00 -0.00000000000E+00 -0.16700586640E+03  0.16700586640E+03  0.00000000000E+00 0. -1.
         23    2    1    2    0    0 -0.71518154709E+01 -0.68911487389E+01  0.36436567645E+03  0.37581253208E+03  0.91509981438E+02 0.  0.
         23    2    1    2    0    0 -0.46152079004E+02 -0.30271583470E+02  0.14267288990E+03  0.17936554300E+03  0.93648605664E+02 0.  0.
        -13    1    4    4    0    0 -0.23434185109E+02  0.10996210998E+02  0.12716195447E+03  0.12976995166E+03  0.00000000000E+00 0.  1.
         13    1    4    4    0    0 -0.22717893895E+02 -0.41267794468E+02  0.15510935429E+02  0.49595591348E+02  0.00000000000E+00 0. -1.
        -13    1    3    3    0    0 -0.46446717526E+02 -0.78278757259E+01  0.26119569484E+03  0.26540867395E+03  0.00000000000E+00 0.  1.
         13    1    3    3    0    0  0.39294902055E+02  0.93672698692E+00  0.10316998161E+03  0.11040385813E+03  0.00000000000E+00 0. -1.
         21    1    1    2  502  501  0.18661345915E+02  0.90475115045E+01  0.60036440200E+02  0.63517536537E+02  0.00000000000E+00 0.  1.
         21    1    1    2  503  502  0.34642548560E+02  0.28115220704E+02 -0.13767106962E+03  0.14472005810E+03  0.00000000000E+00 0. -1.
<scales pt_clust_5="13000.00000" pt_clust_6="13000.00000" pt_clust_7="13000.00000" pt_clust_8="13000.00000" pt_clust_9="20.73893" pt_clust_10="44.74894"></scales>
<clustering>
<clus scale="   20.739">  1  9  2 -1</clus>
<clus scale="   44.749">  2 10  1 -1</clus>
<clus scale="   91.510">  7  8 -1 -1</clus>
<clus scale="   93.126">  1  7  2 -1</clus>
<clus scale="   93.649">  5  6 -1 -1</clus>
<clus scale="   44.749">  2  5  1 -1</clus>
</clustering>
</event>
<event>
10    2  0.1133532E-006  0.1078132E+03  0.7546771E-02  0.1264935E+00
         -3   -1    0    0    0  501 -0.00000000000E+00  0.00000000000E+00  0.50258478072E+03  0.50258478072E+03  0.00000000000E+00 0.  1.
          3   -1    0    0  503    0  0.00000000000E+00 -0.00000000000E+00 -0.10195031107E+03  0.10195031107E+03  0.00000000000E+00 0. -1.
         23    2    1    2    0    0  0.41799274079E+02 -0.31322822048E+02  0.28941430831E+03  0.30761637426E+03  0.90215815484E+02 0.  0.
         23    2    1    2    0    0 -0.61611158322E+02  0.42993724435E+02  0.39869048670E+01  0.11796983492E+03  0.90865787674E+02 0.  0.
        -11    1    3    3    0    0  0.63386594033E+02  0.12020945678E+01  0.15018229998E+03  0.16301542430E+03  0.00000000000E+00 0.  1.
         11    1    3    3    0    0 -0.21587319954E+02 -0.32524916616E+02  0.13923200834E+03  0.14460094996E+03  0.00000000000E+00 0. -1.
        -11    1    4    4    0    0 -0.84357995002E+02  0.26874309188E+02  0.11016261343E+02  0.89218035335E+02  0.00000000000E+00 0. -1.
         11    1    4    4    0    0  0.22746836679E+02  0.16119415247E+02 -0.70293564758E+01  0.28751799583E+02  0.00000000000E+00 0.  1.
         21    1    1    2  502  501  0.16908480728E+02  0.28092891408E+02  0.12929124745E+03  0.13338415924E+03  0.00000000000E+00 0.  1.
         21    1    1    2  503  502  0.29034035158E+01 -0.39763793795E+02 -0.22057990989E+02  0.45564723366E+02  0.00000000000E+00 0. -1.
<scales pt_clust_5="13000.00000" pt_clust_6="13000.00000" pt_clust_7="13000.00000" pt_clust_8="13000.00000" pt_clust_9="32.78883" pt_clust_10="39.02619"></scales>
<clustering>
<clus scale="   32.789">  1  9  2 -1</clus>
<clus scale="   39.026">  2 10  1 -1</clus>
<clus scale="   90.216">  5  6 -1 -1</clus>
<clus scale="   90.866">  7  8 -1 -1</clus>
<clus scale="  107.266">  1  5  2 -1</clus>
<clus scale="   39.026">  2  5  1 -1</clus>
</clustering>
</event>
<event>
10    2  0.1133532E-006  0.2147634E+03  0.7546771E-02  0.1138179E+00
          3   -1    0    0  503    0  0.00000000000E+00  0.00000000000E+00  0.38301889707E+03  0.38301889707E+03  0.00000000000E+00 0. -1.
         -3   -1    0    0    0  501 -0.00000000000E+00 -0.00000000000E+00 -0.66401610869E+03  0.66401610869E+03  0.00000000000E+00 0.  1.
         23    2    1    2    0    0 -0.14426143926E+03  0.71861818953E+01 -0.32457133537E+03  0.36570664240E+03  0.86785900272E+02 0.  0.
         23    2    1    2    0    0  0.22598565768E+03 -0.38527626791E+02  0.21440180025E+03  0.32678094966E+03  0.90905234230E+02 0.  0.
        -11    1    4    4    0    0  0.18324410544E+03 -0.67070418789E+02  0.17311905125E+03  0.26085829326E+03  0.00000000000E+00 0. -1.
         11    1    4    4    0    0  0.42741552236E+02  0.28542791998E+02  0.41282749000E+02  0.65922656406E+02  0.00000000000E+00 0.  1.
        -13    1    3    3    0    0 -0.48140464527E+02 -0.10552697857E+02 -0.36002211738E+02  0.61032966559E+02  0.00000000000E+00 0.  1.
         13    1    3    3    0    0 -0.96120974731E+02  0.17738879752E+02 -0.28856912363E+03  0.30467367584E+03  0.00000000000E+00 0. -1.
         21    1    1    2  502  501 -0.40620817015E+02  0.72807090044E+02 -0.24578152548E+03  0.25953705209E+03  0.00000000000E+00 0.  1.
         21    1    1    2  503  502 -0.41103401407E+02 -0.41465645148E+02  0.74953848989E+02  0.95010361609E+02  0.00000000000E+00 0.  1.
<scales pt_clust_5="13000.00000" pt_clust_6="13000.00000" pt_clust_7="13000.00000" pt_clust_8="13000.00000" pt_clust_9="83.00880" pt_clust_10="58.38569"></scales>
<clustering>
<clus scale="   58.386">  1 10  2 -1</clus>
<clus scale="   83.009">  2  9  1 -1</clus>
<clus scale="   86.786">  7  8 -1 -1</clus>
<clus scale="   90.905">  5  6 -1 -1</clus>
<clus scale="  213.052">  2  7  1 -1</clus>
<clus scale="   58.386">  1  5  2 -1</clus>
</clustering>
</event>
<event>
10    2  0.1133532E-006  0.1208282E+03  0.7546771E-02  0.1241807E+00
          2   -1    0    0  503    0  0.00000000000E+00  0.00000000000E+00  0.29446428930E+03  0.29446428930E+03  0.00000000000E+00 0. -1.
         -2   -1    0    0    0  501 -0.00000000000E+00 -0.00000000000E+00 -0.44677243313E+03  0.44677243313E+03  0.00000000000E+00 0.  1.
         23    2    1    2    0    0 -0.23483413617E+02  0.14394833868E+02 -0.27979967912E+03  0.29499351475E+03  0.89300791441E+02 0.  0.
         23    2    1    2    0    0 -0.46729937407E+02 -0.74552253117E+02  0.21105124217E+03  0.24556153580E+03  0.89532762421E+02 0.  0.
        -13    1    3    3    0    0 -0.52976859473E+02 -0.11273208513E+02 -0.15311712915E+03  0.16241455633E+03  0.00000000000E+00 0. -1.
         13    1    3    3    0    0  0.29493445856E+02  0.25668042381E+02 -0.12668254997E+03  0.13257895842E+03  0.00000000000E+00 0.  1.
        -13    1    4    4    0    0 -0.71723664356E+02 -0.50225202606E+02  0.17330220556E+03  0.19416619030E+03  0.00000000000E+00 0. -1.
         13    1    4    4    0    0  0.24993726949E+02 -0.24327050511E+02  0.37749036614E+02  0.51395345496E+02  0.00000000000E+00 0.  1.
         21    1    1    2  502  501  0.36270377780E+02  0.72396197279E+02 -0.12297821305E+03  0.14724262484E+03  0.00000000000E+00 0.  1.
         21    1    1    2  503  502  0.33942973245E+02 -0.12238778029E+02  0.39418506162E+02  0.53439047038E+02  0.00000000000E+00 0. -1.
<scales pt_clust_5="13000.00000" pt_clust_6="13000.00000" pt_clust_7="13000.00000" pt_clust_8="13000.00000" pt_clust_9="81.20113" pt_clust_10="36.08203"></scales>
<clustering>
<clus scale="   36.082">  1 10  2 -1</clus>
<clus scale="   81.201">  2  9  1 -1</clus>
<clus scale="   89.301">  5  6 -1 -1</clus>
<clus scale="   89.533">  7  8 -1 -1</clus>
<clus scale="  120.656">  2  5  1 -1</clus>
<clus scale="   36.082">  1  5  2 -1</clus>
</clustering>
</event>
<event>
10    2  0.1133532E-006  0.9463829E+02  0.7546771E-02  0.1293812E+00
         -1   -1    0    0    0  501 -0.00000000000E+00  0.00000000000E+00  0.14217236704E+03  0.14217236704E+03  0.00000000000E+00 0.  1.
          1   -1    0    0  503    0  0.00000000000E+00 -0.00000000000E+00 -0.34420700253E+03  0.34420700253E+03  0.00000000000E+00 0. -1.
         23    2    1    2    0    0 -0.73442122288E+02  0.45548685316E+02  0.19469014986E+02  0.12912583662E+03  0.93946852417E+02 0.  0.
         23    2    1    2    0    0 -0.17390608324E+02 -0.15343945239E+01 -0.19878707790E+03  0.21922501676E+03  0.90766282332E+02 0.  0.
        -11    1    4    4    0    0  0.31174814575E+02  0.22261885725E+02 -0.85636889243E+02  0.93814377464E+02  0.00000000000E+00 0.  1.
         11    1    4    4    0    0 -0.48565422899E+02 -0.23796280249E+02 -0.11315018866E+03  0.12541063930E+03  0.00000000000E+00 0. -1.
        -13    1    3    3    0    0  0.16054963586E+02 -0.12596124111E+02 -0.10967273725E+01  0.20435924479E+02  0.00000000000E+00 0.  1.
         13    1    3    3    0    0 -0.89497085874E+02  0.58144809427E+02  0.20565742359E+02  0.10868991214E+03  0.00000000000E+00 0. -1.
         21    1    1    2  502  501  0.70465176333E+02 -0.41948678872E+02  0.25307910618E+02  0.85822625656E+02  0.00000000000E+00 0.  1.
         21    1    1    2  503  502  0.20367554279E+02 -0.20656119204E+01 -0.48024483193E+02  0.52205890528E+02  0.00000000000E+00 0. -1.
<scales pt_clust_5="13000.00000" pt_clust_6="13000.00000" pt_clust_7="13000.00000" pt_clust_8="13000.00000" pt_clust_9="83.92031" pt_clust_10="20.47203"></scales>
<clustering>
<clus scale="   20.472">  2 10  1 -1</clus>
<clus scale="   83.920">  1  9  2 -1</clus>
<clus scale="   90.766">  5  6 -1 -1</clus>
<clus scale="   91.482">  2  5  1 -1</clus>
<clus scale="   93.947">  7  8 -1 -1</clus>
<clus scale="   20.472">  2  5  1 -1</clus>
</clustering>
</event>
<event>
10    2  0.1133532E-006  0.1280460E+03  0.7546771E-02  0.1232148E+00
         -1   -1    0    0    0  501 -0.00000000000E+00  0.00000000000E+00  0.12900907909E+04  0.12900907909E+04  0.00000000000E+00 0.  1.
          1   -1    0    0  503    0  0.00000000000E+00 -0.00000000000E+00 -0.11918914844E+03  0.11918914844E+03  0.00000000000E+00 0. -1.
         23    2    1    2    0    0 -0.12556653785E+03 -0.12936711042E+01  0.47277172104E+03  0.49861568412E+03  0.96622312258E+02 0.  0.
         23    2    1    2    0    0  0.52645526898E+02 -0.77016868536E+02  0.20363937264E+03  0.24157525285E+03  0.90479053696E+02 0.  0.
        -13    1    3    3    0    0 -0.25496329388E+02 -0.10750202620E+02  0.18330705481E+02  0.33191029392E+02  0.00000000000E+00 0.  1.
         13    1    3    3    0    0 -0.10007020846E+03  0.94565315156E+01  0.45444101556E+03  0.46542465473E+03  0.00000000000E+00 0. -1.
        -13    1    4    4    0    0  0.16269295706E+02 -0.89552575172E+02  0.13349087367E+03  0.16156784041E+03  0.00000000000E+00 0.  1.
         13    1    4    4    0    0  0.36376231192E+02  0.12535706636E+02  0.70148498971E+02  0.80007412435E+02  0.00000000000E+00 0. -1.
         21    1    1    2  502  501  0.77591141774E+02  0.39557662230E+02  0.57397100997E+03  0.58054105299E+03  0.00000000000E+00 0.  1.
         21    1    1    2  503  502 -0.46701308186E+01  0.38752877410E+02 -0.79480461186E+02  0.88547949382E+02  0.00000000000E+00 0. -1.
<scales pt_clust_5="13000.00000" pt_clust_6="13000.00000" pt_clust_7="13000.00000" pt_clust_8="13000.00000" pt_clust_9="88.41454" pt_clust_10="39.03326"></scales>
<clustering>
<clus scale="   39.033">  2 10  1 -1</clus>
<clus scale="   88.415">  1  9  2 -1</clus>
<clus scale="   90.479">  7  8 -1 -1</clus>
<clus scale="   96.622">  5  6 -1 -1</clus>
<clus scale="  123.476">  2  7  1 -1</clus>
<clus scale="   39.033">  2  5  1 -1</clus>
</clustering>
</event>
<event>
10    2  0.1133532E-006  0.1296862E+03  0.7546771E-02  0.1228273E+00
          2   -1    0    0  503    0  0.00000000000E+00  0.00000000000E+00  0.80331458233E+03  0.80331458233E+03  0.00000000000E+00 0. -1.
         -2   -1    0    0    0  501 -0.00000000000E+00 -0.00000000000E+00 -0.41098613082E+02  0.41098613082E+02  0.00000000000E+00 0.  1.
         23    2    1    2    0    0  0.11642461121E+02  0.91836912320E+02  0.13097612889E+03  0.18479399232E+03  0.91785118044E+02 0.  0.
         23    2    1    2    0    0  0.14377115336E+02 -0.71584770358E+02  0.44614192572E+03  0.46103752308E+03  0.90453850155E+02 0.  0.
        -11    1    4    4    0    0  0.49702599397E+02 -0.60284748926E+02  0.27256533014E+03  0.28354269262E+03  0.00000000000E+00 0. -1.
         11    1    4    4    0    0 -0.35325484061E+02 -0.11300021432E+02  0.17357659557E+03  0.17749483046E+03  0.00000000000E+00 0.  1.
        -13    1    3    3    0    0  0.32544782151E+02  0.26350472147E+01  0.12353709848E+02  0.34910177113E+02  0.00000000000E+00 0.  1.
         13    1    3    3    0    0 -0.20902321029E+02  0.89201865106E+02  0.11862241904E+03  0.14988381521E+03  0.00000000000E+00 0. -1.
         21    1    1    2  502  501 -0.16388928248E+02  0.12483928315E+02  0.16027837718E+02  0.26102433166E+02  0.00000000000E+00 0. -1.
         21    1    1    2  503  502 -0.96306482097E+01 -0.32736070277E+02  0.16907007692E+03  0.17247924685E+03  0.00000000000E+00 0. -1.
<scales pt_clust_5="13000.00000" pt_clust_6="13000.00000" pt_clust_7="13000.00000" pt_clust_8="13000.00000" pt_clust_9="20.60207" pt_clust_10="33.78808"></scales>
<clustering>
<clus scale="   20.602">  2  9  1 -1</clus>
<clus scale="   33.788">  1 10  2 -1</clus>
<clus scale="   90.454">  5  6 -1 -1</clus>
<clus scale="   91.785">  7  8 -1 -1</clus>
<clus scale="  128.747">  1  5  2 -1</clus>
<clus scale="   33.788">  1  5  2 -1</clus>
</clustering>
</event>
<event>
10    2  0.1133532E-006  0.2316137E+03  0.7546771E-02  0.1125917E+00
         -2   -1    0    0    0  501 -0.00000000000E+00  0.00000000000E+00  0.67536519860E+02  0.67536519860E+02  0.00000000000E+00 0.  1.
          2   -1    0    0  503    0  0.00000000000E+00 -0.00000000000E+00 -0.10776721618E+04  0.10776721618E+04  0.00000000000E+00 0. -1.
         23    2    1    2    0    0  0.14490108573E+03  0.17231664771E+03 -0.46078846980E+03  0.51951300115E+03  0.82936076211E+02 0.  0.
         23    2    1    2    0    0 -0.15703590299E+03 -0.13017811102E+03 -0.47165987670E+03  0.52155480761E+03  0.89161441423E+02 0.  0.
        -11    1    4    4    0    0 -0.11312516979E+03 -0.50532547532E+02 -0.33704565909E+03  0.35909694890E+03  0.00000000000E+00 0. -1.
         11    1    4    4    0    0 -0.43910733205E+02 -0.79645563483E+02 -0.13461421761E+03  0.16245785870E+03  0.00000000000E+00 0.  1.
        -13    1    3    3    0    0 -0.16827659400E+01  0.45370743737E+02 -0.10279196294E+03  0.11237225518E+03  0.00000000000E+00 0.  1.
         13    1    3    3    0    0  0.14658385167E+03  0.12694590397E+03 -0.35799650686E+03  0.40714074597E+03  0.00000000000E+00 0. -1.
         21    1    1    2  502  501  0.13535673276E+02 -0.14920962595E+02  0.16887936391E+01  0.20216369599E+02  0.00000000000E+00 0. -1.
         21    1    1    2  503  502 -0.14008560123E+01 -0.27217574096E+02 -0.79376089061E+02  0.83924503286E+02  0.00000000000E+00 0. -1.
<scales pt_clust_5="13000.00000" pt_clust_6="13000.00000" pt_clust_7="13000.00000" pt_clust_8="13000.00000" pt_clust_9="20.14571" pt_clust_10="27.83047"></scales>
<clustering>
<clus scale="   20.146">  1  9  2 -1</clus>
<clus scale="   27.830">  2 10  1 -1</clus>
<clus scale="   82.936">  7  8 -1 -1</clus>
<clus scale="   89.161">  5  6 -1 -1</clus>
<clus scale="  229.289">  1  7  2 -1</clus>
<clus scale="   27.830">  2  5  1 -1</clus>
</clustering>
</event>
<event>
10    2  0.1133532E-006  0.1597381E+03  0.7546771E-02  0.1189710E+00
          1   -1    0    0  503    0  0.00000000000E+00  0.00000000000E+00  0.37240800396E+03  0.37240800396E+03  0.00000000000E+00 0. -1.
         -1   -1    0    0    0  501 -0.00000000000E+00 -0.00000000000E+00 -0.22759438933E+03  0.22759438933E+03  0.00000000000E+00 0.  1.
         23    2    1    2    0    0 -0.48720508476E+02  0.13558601004E+03 -0.11955493773E+03  0.21067141265E+03  0.96601277981E+02 0.  0.
         23    2    1    2    0    0  0.55095143415E+02 -0.75194497902E+02  0.21491008765E+03  0.25181559261E+03  0.92385386093E+02 0.  0.
        -11    1    3    3    0    0 -0.62903771807E+02  0.44149339594E+02 -0.77122764932E+02  0.10887593657E+03  0.00000000000E+00 0.  1.
         11    1    3    3    0    0  0.14183263331E+02  0.91436670450E+02 -0.42432172801E+02  0.10179547608E+03  0.00000000000E+00 0. -1.
        -13    1    4    4    0    0 -0.16907473052E+02 -0.19689873296E+02  0.10308741884E+02  0.27925327477E+02  0.00000000000E+00 0.  1.
         13    1    4    4    0    0  0.72002616467E+02 -0.55504624606E+02  0.20460134577E+03  0.22389026513E+03  0.00000000000E+00 0. -1.
         21    1    1    2  502  501 -0.19207393232E+02 -0.21516133579E+02 -0.33982735231E+02  0.44572348522E+02  0.00000000000E+00 0.  1.
         21    1    1    2  503  502  0.12832758293E+02 -0.38875378562E+02  0.83441199945E+02  0.92943039503E+02  0.00000000000E+00 0.  1.
<scales pt_clust_5="13000.00000" pt_clust_6="13000.00000" pt_clust_7="13000.00000" pt_clust_8="13000.00000" pt_clust_9="28.84212" pt_clust_10="41.30704"></scales>
<clustering>
<clus scale="   28.842">  2  9  1 -1</clus>
<clus scale="   41.307">  1 10  2 -1</clus>
<clus scale="   92.385">  7  8 -1 -1</clus>
<clus scale="   96.601">  5  6 -1 -1</clus>
<clus scale="  157.224">  1  7  2 -1</clus>
<clus scale="   41.307">  1  5  2 -1</clus>
</clustering>
</event>
<event>
10    2  0.1133532E-006  0.1300673E+03  0.7546771E-02  0.1227644E+00
         -2   -1    0    0    0  501 -0.00000000000E+00  0.00000000000E+00  0.32684778312E+03  0.32684778312E+03  0.00000000000E+00 0.  1.
          2   -1    0    0  503    0  0.00000000000E+00 -0.00000000000E+00 -0.32168381026E+03  0.32168381026E+03  0.00000000000E+00 0. -1.
         23    2    1    2    0    0 -0.18893580385E+02  0.53239330350E+02  0.13593593727E+03  0.17512467065E+03  0.94861359642E+02 0.  0.
         23    2    1    2    0    0  0.57781860143E+02 -0.37692306267E+02 -0.24247294805E+03  0.26897962963E+03  0.93794761612E+02 0.  0.
        -11    1    3    3    0    0 -0.46866981806E+02 -0.29200435861E+01  0.68128131533E+02  0.82743476748E+02  0.00000000000E+00 0.  1.
         11    1    3    3    0    0  0.27973401421E+02  0.56159373936E+02  0.67807805733E+02  0.92381193899E+02  0.00000000000E+00 0. -1.
        -13    1    4    4    0    0  0.48278993840E+01 -0.41375395088E+02 -0.33749539437E+02  0.53612156675E+02  0.00000000000E+00 0. -1.
         13    1    4    4    0    0  0.52953960759E+02  0.36830888211E+01 -0.20872340861E+03  0.21536747295E+03  0.00000000000E+00 0.  1.
         21    1    1    2  502  501 -0.65290765751E+02 -0.16942849313E+01  0.14542174446E+03  0.15941530183E+03  0.00000000000E+00 0. -1.
         21    1    1    2  503  502  0.26402485994E+02 -0.13852739151E+02 -0.33720760822E+02  0.45011991280E+02  0.00000000000E+00 0. -1.
<scales pt_clust_5="13000.00000" pt_clust_6="13000.00000" pt_clust_7="13000.00000" pt_clust_8="13000.00000" pt_clust_9="64.66853" pt_clust_10="29.81593"></scales>
<clustering>
<clus scale="   29.816">  2 10  1 -1</clus>
<clus scale="   64.669">  1  9  2 -1</clus>
<clus scale="   93.795">  7  8 -1 -1</clus>
<clus scale="   94.861">  5  6 -1 -1</clus>
<clus scale="  129.291">  2  7  1 -1</clus>
<clus scale="   29.816">  2  5  1 -1</clus>
</clustering>
</event>
<event>
10    2  0.1133532E-006  0.4270666E+03  0.7546771E-02  0.1035040E+00
         -1   -1    0    0    0  501 -0.00000000000E+00  0.00000000000E+00  0.24844169041E+03  0.24844169041E+03  0.00000000000E+00 0.  1.
          1   -1    0    0  503    0  0.00000000000E+00 -0.00000000000E+00 -0.11207407984E+04  0.11207407984E+04  0.00000000000E+00 0. -1.
         23    2    1    2    0    0 -0.41561273383E+03 -0.37411876833E+02 -0.32047424534E+03  0.53377466821E+03  0.89878036512E+02 0.  0.
         23    2    1    2    0    0  0.40212918378E+03 -0.87566699259E+01 -0.56480928602E+03  0.70108942988E+03  0.10359681171E+03 0.  0.
        -11    1    4    4    0    0  0.15567160674E+03  0.15125452283E+01 -0.30737922660E+03  0.34455467764E+03  0.00000000000E+00 0.  1.
         11    1    4    4    0    0  0.24645757704E+03 -0.10269215154E+02 -0.25743005942E+03  0.35653475224E+03  0.00000000000E+00 0. -1.
        -11    1    3    3    0    0 -0.27632724776E+03 -0.45280295008E+02 -0.16553154346E+03  0.32528102442E+03  0.00000000000E+00 0.  1.
         11    1    3    3    0    0 -0.13928548608E+03  0.78684181747E+01 -0.15494270187E+03  0.20849364379E+03  0.00000000000E+00 0. -1.
         21    1    1    2  502  501 -0.24780656613E+02  0.28582153116E+02  0.60170003232E+02  0.71073551395E+02  0.00000000000E+00 0.  1.
         21    1    1    2  503  502  0.38264206663E+02  0.17586393643E+02 -0.47185579821E+02  0.63244839284E+02  0.00000000000E+00 0. -1.
<scales pt_clust_5="13000.00000" pt_clust_6="13000.00000" pt_clust_7="13000.00000" pt_clust_8="13000.00000" pt_clust_9="37.82883" pt_clust_10="41.67797"></scales>
<clustering>
<clus scale="   37.829">  1  9  2 -1</clus>
<clus scale="   41.678">  2 10  1 -1</clus>
<clus scale="   89.878">  7  8 -1 -1</clus>
<clus scale="  103.597">  5  6 -1 -1</clus>
<clus scale="  423.948">  1  7  2 -1</clus>
<clus scale="   41.678">  2  5  1 -1</clus>
</clustering>
</event>
<event>
10    2  0.1133532E-006  0.1039014E+03  0.7546771E-02  0.1274034E+00
         -2   -1    0    0    0  501 -0.00000000000E+00  0.00000000000E+00  0.26901792644E+03  0.26901792644E+03  0.00000000000E+00 0.  1.
          2   -1    0    0  503    0  0.00000000000E+00 -0.00000000000E+00 -0.22825244871E+03  0.22825244871E+03  0.00000000000E+00 0. -1.
         23    2    1    2    0    0 -0.20599487206E+01 -0.62351140948E+02  0.17945884245E+03  0.21022051002E+03  0.89973765797E+02 0.  0.
         23    2    1    2    0    0  0.14052372360E+02  0.32591241235E+02 -0.13536475601E+03  0.16845105134E+03  0.93768232121E+02 0.  0.
        -13    1    3    3    0    0  0.40041787371E+02 -0.11783939934E+02  0.89611649826E+02  0.98855721943E+02  0.00000000000E+00 0.  1.
         13    1    3    3    0    0 -0.42101736091E+02 -0.50567201014E+02  0.89847192627E+02  0.11136478808E+03  0.00000000000E+00 0. -1.
        -13    1    4    4    0    0  0.35261685555E+01  0.60733675960E+02 -0.12037128277E+03  0.13487126816E+03  0.00000000000E+00 0. -1.
         13    1    4    4    0    0  0.10526203805E+02 -0.28142434725E+02 -0.14993473244E+02  0.33579783185E+02  0.00000000000E+00 0.  1.
         21    1    1    2  502  501 -0.43974793028E+02  0.42141063317E+02  0.32471820048E+02  0.69022248127E+02  0.00000000000E+00 0. -1.
         21    1    1    2  503  502  0.31982369388E+02 -0.12381163604E+02 -0.35800428763E+02  0.49576565668E+02  0.00000000000E+00 0.  1.
<scales pt_clust_5="13000.00000" pt_clust_6="13000.00000" pt_clust_7="13000.00000" pt_clust_8="13000.00000" pt_clust_9="57.80370" pt_clust_10="34.29526"></scales>
<clustering>
<clus scale="   34.295">  2 10  1 -1</clus>
<clus scale="   57.804">  1  9  2 -1</clus>
<clus scale="   89.974">  5  6 -1 -1</clus>
<clus scale="   93.768">  7  8 -1 -1</clus>
<clus scale="  100.490">  1  5  2 -1</clus>
<clus scale="   34.295">  2  5  1 -1</clus>
</clustering>
</event>
<event>
10    2  0.1133532E-006  0.1316076E+03  0.7546771E-02  0.1239719E+00
         -3   -1    0    0    0  501 -0.00000000000E+00  0.00000000000E+00  0.20700311558E+03  0.20700311558E+03  0.00000000000E+00 0.  1.
          3   -1    0    0  503    0  0.00000000000E+00 -0.00000000000E+00 -0.23480862609E+03  0.23480862609E+03  0.00000000000E+00 0. -1.
         23    2    1    2    0    0 -0.38006071960E+02 -0.92542001507E+02 -0.78809747315E+02  0.15568962592E+03  0.89553334939E+02 0.  0.
         23    2    1    2    0    0  0.50229449893E+02 -0.27010258678E+02 -0.32034591407E+02  0.10858966910E+03  0.86677271987E+02 0.  0.
        -11    1    3    3    0    0  0.23907362862E+02 -0.64264797220E+01 -0.30112594094E+02  0.38982431474E+02  0.00000000000E+00 0.  1.
         11    1    3    3    0    0 -0.61913434821E+02 -0.86115521785E+02 -0.48697153222E+02  0.11670719445E+03  0.00000000000E+00 0. -1.
        -13    1    4    4    0    0  0.80319878243E+01  0.29601383372E+02  0.88519265644E+00  0.30684495955E+02  0.00000000000E+00 0.  1.
         13    1    4    4    0    0  0.42197462069E+02 -0.56611642050E+02 -0.32919784064E+02  0.77905173149E+02  0.00000000000E+00 0. -1.
         21    1    1    2  502  501  0.16810318104E+02  0.94680354000E+02  0.97232680175E+02  0.13675214924E+03  0.00000000000E+00 0.  1.
         21    1    1    2  503  502 -0.29033696037E+02  0.24871906185E+02 -0.14193851955E+02  0.40780297402E+02  0.00000000000E+00 0. -1.
<scales pt_clust_5="13000.00000" pt_clust_6="13000.00000" pt_clust_7="13000.00000" pt_clust_8="13000.00000" pt_clust_9="96.44051" pt_clust_10="38.23045"></scales>
<clustering>
<clus scale="   38.230">  2 10  1 -1</clus>
<clus scale="   86.677">  7  8 -1 -1</clus>
<clus scale="   89.553">  5  6 -1 -1</clus>
<clus scale="   97.410">  2  7  1 -1</clus>
<clus scale="   96.441">  1  9  2 -1</clus>
<clus scale="   38.230">  2  5  1 -1</clus>
</clustering>
</event>
<event>
10    2  0.1133532E-006  0.2004730E+03  0.7546771E-02  0.1149408E+00
          1   -1    0    0  503    0  0.00000000000E+00  0.00000000000E+00  0.62250638621E+03  0.62250638621E+03  0.00000000000E+00 0. -1.
         -1   -1    0    0    0  501 -0.00000000000E+00 -0.00000000000E+00 -0.37112422376E+03  0.37112422376E+03  0.00000000000E+00 0.  1.
         23    2    1    2    0    0  0.13022091512E+03  0.10670931634E+02 -0.13146684405E+03  0.20686883487E+03  0.91868537793E+02 0.  0.
         23    2    1    2    0    0 -0.21271792227E+03  0.86098848939E+02  0.20458458989E+03  0.32106867179E+03  0.92565173464E+02 0.  0.
        -11    1    3    3    0    0  0.47785081461E+02 -0.19037357976E+02 -0.10232194486E+03  0.11452342733E+03  0.00000000000E+00 0.  1.
         11    1    3    3    0    0  0.82435833663E+02  0.29708289610E+02 -0.29144899196E+02  0.92345407533E+02  0.00000000000E+00 0. -1.
        -13    1    4    4    0    0 -0.12946560741E+03  0.98870907567E+02  0.12703646035E+03  0.20657943297E+03  0.00000000000E+00 0. -1.
         13    1    4    4    0    0 -0.83252314854E+02 -0.12772058628E+02  0.77548129539E+02  0.11448923882E+03  0.00000000000E+00 0.  1.
         21    1    1    2  502  501  0.35230756243E+02 -0.92948430876E+02 -0.12445695302E+03  0.15928009965E+03  0.00000000000E+00 0.  1.
         21    1    1    2  503  502  0.47266250901E+02 -0.38213496968E+01  0.30272136963E+03  0.30641300367E+03  0.00000000000E+00 0. -1.
<scales pt_clust_5="13000.00000" pt_clust_6="13000.00000" pt_clust_7="13000.00000" pt_clust_8="13000.00000" pt_clust_9="100.54179" pt_clust_10="47.42047"></scales>
<clustering>
<clus scale="   47.420">  1 10  2 -1</clus>
<clus scale="   91.869">  5  6 -1 -1</clus>
<clus scale="   92.565">  7  8 -1 -1</clus>
<clus scale="  100.542">  2  9  1 -1</clus>
<clus scale="  200.152">  2  5  1 -1</clus>
<clus scale="   47.420">  1  5  2 -1</clus>
</clustering>
</event>
<event>
10    2  0.1133532E-006  0.1002927E+03  0.7546771E-02  0.1279769E+00
          1   -1    0    0  503    0  0.00000000000E+00  0.00000000000E+00  0.52839511127E+03  0.52839511127E+03  0.00000000000E+00 0. -1.
         -1   -1    0    0    0  501 -0.00000000000E+00 -0.00000000000E+00 -0.51637078637E+02  0.51637078637E+02  0.00000000000E+00 0.  1.
         23    2    1    2    0    0  0.17784567093E+02 -0.10055479537E+01  0.12040356627E+03  0.15264961326E+03  0.92128083145E+02 0.  0.
         23    2    1    2    0    0 -0.61451762723E+02 -0.78841338871E+01  0.12331499641E+03  0.16603049038E+03  0.92309569856E+02 0.  0.
        -11    1    4    4    0    0  0.96647427262E+01  0.25595602563E+02  0.56859671140E+02  0.63099638071E+02  0.00000000000E+00 0.  1.
         11    1    4    4    0    0 -0.71116505449E+02 -0.33479736450E+02  0.66455325266E+02  0.10293085231E+03  0.00000000000E+00 0. -1.
        -13    1    3    3    0    0 -0.29713846291E+02 -0.40878391947E+01  0.87036263310E+01  0.31231013464E+02  0.00000000000E+00 0.  1.
         13    1    3    3    0    0  0.47498413384E+02  0.30822912410E+01  0.11169993994E+03  0.12141859980E+03  0.00000000000E+00 0. -1.
         21    1    1    2  502  501  0.17317169382E+01  0.20708478481E+02 -0.32903885496E+01  0.21039643090E+02  0.00000000000E+00 0.  1.
         21    1    1    2  503  502  0.41935478691E+02 -0.11818796640E+02  0.23632985850E+03  0.24031244318E+03  0.00000000000E+00 0. -1.
<scales pt_clust_5="13000.00000" pt_clust_6="13000.00000" pt_clust_7="13000.00000" pt_clust_8="13000.00000" pt_clust_9="20.78076" pt_clust_10="43.38203"></scales>
<clustering>
<clus scale="   20.781">  2  9  1 -1</clus>
<clus scale="   43.382">  1 10  2 -1</clus>
<clus scale="   92.128">  7  8 -1 -1</clus>
<clus scale="   92.310">  5  6 -1 -1</clus>
<clus scale="  100.126">  2  7  1 -1</clus>
<clus scale="   43.382">  1  5  2 -1</clus>
</clustering>
</event>
<event>
10    2  0.1133532E-006  0.9635974E+02  0.7546771E-02  0.1298671E+00
          2   -1    0    0  503    0  0.00000000000E+00  0.00000000000E+00  0.29318032229E+03  0.29318032229E+03  0.00000000000E+00 0. -1.
         -2   -1    0    0    0  501 -0.00000000000E+00 -0.00000000000E+00 -0.94964662218E+02  0.94964662218E+02  0.00000000000E+00 0.  1.
         23    2    1    2    0    0 -0.49624469360E+01 -0.12948327509E+02  0.29459831400E+02  0.96808059273E+02  0.91168161160E+02 0.  0.
         23    2    1    2    0    0  0.34859115814E+02 -0.18492826684E+02  0.14538351827E+03  0.16730879946E+03  0.72792337492E+02 0.  0.
        -11    1    4    4    0    0 -0.14932623461E+02 -0.20137087903E+02  0.18985972039E+02  0.31447618144E+02  0.00000000000E+00 0.  1.
         11    1    4    4    0    0  0.49791739275E+02  0.16442612194E+01  0.12639754623E+03  0.13586118132E+03  0.00000000000E+00 0. -1.
        -13    1    3    3    0    0  0.34628847098E+02 -0.31234209285E+02  0.25155150101E+02  0.52985983596E+02  0.00000000000E+00 0.  1.
         13    1    3    3    0    0 -0.39591294034E+02  0.18285881776E+02  0.43046812984E+01  0.43822075678E+02  0.00000000000E+00 0. -1.
         21    1    1    2  502  501 -0.46332681503E+02 -0.13326259436E+02 -0.26508528544E+02  0.55018257436E+02  0.00000000000E+00 0.  1.
         21    1    1    2  503  502  0.16436012625E+02  0.44767413629E+02  0.49880838940E+02  0.69009868334E+02  0.00000000000E+00 0. -1.
<scales pt_clust_5="13000.00000" pt_clust_6="13000.00000" pt_clust_7="13000.00000" pt_clust_8="13000.00000" pt_clust_9="46.55224" pt_clust_10="47.68924"></scales>
<clustering>
<clus scale="   47.689">  1 10  2 -1</clus>
<clus scale="   46.552">  2  9  1 -1</clus>
<clus scale="   72.792">  5  6 -1 -1</clus>
<clus scale="   79.198">  1  5  2 -1</clus>
<clus scale="   91.168">  7  8 -1 -1</clus>
<clus scale="   47.689">  1  5  2 -1</clus>
</clustering>
</event>
<event>
10    2  0.1133532E-006  0.1234164E+03  0.7546771E-02  0.1239155E+00
         -1   -1    0    0    0  501 -0.00000000000E+00  0.00000000000E+00  0.40915230281E+03  0.40915230281E+03  0.00000000000E+00 0.  1.
          1   -1    0    0  502    0  0.00000000000E+00 -0.00000000000E+00 -0.32969889397E+03  0.32969889397E+03  0.00000000000E+00 0. -1.
         23    2    1    2    0    0 -0.44361955147E+02 -0.62522541380E+02  0.35782827899E+03  0.37839927773E+03  0.96269854549E+02 0.  0.
         23    2    1    2    0    0  0.62724391562E+02  0.61578716490E+02 -0.14793291668E+03  0.19473867930E+03  0.91174106847E+02 0.  0.
        -11    1    4    4    0    0  0.51810601708E+02  0.11744317237E+02 -0.13038017856E+03  0.14078799095E+03  0.00000000000E+00 0. -1.
         11    1    4    4    0    0  0.10913789853E+02  0.49834399253E+02 -0.17552738121E+02  0.53950688350E+02  0.00000000000E+00 0.  1.
        -13    1    3    3    0    0  0.17647663376E+02 -0.32560455893E+02  0.45997873907E+02  0.59054447035E+02  0.00000000000E+00 0. -1.
         13    1    3    3    0    0 -0.62009618523E+02 -0.29962085487E+02  0.31183040508E+03  0.31934483069E+03  0.00000000000E+00 0.  1.
         21    1    1    2  502  503  0.15704067629E+02 -0.32625476060E+02 -0.12271663387E+02  0.38231311127E+02  0.00000000000E+00 0. -1.
         21    1    1    2  503  501 -0.34066504044E+02  0.33569300950E+02 -0.11817029009E+03  0.12748192862E+03  0.00000000000E+00 0. -1.
<scales pt_clust_5="13000.00000" pt_clust_6="13000.00000" pt_clust_7="13000.00000" pt_clust_8="13000.00000" pt_clust_9="36.20828" pt_clust_10="34.43025"></scales>
<clustering>
<clus scale="   36.208">  2  9  1 -1</clus>
<clus scale="   34.430">  2 10  1 -1</clus>
<clus scale="   91.174">  5  6 -1 -1</clus>
<clus scale="   96.270">  7  8 -1 -1</clus>
<clus scale="  119.484">  2  5  1 -1</clus>
<clus scale="   36.208">  2  5  1 -1</clus>
</clustering>
</event>
<event>
10    2  0.1133532E-006  0.9899493E+02  0.7546771E-02  0.1282715E+00
         -2   -1    0    0    0  501 -0.00000000000E+00  0.00000000000E+00  0.13344224756E+03  0.13344224756E+03  0.00000000000E+00 0.  1.
          2   -1    0    0  503    0  0.00000000000E+00 -0.00000000000E+00 -0.73677087724E+03  0.73677087724E+03  0.00000000000E+00 0. -1.
         23    2    1    2    0    0  0.66877543576E+02  0.18379125943E+02  0.16400891046E+02  0.11675760363E+03  0.92482164083E+02 0.  0.
         23    2    1    2    0    0  0.25619125729E+02  0.32060525834E+01 -0.16554212379E+03  0.19165465810E+03  0.93062854288E+02 0.  0.
        -11    1    4    4    0    0  0.10778383418E+02  0.28214397030E+02 -0.77177825175E+01  0.31173545128E+02  0.00000000000E+00 0.  1.
         11    1    4    4    0    0  0.14840742311E+02 -0.25008344447E+02 -0.15782434127E+03  0.16048111298E+03  0.00000000000E+00 0. -1.
        -11    1    3    3    0    0  0.47435039871E+02 -0.16577153487E+02  0.45106419094E+02  0.67523877767E+02  0.00000000000E+00 0.  1.
         11    1    3    3    0    0  0.19442503705E+02  0.34956279430E+02 -0.28705528048E+02  0.49233725864E+02  0.00000000000E+00 0. -1.
         21    1    1    2  502  501 -0.28342490713E+02  0.78475038635E+00  0.47616215973E+02  0.55418558593E+02  0.00000000000E+00 0. -1.
         21    1    1    2  503  502 -0.64154178591E+02 -0.22369928913E+02 -0.50180361291E+03  0.50638230447E+03  0.00000000000E+00 0. -1.
<scales pt_clust_5="13000.00000" pt_clust_6="13000.00000" pt_clust_7="13000.00000" pt_clust_8="13000.00000" pt_clust_9="28.35335" pt_clust_10="68.68363"></scales>
<clustering>
<clus scale="   28.353">  1  9  2 -1</clus>
<clus scale="   68.684">  2 10  1 -1</clus>
<clus scale="   92.482">  7  8 -1 -1</clus>
<clus scale="   93.063">  5  6 -1 -1</clus>
<clus scale="   98.449">  1  7  2 -1</clus>
<clus scale="   68.684">  2  5  1 -1</clus>
</clustering>
</event>
<event>
10    2  0.1133532E-006  0.2079941E+03  0.7546771E-02  0.1165108E+00
          2   -1    0    0  503    0  0.00000000000E+00  0.00000000000E+00  0.27947539358E+03  0.27947539358E+03  0.00000000000E+00 0. -1.
         -2   -1    0    0    0  501 -0.00000000000E+00 -0.00000000000E+00 -0.46682736036E+03  0.46682736036E+03  0.00000000000E+00 0.  1.
         23    2    1    2    0    0 -0.62922057014E+02  0.56206139739E+02 -0.13206940983E+03  0.18073663720E+03  0.90028260075E+02 0.  0.
         23    2    1    2    0    0 -0.64233331113E+02  0.12206764434E+03 -0.10323028248E+03  0.19793007823E+03  0.97434049638E+02 0.  0.
        -11    1    4    4    0    0 -0.80336997726E+01  0.27103390121E+02  0.18379218480E+02  0.33718389048E+02  0.00000000000E+00 0.  1.
         11    1    4    4    0    0 -0.56199631340E+02  0.94964254215E+02 -0.12160950096E+03  0.16421168918E+03  0.00000000000E+00 0. -1.
        -13    1    3    3    0    0  0.20886484793E+02  0.47394966353E+00 -0.12112195761E+02  0.24149019886E+02  0.00000000000E+00 0.  1.
         13    1    3    3    0    0 -0.83808541807E+02  0.55732190075E+02 -0.11995721407E+03  0.15658761732E+03  0.00000000000E+00 0. -1.
         21    1    1    2  502  501  0.11787352489E+03 -0.19847123435E+03 -0.74985537037E+02  0.24270935190E+03  0.00000000000E+00 0.  1.
         21    1    1    2  503  502  0.92818632368E+01  0.20197450277E+02  0.12293326256E+03  0.12492668661E+03  0.00000000000E+00 0. -1.
<scales pt_clust_5="13000.00000" pt_clust_6="13000.00000" pt_clust_7="13000.00000" pt_clust_8="13000.00000" pt_clust_9="183.76113" pt_clust_10="22.22813"></scales>
<clustering>
<clus scale="   22.228">  1 10  2 -1</clus>
<clus scale="   90.028">  7  8 -1 -1</clus>
<clus scale="   97.434">  5  6 -1 -1</clus>
<clus scale="  124.129">  2  7  1 -1</clus>
<clus scale="  183.761">  2  9  1 -1</clus>
<clus scale="   22.228">  1  5  2 -1</clus>
</clustering>
</event>
<event>
10    2  0.1133532E-006  0.1114927E+03  0.7546771E-02  0.1257865E+00
          4   -1    0    0  503    0  0.00000000000E+00  0.00000000000E+00  0.15550948202E+03  0.15550948202E+03  0.00000000000E+00 0. -1.
         -4   -1    0    0    0  501 -0.00000000000E+00 -0.00000000000E+00 -0.19956849094E+03  0.19956849094E+03  0.00000000000E+00 0.  1.
         23    2    1    2    0    0  0.41824271349E+02  0.17902508755E+02  0.48781979839E+01  0.10168313854E+03  0.90806906976E+02 0.  0.
         23    2    1    2    0    0 -0.85816297257E+02  0.29403506929E-01  0.40866311605E+02  0.13139131093E+03  0.90714846766E+02 0.  0.
        -11    1    3    3    0    0 -0.24377778503E+01  0.24644644059E+02 -0.34220588642E+02  0.42241566361E+02  0.00000000000E+00 0. -1.
         11    1    3    3    0    0  0.44262049199E+02 -0.67421353035E+01  0.39098786626E+02  0.59441572181E+02  0.00000000000E+00 0.  1.
        -11    1    4    4    0    0 -0.92221288000E+02 -0.27577543609E+02  0.35197123292E+02  0.10248963050E+03  0.00000000000E+00 0. -1.
         11    1    4    4    0    0  0.64049907432E+01  0.27606947116E+02  0.56691883132E+01  0.28901680429E+02  0.00000000000E+00 0.  1.
         21    1    1    2  502  501  0.35777982378E+02  0.22417440870E+01 -0.93293577903E+02  0.99943889846E+02  0.00000000000E+00 0.  1.
         21    1    1    2  503  502  0.82140435299E+01 -0.20173656349E+02  0.34900593966E+01  0.22059633637E+02  0.00000000000E+00 0.  1.
<scales pt_clust_5="13000.00000" pt_clust_6="13000.00000" pt_clust_7="13000.00000" pt_clust_8="13000.00000" pt_clust_9="36.01295" pt_clust_10="21.78180"></scales>
<clustering>
<clus scale="   21.782">  1 10  2 -1</clus>
<clus scale="   36.013">  2  9  1 -1</clus>
<clus scale="   90.715">  7  8 -1 -1</clus>
<clus scale="   90.807">  5  6 -1 -1</clus>
<clus scale="  111.418">  1  7  2 -1</clus>
<clus scale="   21.782">  1  5  2 -1</clus>
</clustering>
</event>
<event>
10    2  0.1133532E-006  0.9991829E+02  0.7546771E-02  0.1282409E+00
          1   -1    0    0  503    0  0.00000000000E+00  0.00000000000E+00  0.44227564452E+03  0.44227564452E+03  0.00000000000E+00 0. -1.
         -1   -1    0    0    0  501 -0.00000000000E+00 -0.00000000000E+00 -0.94242131715E+02  0.94242131715E+02  0.00000000000E+00 0.  1.
         23    2    1    2    0    0 -0.11032166589E+02  0.29949487285E+01 -0.77215258641E+01  0.91218278678E+02  0.90169140984E+02 0.  0.
         23    2    1    2    0    0  0.57481832264E+02 -0.25891635756E+02  0.21847125109E+03  0.24605706426E+03  0.94020494987E+02 0.  0.
        -11    1    4    4    0    0 -0.22814976686E+02 -0.23193576016E+02  0.54796728504E+02  0.63727125969E+02  0.00000000000E+00 0.  1.
         11    1    4    4    0    0  0.80296808949E+02 -0.26980597398E+01  0.16367452258E+03  0.18232993829E+03  0.00000000000E+00 0. -1.
        -13    1    3    3    0    0 -0.29783368126E+02 -0.35559232945E+02 -0.12610865921E+02  0.48068097569E+02  0.00000000000E+00 0.  1.
         13    1    3    3    0    0  0.18751201537E+02  0.38554181674E+02  0.48893400566E+01  0.43150181110E+02  0.00000000000E+00 0. -1.
         21    1    1    2  502  501 -0.22619833075E+02  0.19487999219E+01 -0.25067081317E+02  0.33820308030E+02  0.00000000000E+00 0.  1.
         21    1    1    2  503  502 -0.23829832599E+02  0.20947887106E+02  0.16235086890E+03  0.16542212527E+03  0.00000000000E+00 0. -1.
<scales pt_clust_5="13000.00000" pt_clust_6="13000.00000" pt_clust_7="13000.00000" pt_clust_8="13000.00000" pt_clust_9="22.70363" pt_clust_10="32.16283"></scales>
<clustering>
<clus scale="   22.704">  2  9  1 -1</clus>
<clus scale="   32.163">  1 10  2 -1</clus>
<clus scale="   90.169">  7  8 -1 -1</clus>
<clus scale="   94.020">  5  6 -1 -1</clus>
<clus scale="   96.303">  2  7  1 -1</clus>
<clus scale="   32.163">  1  5  2 -1</clus>
</clustering>
</event>
<event>
10    2  0.1133532E-006  0.1099241E+03  0.7546771E-02  0.1260880E+00
         -1   -1    0    0    0  501 -0.00000000000E+00  0.00000000000E+00  0.12552946124E+03  0.12552946124E+03  0.00000000000E+00 0.  1.
          1   -1    0    0  503    0  0.00000000000E+00 -0.00000000000E+00 -0.39392081542E+03  0.39392081542E+03  0.00000000000E+00 0. -1.
         23    2    1    2    0    0 -0.19152705129E+01 -0.56178855095E+02 -0.13144342286E+03  0.16975056277E+03  0.91532224516E+02 0.  0.
         23    2    1    2    0    0  0.15165479934E+02  0.59431887133E+02 -0.84518649381E+02  0.13857678251E+03  0.91093257532E+02 0.  0.
        -13    1    4    4    0    0  0.27572139271E+02  0.78895655388E+02 -0.51090268771E+02  0.97953881323E+02  0.00000000000E+00 0.  1.
         13    1    4    4    0    0 -0.12406659337E+02 -0.19463768256E+02 -0.33428380611E+02  0.40622901187E+02  0.00000000000E+00 0. -1.
        -13    1    3    3    0    0 -0.32305779214E+02 -0.37714182967E+01 -0.99873893995E+01  0.34024034353E+02  0.00000000000E+00 0.  1.
         13    1    3    3    0    0  0.30390508701E+02 -0.52407436798E+02 -0.12145603346E+03  0.13572652841E+03  0.00000000000E+00 0. -1.
         21    1    1    2  502  501  0.58387049030E+00  0.44391772642E+02  0.67809936036E+02  0.81050341198E+02  0.00000000000E+00 0.  1.
         21    1    1    2  503  502 -0.13834079912E+02 -0.47644804680E+02 -0.12023921798E+03  0.13007259019E+03  0.00000000000E+00 0. -1.
<scales pt_clust_5="13000.00000" pt_clust_6="13000.00000" pt_clust_7="13000.00000" pt_clust_8="13000.00000" pt_clust_9="44.39561" pt_clust_10="45.50925"></scales>
<clustering>
<clus scale="   44.396">  1  9  2 -1</clus>
<clus scale="   45.509">  2 10  1 -1</clus>
<clus scale="   91.093">  5  6 -1 -1</clus>
<clus scale="   91.532">  7  8 -1 -1</clus>
<clus scale="  109.559">  2  5  1 -1</clus>
<clus scale="   45.509">  2  5  1 -1</clus>
</clustering>
</event>
<event>
10    2  0.1133532E-006  0.4012601E+03  0.7546771E-02  0.1043507E+00
          1   -1    0    0  503    0  0.00000000000E+00  0.00000000000E+00  0.93749426169E+03  0.93749426169E+03  0.00000000000E+00 0. -1.
         -1   -1    0    0    0  501 -0.00000000000E+00 -0.00000000000E+00 -0.91237774639E+03  0.91237774639E+03  0.00000000000E+00 0.  1.
         23    2    1    2    0    0  0.22570328188E+03  0.30261439649E+03 -0.74771948951E+03  0.84243367075E+03  0.89958936218E+02 0.  0.
         23    2    1    2    0    0 -0.24193099653E+03 -0.24006165120E+03  0.44671408982E+03  0.57036283038E+03  0.97979981482E+02 0.  0.
        -11    1    3    3    0    0  0.60957097890E+02  0.44918837731E+02 -0.21773250390E+03  0.23052312904E+03  0.00000000000E+00 0. -1.
         11    1    3    3    0    0  0.16474618399E+03  0.25769555876E+03 -0.52998698561E+03  0.61191054171E+03  0.00000000000E+00 0.  1.
        -13    1    4    4    0    0 -0.80687730427E+02 -0.11386542529E+03  0.25060533190E+03  0.28684294883E+03  0.00000000000E+00 0. -1.
         13    1    4    4    0    0 -0.16124326610E+03 -0.12619622592E+03  0.19610875792E+03  0.28351988155E+03  0.00000000000E+00 0.  1.
         21    1    1    2  502  501  0.27734251305E+02  0.18388174627E+01 -0.48977791618E+02  0.56315131332E+02  0.00000000000E+00 0.  1.
         21    1    1    2  503  502 -0.11506536650E+02 -0.64391562752E+02  0.37509970661E+03  0.38076037561E+03  0.00000000000E+00 0. -1.
<scales pt_clust_5="13000.00000" pt_clust_6="13000.00000" pt_clust_7="13000.00000" pt_clust_8="13000.00000" pt_clust_9="27.79514" pt_clust_10="65.38961"></scales>
<clustering>
<clus scale="   27.795">  2  9  1 -1</clus>
<clus scale="   65.390">  1 10  2 -1</clus>
<clus scale="   89.959">  5  6 -1 -1</clus>
<clus scale="   97.980">  7  8 -1 -1</clus>
<clus scale="  399.377">  2  5  1 -1</clus>
<clus scale="   65.390">  1  5  2 -1</clus>
</clustering>
</event>
<event>
10    2  0.1133532E-006  0.9181003E+02  0.7546771E-02  0.1301502E+00
         -2   -1    0    0    0  501 -0.00000000000E+00  0.00000000000E+00  0.53238063427E+02  0.53238063427E+02  0.00000000000E+00 0.  1.
          2   -1    0    0  503    0  0.00000000000E+00 -0.00000000000E+00 -0.40626581930E+03  0.40626581930E+03  0.00000000000E+00 0. -1.
         23    2    1    2    0    0 -0.12172692142E+02  0.15715381973E+02 -0.53577029073E+02  0.10398563389E+03  0.86875579689E+02 0.  0.
         23    2    1    2    0    0 -0.15003576512E+02  0.81088845444E+01 -0.19483718679E+03  0.21604542096E+03  0.91778174127E+02 0.  0.
        -11    1    4    4    0    0 -0.56120057101E+01  0.49949901072E+02 -0.98006770845E+02  0.11014451578E+03  0.00000000000E+00 0.  1.
         11    1    4    4    0    0 -0.93915708022E+01 -0.41841016528E+02 -0.96830415946E+02  0.10590090518E+03  0.00000000000E+00 0. -1.
        -13    1    3    3    0    0  0.16642708249E+01  0.31147726881E+02  0.13345204976E+02  0.33927056800E+02  0.00000000000E+00 0.  1.
         13    1    3    3    0    0 -0.13836962966E+02 -0.15432344908E+02 -0.66922234049E+02  0.70058577088E+02  0.00000000000E+00 0. -1.
         21    1    1    2  502  501  0.48862074272E+01 -0.23482763738E+02  0.75261550423E+01  0.25138779317E+02  0.00000000000E+00 0.  1.
         21    1    1    2  503  502  0.22290061227E+02 -0.34150277904E+00 -0.11213969505E+03  0.11433404856E+03  0.00000000000E+00 0. -1.
<scales pt_clust_5="13000.00000" pt_clust_6="13000.00000" pt_clust_7="13000.00000" pt_clust_8="13000.00000" pt_clust_9="24.14109" pt_clust_10="22.29268"></scales>
<clustering>
<clus scale="   22.293">  2 10  1 -1</clus>
<clus scale="   24.141">  1  9  2 -1</clus>
<clus scale="   86.876">  7  8 -1 -1</clus>
<clus scale="   86.909">  1  7  2 -1</clus>
<clus scale="   91.778">  5  6 -1 -1</clus>
<clus scale="   22.293">  2  5  1 -1</clus>
</clustering>
</event>
<event>
10    2  0.1133532E-006  0.9327062E+02  0.7546771E-02  0.1295985E+00
         -1   -1    0    0    0  501 -0.00000000000E+00  0.00000000000E+00  0.96209956382E+02  0.96209956382E+02  0.00000000000E+00 0.  1.
          1   -1    0    0  503    0  0.00000000000E+00 -0.00000000000E+00 -0.41551342739E+03  0.41551342739E+03  0.00000000000E+00 0. -1.
         23    2    1    2    0    0 -0.19682486989E+01  0.12927208399E+02 -0.11406968887E+03  0.14602663554E+03  0.90226923076E+02 0.  0.
         23    2    1    2    0    0 -0.43592645367E+02  0.16221933231E+02 -0.16060159617E+03  0.19071529400E+03  0.91738655023E+02 0.  0.
        -13    1    4    4    0    0 -0.41217979291E+02  0.44734649412E+02 -0.14689254406E+03  0.15898908823E+03  0.00000000000E+00 0.  1.
         13    1    4    4    0    0 -0.23746660765E+01 -0.28512716181E+02 -0.13709052108E+02  0.31726205772E+02  0.00000000000E+00 0. -1.
        -13    1    3    3    0    0  0.21841817370E+02 -0.13608707103E+02 -0.10651917792E+03  0.10958374497E+03  0.00000000000E+00 0. -1.
         13    1    3    3    0    0 -0.23810066069E+02  0.26535915503E+02 -0.75505109468E+01  0.36442890574E+02  0.00000000000E+00 0.  1.
         21    1    1    2  502  501 -0.63239611485E+01 -0.20448338798E+02  0.56810202146E+02  0.60708534096E+02  0.00000000000E+00 0.  1.
         21    1    1    2  503  502  0.51884855215E+02 -0.87008028328E+01 -0.10144238812E+03  0.11427292014E+03  0.00000000000E+00 0. -1.
<scales pt_clust_5="13000.00000" pt_clust_6="13000.00000" pt_clust_7="13000.00000" pt_clust_8="13000.00000" pt_clust_9="21.40390" pt_clust_10="52.24679"></scales>
<clustering>
<clus scale="   21.404">  1  9  2 -1</clus>
<clus scale="   52.247">  2 10  1 -1</clus>
<clus scale="   90.227">  7  8 -1 -1</clus>
<clus scale="   91.739">  5  6 -1 -1</clus>
<clus scale="   91.784">  1  7  2 -1</clus>
<clus scale="   52.247">  2  5  1 -1</clus>
</clustering>
</event>
<event>
10    2  0.1133532E-006  0.1383083E+03  0.7546771E-02  0.1216866E+00
         -1   -1    0    0    0  501 -0.00000000000E+00  0.00000000000E+00  0.10340577005E+03  0.10340577005E+03  0.00000000000E+00 0.  1.
          1   -1    0    0  503    0  0.00000000000E+00 -0.00000000000E+00 -0.66912918046E+03  0.66912918046E+03  0.00000000000E+00 0. -1.
         23    2    1    2    0    0 -0.65597311609E+02  0.10900148749E+03 -0.10314605523E+03  0.18799095646E+03  0.92288457758E+02 0.  0.
         23    2    1    2    0    0  0.61619583367E+02 -0.45769557164E+02 -0.31247917382E+03  0.33327755582E+03  0.86826664841E+02 0.  0.
        -11    1    3    3    0    0 -0.75814578989E+02  0.49376513554E+02 -0.86677840643E+02  0.12529540509E+03  0.00000000000E+00 0.  1.
         11    1    3    3    0    0  0.10217267380E+02  0.59624973939E+02 -0.16468214585E+02  0.62695551370E+02  0.00000000000E+00 0. -1.
        -13    1    4    4    0    0 -0.18182994329E+02 -0.28938625064E+02 -0.84566151816E+02  0.91211289522E+02  0.00000000000E+00 0.  1.
         13    1    4    4    0    0  0.79802577696E+02 -0.16830932100E+02 -0.22791302200E+03  0.24206626630E+03  0.00000000000E+00 0. -1.
         21    1    1    2  502  501  0.27507670974E+02 -0.41038208805E+01  0.41173128951E+02  0.49686415204E+02  0.00000000000E+00 0.  1.
         21    1    1    2  503  502 -0.23529942731E+02 -0.59128109450E+02 -0.19127131032E+03  0.20158002302E+03  0.00000000000E+00 0. -1.
<scales pt_clust_5="13000.00000" pt_clust_6="13000.00000" pt_clust_7="13000.00000" pt_clust_8="13000.00000" pt_clust_9="27.81211" pt_clust_10="63.11864"></scales>
<clustering>
<clus scale="   27.812">  1  9  2 -1</clus>
<clus scale="   63.119">  2 10  1 -1</clus>
<clus scale="   86.827">  7  8 -1 -1</clus>
<clus scale="   92.288">  5  6 -1 -1</clus>
<clus scale="  134.725">  2  7  1 -1</clus>
<clus scale="   63.119">  2  5  1 -1</clus>
</clustering>
</event>
<event>
10    2  0.1133532E-006  0.1072617E+03  0.7546771E-02  0.1266029E+00
          1   -1    0    0  503    0  0.00000000000E+00  0.00000000000E+00  0.55878235154E+02  0.55878235154E+02  0.00000000000E+00 0. -1.
         -1   -1    0    0    0  501 -0.00000000000E+00 -0.00000000000E+00 -0.48288188120E+03  0.48288188120E+03  0.00000000000E+00 0.  1.
         23    2    1    2    0    0 -0.53110868574E+01  0.47183379249E+02 -0.15211342752E+03  0.18464828318E+03  0.93284589994E+02 0.  0.
         23    2    1    2    0    0 -0.35365328062E+02 -0.59312880917E+02 -0.14998144256E+03  0.18928948681E+03  0.92559993696E+02 0.  0.
        -11    1    4    4    0    0 -0.53468962986E+02 -0.74394725410E+02 -0.11353025155E+03  0.14588565107E+03  0.00000000000E+00 0. -1.
         11    1    4    4    0    0  0.18103634924E+02  0.15081844493E+02 -0.36451191014E+02  0.43403835742E+02  0.00000000000E+00 0.  1.
        -13    1    3    3    0    0 -0.15051246318E+02 -0.16906782097E+02 -0.40228352175E+01  0.22990487159E+02  0.00000000000E+00 0. -1.
         13    1    3    3    0    0  0.97401594607E+01  0.64090161346E+02 -0.14809059230E+03  0.16165779603E+03  0.00000000000E+00 0.  1.
         21    1    1    2  502  501  0.18270562658E+02 -0.18699930922E+02 -0.12397281960E+03  0.12669949044E+03  0.00000000000E+00 0. -1.
         21    1    1    2  503  502  0.22405852261E+02  0.30829432590E+02 -0.93595636246E+00  0.38122855923E+02  0.00000000000E+00 0.  1.
<scales pt_clust_5="13000.00000" pt_clust_6="13000.00000" pt_clust_7="13000.00000" pt_clust_8="13000.00000" pt_clust_9="26.14385" pt_clust_10="37.89798"></scales>
<clustering>
<clus scale="   26.144">  2  9  1 -1</clus>
<clus scale="   37.898">  1 10  2 -1</clus>
<clus scale="   92.560">  5  6 -1 -1</clus>
<clus scale="   93.285">  7  8 -1 -1</clus>
<clus scale="  106.632">  1  5  2 -1</clus>
<clus scale="   37.898">  1  5  2 -1</clus>
</clustering>
</event>
<event>
10    2  0.1133532E-006  0.9268107E+02  0.7546771E-02  0.1296502E+00
         -1   -1    0    0    0  501 -0.00000000000E+00  0.00000000000E+00  0.11038181262E+03  0.11038181262E+03  0.00000000000E+00 0.  1.
          1   -1    0    0  503    0  0.00000000000E+00 -0.00000000000E+00 -0.15385145899E+03  0.15385145899E+03  0.00000000000E+00 0. -1.
         23    2    1    2    0    0  0.12957917489E+02 -0.16531482638E+02  0.16673774253E+02  0.94476496371E+02  0.90590264791E+02 0.  0.
         23    2    1    2    0    0 -0.12713993980E+02  0.13537501290E+02 -0.40664307456E+02  0.10104513781E+03  0.90618013607E+02 0.  0.
        -11    1    3    3    0    0  0.43050533806E+01  0.21970698614E+02 -0.27356424131E+02  0.35349950826E+02  0.00000000000E+00 0. -1.
         11    1    3    3    0    0  0.86528641084E+01 -0.38502181252E+02  0.44030198383E+02  0.59126545545E+02  0.00000000000E+00 0.  1.
        -13    1    4    4    0    0 -0.36169461744E+02  0.59519666669E+01  0.15431480557E+02  0.39771679148E+02  0.00000000000E+00 0. -1.
         13    1    4    4    0    0  0.23455467764E+02  0.75855346230E+01 -0.56095788013E+02  0.61273458662E+02  0.00000000000E+00 0.  1.
         21    1    1    2  502  501  0.12970157133E+02  0.18255628897E+02  0.16253556277E+02  0.27670761720E+02  0.00000000000E+00 0.  1.
         21    1    1    2  503  502 -0.13214080642E+02 -0.15261647549E+02 -0.35732669446E+02  0.41040875707E+02  0.00000000000E+00 0. -1.
<scales pt_clust_5="13000.00000" pt_clust_6="13000.00000" pt_clust_7="13000.00000" pt_clust_8="13000.00000" pt_clust_9="21.40077" pt_clust_10="20.18737"></scales>
<clustering>
<clus scale="   20.187">  2 10  1 -1</clus>
<clus scale="   21.401">  1  9  2 -1</clus>
<clus scale="   90.590">  5  6 -1 -1</clus>
<clus scale="   90.618">  7  8 -1 -1</clus>
<clus scale="   92.654">  1  5  2 -1</clus>
<clus scale="   20.187">  2  5  1 -1</clus>
</clustering>
</event>
<event>
10    2  0.1133532E-006  0.2817711E+03  0.7546771E-02  0.1094751E+00
         -2   -1    0    0    0  501 -0.00000000000E+00  0.00000000000E+00  0.17092148673E+04  0.17092148673E+04  0.00000000000E+00 0.  1.
          2   -1    0    0  503    0  0.00000000000E+00 -0.00000000000E+00 -0.24954678021E+03  0.24954678021E+03  0.00000000000E+00 0. -1.
         23    2    1    2    0    0 -0.10754561221E+03  0.38460569711E+03  0.11852078779E+04  0.12539984334E+04  0.91141407961E+02 0.  0.
         23    2    1    2    0    0  0.53085547778E+01 -0.21124612736E+03 -0.25812857242E+02  0.23134522940E+03  0.90560501797E+02 0.  0.
        -11    1    4    4    0    0 -0.55366572652E+01 -0.47080219969E+02  0.31735649437E+02  0.57046937965E+02  0.00000000000E+00 0.  1.
         11    1    4    4    0    0  0.10845212043E+02 -0.16416590740E+03 -0.57548506679E+02  0.17429829143E+03  0.00000000000E+00 0. -1.
        -13    1    3    3    0    0 -0.57270973535E+02  0.28396316796E+03  0.95156138824E+03  0.99467789799E+03  0.00000000000E+00 0.  1.
         13    1    3    3    0    0 -0.50274638677E+02  0.10064252915E+03  0.23364648968E+03  0.25932053545E+03  0.00000000000E+00 0. -1.
         21    1    1    2  502  501  0.61113081986E+02 -0.12288997585E+03  0.35987166894E+03  0.38515499875E+03  0.00000000000E+00 0. -1.
         21    1    1    2  503  502  0.41123975448E+02 -0.50469593891E+02 -0.59598602514E+02  0.88262985933E+02  0.00000000000E+00 0.  1.
<scales pt_clust_5="13000.00000" pt_clust_6="13000.00000" pt_clust_7="13000.00000" pt_clust_8="13000.00000" pt_clust_9="141.82197" pt_clust_10="65.10270"></scales>
<clustering>
<clus scale="   65.103">  2 10  1 -1</clus>
<clus scale="   90.561">  5  6 -1 -1</clus>
<clus scale="   91.141">  7  8 -1 -1</clus>
<clus scale="  141.822">  1  9  2 -1</clus>
<clus scale="  281.584">  2  5  1 -1</clus>
<clus scale="   65.103">  2  5  1 -1</clus>
</clustering>
</event>
<event>
10    2  0.1133532E-006  0.1386387E+03  0.7546771E-02  0.1215539E+00
          2   -1    0    0  503    0  0.00000000000E+00  0.00000000000E+00  0.48492740749E+02  0.48492740749E+02  0.00000000000E+00 0.  1.
         -2   -1    0    0    0  501 -0.00000000000E+00 -0.00000000000E+00 -0.78780302607E+03  0.78780302607E+03  0.00000000000E+00 0. -1.
         23    2    1    2    0    0  0.69251743780E+02  0.65078059543E+02 -0.31469278212E+03  0.34135258570E+03  0.91973272205E+02 0.  0.
         23    2    1    2    0    0 -0.10059063105E+03 -0.38443271763E+02 -0.16421628746E+03  0.21616306874E+03  0.90350002873E+02 0.  0.
        -11    1    3    3    0    0  0.15303605429E+02  0.57920992173E+02 -0.77275838975E+02  0.97778305174E+02  0.00000000000E+00 0.  1.
         11    1    3    3    0    0  0.53948138351E+02  0.71570673697E+01 -0.23741694314E+03  0.24357428053E+03  0.00000000000E+00 0. -1.
        -11    1    4    4    0    0 -0.95208948180E+02 -0.12337924130E+02 -0.71536304543E+02  0.11972640082E+03  0.00000000000E+00 0.  1.
         11    1    4    4    0    0 -0.53816828746E+01 -0.26105347633E+02 -0.92679982921E+02  0.96436667922E+02  0.00000000000E+00 0. -1.
         21    1    1    2  502  501  0.31010509613E+02 -0.28674809042E+01 -0.25146520699E+03  0.25338631470E+03  0.00000000000E+00 0.  1.
         21    1    1    2  503  502  0.32837766243E+00 -0.23767306875E+02 -0.89360087583E+01  0.25393797678E+02  0.00000000000E+00 0. -1.
<scales pt_clust_5="13000.00000" pt_clust_6="13000.00000" pt_clust_7="13000.00000" pt_clust_8="13000.00000" pt_clust_9="31.20790" pt_clust_10="23.76958"></scales>
<clustering>
<clus scale="   23.770">  1 10  2 -1</clus>
<clus scale="   31.208">  2  9  1 -1</clus>
<clus scale="   90.350">  7  8 -1 -1</clus>
<clus scale="   91.973">  5  6 -1 -1</clus>
<clus scale="  137.567">  1  7  2 -1</clus>
<clus scale="   23.770">  1  5  2 -1</clus>
</clustering>
</event>
<event>
10    2  0.1133532E-006  0.8833139E+02  0.7546771E-02  0.1307153E+00
         -1   -1    0    0    0  501 -0.00000000000E+00  0.00000000000E+00  0.25240035803E+03  0.25240035803E+03  0.00000000000E+00 0.  1.
          1   -1    0    0  503    0  0.00000000000E+00 -0.00000000000E+00 -0.13878101458E+03  0.13878101458E+03  0.00000000000E+00 0. -1.
         23    2    1    2    0    0  0.23887806169E+02 -0.29106646655E+02  0.11807839363E+03  0.15212209419E+03  0.88208844998E+02 0.  0.
         23    2    1    2    0    0  0.14903537524E+02 -0.34268720375E+02 -0.52930498805E+02  0.10917673684E+03  0.87871847229E+02 0.  0.
        -11    1    3    3    0    0  0.44815592042E+02 -0.12398792913E+02  0.11633794777E+03  0.12528641365E+03  0.00000000000E+00 0.  1.
         11    1    3    3    0    0 -0.20927785873E+02 -0.16707853742E+02  0.17404458671E+01  0.26835680540E+02  0.00000000000E+00 0. -1.
        -13    1    4    4    0    0 -0.17476597275E+02 -0.15665075846E+02 -0.65655545262E+02  0.69724290439E+02  0.00000000000E+00 0. -1.
         13    1    4    4    0    0  0.32380134799E+02 -0.18603644529E+02  0.12725046457E+02  0.39452446396E+02  0.00000000000E+00 0.  1.
         21    1    1    2  502  501 -0.26427122381E+02  0.21016348489E+02  0.72254636782E+02  0.79754700411E+02  0.00000000000E+00 0. -1.
         21    1    1    2  503  502 -0.12364221312E+02  0.42359018541E+02 -0.23783188161E+02  0.50127841161E+02  0.00000000000E+00 0. -1.
<scales pt_clust_5="13000.00000" pt_clust_6="13000.00000" pt_clust_7="13000.00000" pt_clust_8="13000.00000" pt_clust_9="33.76507" pt_clust_10="46.20902"></scales>
<clustering>
<clus scale="   33.765">  1  9  2 -1</clus>
<clus scale="   46.209">  2 10  1 -1</clus>
<clus scale="   87.872">  7  8 -1 -1</clus>
<clus scale="   87.995">  2  7  1 -1</clus>
<clus scale="   88.209">  5  6 -1 -1</clus>
<clus scale="   46.209">  2  5  1 -1</clus>
</clustering>
</event>
<event>
10    2  0.1133532E-006  0.1727571E+03  0.7546771E-02  0.1200613E+00
         -2   -1    0    0    0  501 -0.00000000000E+00  0.00000000000E+00  0.55672347617E+03  0.55672347617E+03  0.00000000000E+00 0.  1.
          2   -1    0    0  503    0  0.00000000000E+00 -0.00000000000E+00 -0.56945411036E+03  0.56945411036E+03  0.00000000000E+00 0. -1.
         23    2    1    2    0    0  0.22927147175E+02 -0.27767736166E+02  0.49248874097E+03  0.50212305568E+03  0.91025830521E+02 0.  0.
         23    2    1    2    0    0  0.12885956221E+03  0.48174778017E+02 -0.11272806004E+03  0.19882046435E+03  0.88861496253E+02 0.  0.
        -11    1    3    3    0    0  0.19570298094E+02 -0.61162211969E+02  0.33457245789E+03  0.34067953023E+03  0.00000000000E+00 0.  1.
         11    1    3    3    0    0  0.33568490811E+01  0.33394475804E+02  0.15791628307E+03  0.16144352545E+03  0.00000000000E+00 0. -1.
        -13    1    4    4    0    0  0.62650716366E+02  0.44494513418E+02 -0.10772133085E+03  0.13232066772E+03  0.00000000000E+00 0. -1.
         13    1    4    4    0    0  0.66208845842E+02  0.36802645999E+01 -0.50067291877E+01  0.66499796634E+02  0.00000000000E+00 0.  1.
         21    1    1    2  502  501 -0.92468246556E+02 -0.78254819869E+01 -0.15998775073E+03  0.18495322428E+03  0.00000000000E+00 0. -1.
         21    1    1    2  503  502 -0.59318462827E+02 -0.12581559865E+02 -0.23250356438E+03  0.24028084221E+03  0.00000000000E+00 0. -1.
<scales pt_clust_5="13000.00000" pt_clust_6="13000.00000" pt_clust_7="13000.00000" pt_clust_8="13000.00000" pt_clust_9="158.95776" pt_clust_10="46.56937"></scales>
<clustering>
<clus scale="   46.569">  9 10 -1 -1</clus>
<clus scale="   88.861">  7  8 -1 -1</clus>
<clus scale="   91.026">  5  6 -1 -1</clus>
<clus scale="   97.890">  1  5  2 -1</clus>
<clus scale="  158.958">  2  9  1 -1</clus>
<clus scale="  158.958">  2  5  1 -1</clus>
</clustering>
</event>
<event>
10    2  0.1133532E-006  0.1830011E+03  0.7546771E-02  0.1165425E+00
         -2   -1    0    0    0  501 -0.00000000000E+00  0.00000000000E+00  0.19732637266E+03  0.19732637266E+03  0.00000000000E+00 0.  1.
          2   -1    0    0  503    0  0.00000000000E+00 -0.00000000000E+00 -0.32677685588E+03  0.32677685588E+03  0.00000000000E+00 0. -1.
         23    2    1    2    0    0 -0.46818949654E+02 -0.14433160092E+03 -0.58680201021E+02  0.18627096760E+03  0.90718698793E+02 0.  0.
         23    2    1    2    0    0 -0.22262765402E+02  0.17292035400E+03 -0.91073366717E+02  0.21486096115E+03  0.86451113059E+02 0.  0.
        -11    1    3    3    0    0 -0.21227248698E+02 -0.12524275399E+03 -0.91701510899E+01  0.12735947230E+03  0.00000000000E+00 0. -1.
         11    1    3    3    0    0 -0.25591700956E+02 -0.19088846931E+02 -0.49510049931E+02  0.58911495306E+02  0.00000000000E+00 0.  1.
        -13    1    4    4    0    0 -0.40515608557E+02  0.14063534915E+03 -0.99312275586E+02  0.17686928520E+03  0.00000000000E+00 0. -1.
         13    1    4    4    0    0  0.18252843156E+02  0.32285004852E+02  0.82389088690E+01  0.37991675943E+02  0.00000000000E+00 0.  1.
         21    1    1    2  502  501  0.15161921061E+02 -0.15550447875E+02  0.53903944559E+02  0.58114847659E+02  0.00000000000E+00 0.  1.
         21    1    1    2  503  502  0.53919793994E+02 -0.13038305205E+02 -0.33600860045E+02  0.64856452129E+02  0.00000000000E+00 0. -1.
<scales pt_clust_5="13000.00000" pt_clust_6="13000.00000" pt_clust_7="13000.00000" pt_clust_8="13000.00000" pt_clust_9="21.71866" pt_clust_10="57.52190"></scales>
<clustering>
<clus scale="   21.719">  1  9  2 -1</clus>
<clus scale="   57.522">  2 10  1 -1</clus>
<clus scale="   86.451">  7  8 -1 -1</clus>
<clus scale="   90.719">  5  6 -1 -1</clus>
<clus scale="  180.924">  2  7  1 -1</clus>
<clus scale="   57.522">  2  5  1 -1</clus>
</clustering>
</event>
<event>
10    2  0.1133532E-006  0.1276054E+03  0.7546771E-02  0.1231632E+00
          1   -1    0    0  503    0  0.00000000000E+00  0.00000000000E+00  0.13870525461E+03  0.13870525461E+03  0.00000000000E+00 0. -1.
         -1   -1    0    0    0  501 -0.00000000000E+00 -0.00000000000E+00 -0.48238018322E+03  0.48238018322E+03  0.00000000000E+00 0.  1.
         23    2    1    2    0    0  0.29156916618E+02 -0.11723617988E+02 -0.24176106574E+03  0.25975928299E+03  0.89659930761E+02 0.  0.
         23    2    1    2    0    0 -0.63170285103E+02  0.53283420653E+02 -0.92826743960E+01  0.12385022623E+03  0.91777462680E+02 0.  0.
        -13    1    4    4    0    0 -0.77821350050E+02  0.14972128316E+02 -0.19431760479E+02  0.81596081188E+02  0.00000000000E+00 0. -1.
         13    1    4    4    0    0  0.14651064947E+02  0.38311292337E+02  0.10149086083E+02  0.42254145039E+02  0.00000000000E+00 0.  1.
        -13    1    3    3    0    0  0.21387027310E+02 -0.45529764631E+02 -0.81393674606E+02  0.95683304031E+02  0.00000000000E+00 0. -1.
         13    1    3    3    0    0  0.77698893081E+01  0.33806146643E+02 -0.16036739114E+03  0.16407597896E+03  0.00000000000E+00 0.  1.
         21    1    1    2  502  501  0.74538541004E+02 -0.66727319834E+02 -0.13879496358E+03  0.17109228861E+03  0.00000000000E+00 0. -1.
         21    1    1    2  503  502 -0.40525172519E+02  0.25167517170E+02  0.46163775112E+02  0.66383640009E+02  0.00000000000E+00 0.  1.
<scales pt_clust_5="13000.00000" pt_clust_6="13000.00000" pt_clust_7="13000.00000" pt_clust_8="13000.00000" pt_clust_9="90.85346" pt_clust_10="47.70423"></scales>
<clustering>
<clus scale="   47.704">  1 10  2 -1</clus>
<clus scale="   89.660">  7  8 -1 -1</clus>
<clus scale="   90.853">  2  9  1 -1</clus>
<clus scale="   91.777">  5  6 -1 -1</clus>
<clus scale="  126.091">  2  7  1 -1</clus>
<clus scale="   47.704">  1  5  2 -1</clus>
</clustering>
</event>
<event>
10    2  0.1133532E-006  0.9295472E+02  0.7546771E-02  0.1296735E+00
          1   -1    0    0  503    0  0.00000000000E+00  0.00000000000E+00  0.29884741021E+03  0.29884741021E+03  0.00000000000E+00 0. -1.
         -1   -1    0    0    0  501 -0.00000000000E+00 -0.00000000000E+00 -0.83732781111E+02  0.83732781111E+02  0.00000000000E+00 0.  1.
         23    2    1    2    0    0  0.13761416921E+02  0.18734808938E+01  0.49139212520E+02  0.10327223106E+03  0.89764163089E+02 0.  0.
         23    2    1    2    0    0  0.37021109213E+01 -0.32814503823E+02  0.69918706075E+02  0.11964827268E+03  0.91304909018E+02 0.  0.
        -11    1    4    4    0    0 -0.22219874427E+01  0.31577328929E+02  0.30258813782E+02  0.43791103457E+02  0.00000000000E+00 0.  1.
         11    1    4    4    0    0  0.59240983640E+01 -0.64391832752E+02  0.39659892293E+02  0.75857169228E+02  0.00000000000E+00 0. -1.
        -11    1    3    3    0    0  0.44899729575E+02 -0.57630117616E+01  0.54412113076E+02  0.70780478028E+02  0.00000000000E+00 0. -1.
         11    1    3    3    0    0 -0.31138312653E+02  0.76364926554E+01 -0.52729005558E+01  0.32491753034E+02  0.00000000000E+00 0.  1.
         21    1    1    2  502  501 -0.32424594635E+02  0.15558628203E+02 -0.20329157950E+02  0.41312224725E+02  0.00000000000E+00 0. -1.
         21    1    1    2  503  502  0.14961066792E+02  0.15382394727E+02  0.11638586846E+03  0.11834746285E+03  0.00000000000E+00 0.  1.
<scales pt_clust_5="13000.00000" pt_clust_6="13000.00000" pt_clust_7="13000.00000" pt_clust_8="13000.00000" pt_clust_9="35.58858" pt_clust_10="21.45814"></scales>
<clustering>
<clus scale="   21.458">  1 10  2 -1</clus>
<clus scale="   35.589">  2  9  1 -1</clus>
<clus scale="   89.764">  7  8 -1 -1</clus>
<clus scale="   91.305">  5  6 -1 -1</clus>
<clus scale="   91.442">  2  7  1 -1</clus>
<clus scale="   21.458">  1  5  2 -1</clus>
</clustering>
</event>
<event>
10    2  0.1133532E-006  0.9381420E+02  0.7546771E-02  0.1299635E+00
         -2   -1    0    0    0  501 -0.00000000000E+00  0.00000000000E+00  0.74324976590E+02  0.74324976590E+02  0.00000000000E+00 0. -1.
          2   -1    0    0  503    0  0.00000000000E+00 -0.00000000000E+00 -0.47838744552E+03  0.47838744552E+03  0.00000000000E+00 0.  1.
         23    2    1    2    0    0 -0.77786780367E+01  0.32781101656E+02 -0.12778814653E+03  0.16065576474E+03  0.91352919443E+02 0.  0.
         23    2    1    2    0    0 -0.29278072480E+02  0.41906587502E+02 -0.23768479207E+03  0.25643599960E+03  0.81559756670E+02 0.  0.
        -11    1    4    4    0    0  0.64994648566E+01  0.51903390254E+02 -0.89492512361E+02  0.10365864524E+03  0.00000000000E+00 0.  1.
         11    1    4    4    0    0 -0.35777537336E+02 -0.99968027519E+01 -0.14819227970E+03  0.15277735437E+03  0.00000000000E+00 0. -1.
        -11    1    3    3    0    0 -0.40006725275E+02  0.15892996642E+02 -0.11380832008E+03  0.12167768542E+03  0.00000000000E+00 0.  1.
         11    1    3    3    0    0  0.32228047238E+02  0.16888105014E+02 -0.13979826458E+02  0.38978079321E+02  0.00000000000E+00 0. -1.
         21    1    1    2  502  501  0.55335200679E+02 -0.60460119890E+02  0.92385554414E+01  0.82478854490E+02  0.00000000000E+00 0. -1.
         21    1    1    2  503  502 -0.18278450163E+02 -0.14227569268E+02 -0.47828085772E+02  0.53141803284E+02  0.00000000000E+00 0.  1.
<scales pt_clust_5="13000.00000" pt_clust_6="13000.00000" pt_clust_7="13000.00000" pt_clust_8="13000.00000" pt_clust_9="81.82575" pt_clust_10="23.16302"></scales>
<clustering>
<clus scale="   23.163">  2 10  1 -1</clus>
<clus scale="   81.560">  5  6 -1 -1</clus>
<clus scale="   81.826">  1  9  2 -1</clus>
<clus scale="   84.307">  2  5  1 -1</clus>
<clus scale="   91.353">  7  8 -1 -1</clus>
<clus scale="   23.163">  2  5  1 -1</clus>
</clustering>
</event>
<event>
10    2  0.1133532E-006  0.1497103E+03  0.7546771E-02  0.1201810E+00
         -1   -1    0    0    0  501 -0.00000000000E+00  0.00000000000E+00  0.85840195043E+03  0.85840195043E+03  0.00000000000E+00 0.  1.
          1   -1    0    0  503    0  0.00000000000E+00 -0.00000000000E+00 -0.68950538976E+02  0.68950538976E+02  0.00000000000E+00 0. -1.
         23    2    1    2    0    0 -0.34878696006E+02 -0.15311493890E+03  0.45842354857E+03  0.49328168631E+03  0.92271145140E+02 0.  0.
         23    2    1    2    0    0  0.11548999208E+02  0.86256235330E+02  0.55415777752E+02  0.13500381063E+03  0.87072400585E+02 0.  0.
        -11    1    4    4    0    0  0.45380588560E+02  0.53692401606E+02  0.52896549800E+02  0.87979070176E+02  0.00000000000E+00 0.  1.
         11    1    4    4    0    0 -0.33831589352E+02  0.32563833724E+02  0.25192279525E+01  0.47024740450E+02  0.00000000000E+00 0. -1.
        -13    1    3    3    0    0  0.49640369864E+01 -0.13825452730E+03  0.37369681618E+03  0.39848245433E+03  0.00000000000E+00 0.  1.
         13    1    3    3    0    0 -0.39842732993E+02 -0.14860411601E+02  0.84726732384E+02  0.94799231989E+02  0.00000000000E+00 0. -1.
         21    1    1    2  502  501  0.31387713653E+02  0.33916662085E+02  0.25548526346E+03  0.25963098502E+03  0.00000000000E+00 0.  1.
         21    1    1    2  503  502 -0.80580168554E+01  0.32942041482E+02  0.20126821673E+02  0.39436007446E+02  0.00000000000E+00 0. -1.
<scales pt_clust_5="13000.00000" pt_clust_6="13000.00000" pt_clust_7="13000.00000" pt_clust_8="13000.00000" pt_clust_9="46.87608" pt_clust_10="33.91327"></scales>
<clustering>
<clus scale="   33.913">  2 10  1 -1</clus>
<clus scale="   46.876">  1  9  2 -1</clus>
<clus scale="   87.072">  5  6 -1 -1</clus>
<clus scale="   92.271">  7  8 -1 -1</clus>
<clus scale="  146.563">  2  5  1 -1</clus>
<clus scale="   33.913">  2  5  1 -1</clus>
</clustering>
</event>
<event>
10    2  0.1133532E-006  0.1228874E+03  0.7546771E-02  0.1241337E+00
         -2   -1    0    0    0  501 -0.00000000000E+00  0.00000000000E+00  0.11910826351E+03  0.11910826351E+03  0.00000000000E+00 0.  1.
          2   -1    0    0  503    0  0.00000000000E+00 -0.00000000000E+00 -0.31025594568E+03  0.31025594568E+03  0.00000000000E+00 0. -1.
         23    2    1    2    0    0 -0.69404646798E+02 -0.51170114920E+01 -0.49778214286E+02  0.11856060150E+03  0.82070438075E+02 0.  0.
         23    2    1    2    0    0  0.93151326737E+02  0.53773495257E+02 -0.86368519194E+02  0.16570425137E+03  0.91812958510E+02 0.  0.
        -11    1    3    3    0    0 -0.32247422842E+02 -0.16237395348E+02  0.18096316695E+02  0.40385962482E+02  0.00000000000E+00 0.  1.
         11    1    3    3    0    0 -0.37157223956E+02  0.11120383856E+02 -0.67874530981E+02  0.78174639015E+02  0.00000000000E+00 0. -1.
        -13    1    4    4    0    0  0.13181640361E+02  0.49443627647E+02 -0.65171330484E+02  0.82859702356E+02  0.00000000000E+00 0. -1.
         13    1    4    4    0    0  0.79969686376E+02  0.43298676100E+01 -0.21197188710E+02  0.82844549017E+02  0.00000000000E+00 0.  1.
         21    1    1    2  502  501  0.22080224214E+02 -0.36672744282E+02  0.26849783472E+02  0.50530558546E+02  0.00000000000E+00 0.  1.
         21    1    1    2  503  502 -0.45826904153E+02 -0.11983739483E+02 -0.81850732163E+02  0.94568797771E+02  0.00000000000E+00 0. -1.
<scales pt_clust_5="13000.00000" pt_clust_6="13000.00000" pt_clust_7="13000.00000" pt_clust_8="13000.00000" pt_clust_9="42.80685" pt_clust_10="46.52580"></scales>
<clustering>
<clus scale="   42.807">  1  9  2 -1</clus>
<clus scale="   46.526">  2 10  1 -1</clus>
<clus scale="   82.070">  5  6 -1 -1</clus>
<clus scale="   91.813">  7  8 -1 -1</clus>
<clus scale="  115.790">  1  5  2 -1</clus>
<clus scale="   46.526">  2  5  1 -1</clus>
</clustering>
</event>
<event>
10    2  0.1306716E-006  0.2928368E+03  0.7546771E-02  0.1088888E+00
          1   -1    0    0  503    0  0.00000000000E+00  0.00000000000E+00  0.77596981440E+03  0.77596981440E+03  0.00000000000E+00 0. -1.
         -1   -1    0    0    0  501 -0.00000000000E+00 -0.00000000000E+00 -0.23197181360E+03  0.23197181360E+03  0.00000000000E+00 0.  1.
         23    2    1    2    0    0 -0.68779238849E+02 -0.27889560702E+03 -0.33061112969E+02  0.30350777397E+03  0.92252850135E+02 0.  0.
         23    2    1    2    0    0  0.10968976589E+03  0.22601848231E+03  0.55165688770E+03  0.61318853705E+03  0.92513032256E+02 0.  0.
        -13    1    4    4    0    0  0.11693524299E+03  0.17167306995E+03  0.47957042081E+03  0.52262154808E+03  0.00000000000E+00 0. -1.
         13    1    4    4    0    0 -0.72454771035E+01  0.54345412356E+02  0.72086466892E+02  0.90566988973E+02  0.00000000000E+00 0.  1.
        -13    1    3    3    0    0 -0.58084590247E+02 -0.70005309705E+02  0.41519200352E+01  0.91059329292E+02  0.00000000000E+00 0. -1.
         13    1    3    3    0    0 -0.10694648602E+02 -0.20889029731E+03 -0.37213033004E+02  0.21244844468E+03  0.00000000000E+00 0.  1.
         21    1    1    2  502  501 -0.33333005170E+02  0.13303729583E+02 -0.10377147131E+02  0.37359920197E+02  0.00000000000E+00 0.  1.
         21    1    1    2  503  502 -0.75775218718E+01  0.39573395130E+02  0.35779373198E+02  0.53885396781E+02  0.00000000000E+00 0.  1.
<scales pt_clust_5="13000.00000" pt_clust_6="13000.00000" pt_clust_7="13000.00000" pt_clust_8="13000.00000" pt_clust_9="35.88981" pt_clust_10="41.15449"></scales>
<clustering>
<clus scale="   35.890">  2  9  1 -1</clus>
<clus scale="   41.154">  1 10  2 -1</clus>
<clus scale="   92.253">  7  8 -1 -1</clus>
<clus scale="   92.513">  5  6 -1 -1</clus>
<clus scale="  292.755">  2  7  1 -1</clus>
<clus scale="   41.154">  1  5  2 -1</clus>
</clustering>
</event>
<event>
10    2  0.1537684E-006  0.1082657E+03  0.7546771E-02  0.1264599E+00
          1   -1    0    0  503    0  0.00000000000E+00  0.00000000000E+00  0.41456745398E+03  0.41456745398E+03  0.00000000000E+00 0. -1.
         -1   -1    0    0    0  501 -0.00000000000E+00 -0.00000000000E+00 -0.37613791293E+03  0.37613791293E+03  0.00000000000E+00 0.  1.
         23    2    1    2    0    0 -0.51277733467E+02 -0.89200179322E+02 -0.31579520884E+03  0.34398433105E+03  0.89512726150E+02 0.  0.
         23    2    1    2    0    0  0.46250115894E+02  0.19301101188E+02  0.21605126507E+03  0.23990653696E+03  0.91462514777E+02 0.  0.
        -11    1    4    4    0    0 -0.14086264925E+02 -0.22967592128E+02  0.89574291359E+02  0.93538691567E+02  0.00000000000E+00 0.  1.
         11    1    4    4    0    0  0.60336380819E+02  0.42268693316E+02  0.12647697372E+03  0.14636784539E+03  0.00000000000E+00 0. -1.
        -13    1    3    3    0    0 -0.60543299921E+02 -0.20335799182E+02 -0.18752824015E+03  0.19810572114E+03  0.00000000000E+00 0.  1.
         13    1    3    3    0    0  0.92655664537E+01 -0.68864380140E+02 -0.12826696868E+03  0.14587860991E+03  0.00000000000E+00 0. -1.
         21    1    1    2  502  501  0.22894435136E+02  0.38797329041E+02 -0.16546406388E+02  0.47991368654E+02  0.00000000000E+00 0. -1.
         21    1    1    2  503  502 -0.17866817563E+02  0.31101749093E+02  0.15471989121E+03  0.15882313025E+03  0.00000000000E+00 0. -1.
<scales pt_clust_5="13000.00000" pt_clust_6="13000.00000" pt_clust_7="13000.00000" pt_clust_8="13000.00000" pt_clust_9="46.16777" pt_clust_10="35.86840"></scales>
<clustering>
<clus scale="   35.868">  1 10  2 -1</clus>
<clus scale="   46.168">  2  9  1 -1</clus>
<clus scale="   89.513">  7  8 -1 -1</clus>
<clus scale="   91.463">  5  6 -1 -1</clus>
<clus scale="  106.624">  2  7  1 -1</clus>
<clus scale="   35.868">  1  5  2 -1</clus>
</clustering>
</event>
<event>
10    2  0.1133532E-006  0.1065683E+03  0.7546771E-02  0.1267850E+00
          1   -1    0    0  502    0  0.00000000000E+00  0.00000000000E+00  0.41896705131E+03  0.41896705131E+03  0.00000000000E+00 0. -1.
         -1   -1    0    0    0  501 -0.00000000000E+00 -0.00000000000E+00 -0.84990475911E+02  0.84990475911E+02  0.00000000000E+00 0.  1.
         23    2    1    2    0    0 -0.43569225125E+02  0.78375744864E+02  0.22220815022E+03  0.25606689746E+03  0.90292630855E+02 0.  0.
         23    2    1    2    0    0  0.43384447886E+01 -0.24813311716E+02  0.11021741971E+03  0.14349915810E+03  0.88371976470E+02 0.  0.
        -11    1    4    4    0    0  0.39217191071E+02 -0.33671599108E+02  0.85263335527E+02  0.99707577682E+02  0.00000000000E+00 0.  1.
         11    1    4    4    0    0 -0.34878746282E+02  0.88582873922E+01  0.24954084183E+02  0.43791580414E+02  0.00000000000E+00 0. -1.
        -13    1    3    3    0    0 -0.20846562988E+02 -0.13040661368E+02  0.15930327430E+02  0.29298692280E+02  0.00000000000E+00 0.  1.
         13    1    3    3    0    0 -0.22722662137E+02  0.91416406232E+02  0.20627782279E+03  0.22676820518E+03  0.00000000000E+00 0. -1.
         21    1    1    2  502  503  0.56610729738E+02 -0.28087728030E+02 -0.20547812080E+02  0.66452296940E+02  0.00000000000E+00 0.  1.
         21    1    1    2  503  501 -0.17379949402E+02 -0.25474705118E+02  0.22098817544E+02  0.37939174726E+02  0.00000000000E+00 0.  1.
<scales pt_clust_5="13000.00000" pt_clust_6="13000.00000" pt_clust_7="13000.00000" pt_clust_8="13000.00000" pt_clust_9="63.19590" pt_clust_10="30.83866"></scales>
<clustering>
<clus scale="   30.839">  2 10  1 -1</clus>
<clus scale="   63.196">  2  9  1 -1</clus>
<clus scale="   88.372">  5  6 -1 -1</clus>
<clus scale="   90.293">  7  8 -1 -1</clus>
<clus scale="  104.946">  1  5  2 -1</clus>
<clus scale="  104.946">  1  5  2 -1</clus>
</clustering>
</event>
<event>
10    2  0.1133532E-006  0.9441441E+02  0.7546771E-02  0.1292896E+00
         -2   -1    0    0    0  501 -0.00000000000E+00  0.00000000000E+00  0.23368324364E+03  0.23368324364E+03  0.00000000000E+00 0.  1.
          2   -1    0    0  502    0  0.00000000000E+00 -0.00000000000E+00 -0.79281699892E+02  0.79281699892E+02  0.00000000000E+00 0. -1.
         23    2    1    2    0    0 -0.22841815633E+02 -0.25548914133E+02  0.36804766394E+02  0.10485980661E+03  0.92013546055E+02 0.  0.
         23    2    1    2    0    0  0.19177331991E+02 -0.13874676547E+02  0.18638883867E+02  0.96143375270E+02  0.91300952377E+02 0.  0.
        -11    1    4    4    0    0  0.23445649961E+02  0.16635533582E+02 -0.28076892020E+02  0.40183968758E+02  0.00000000000E+00 0. -1.
         11    1    4    4    0    0 -0.42683179698E+01 -0.30510210129E+02  0.46715775888E+02  0.55959406512E+02  0.00000000000E+00 0.  1.
        -13    1    3    3    0    0 -0.28354452417E+02 -0.57796367246E+02  0.31665740252E+02  0.71743390946E+02  0.00000000000E+00 0.  1.
         13    1    3    3    0    0  0.55126367833E+01  0.32247453113E+02  0.51390261420E+01  0.33116415662E+02  0.00000000000E+00 0. -1.
         21    1    1    2  502  503  0.12250864577E+02  0.21293345971E+02  0.82294852989E+02  0.85883252698E+02  0.00000000000E+00 0.  1.
         21    1    1    2  503  501 -0.85863809346E+01  0.18130244710E+02  0.16663040500E+02  0.26078508959E+02  0.00000000000E+00 0.  1.
<scales pt_clust_5="13000.00000" pt_clust_6="13000.00000" pt_clust_7="13000.00000" pt_clust_8="13000.00000" pt_clust_9="29.81772" pt_clust_10="20.06070"></scales>
<clustering>
<clus scale="   20.061">  1 10  2 -1</clus>
<clus scale="   29.818">  1  9  2 -1</clus>
<clus scale="   91.301">  5  6 -1 -1</clus>
<clus scale="   92.014">  7  8 -1 -1</clus>
<clus scale="   93.720">  2  5  1 -1</clus>
<clus scale="   93.720">  2  5  1 -1</clus>
</clustering>
</event>
<event>
10    2  0.1133532E-006  0.1286135E+03  0.7546771E-02  0.1235478E+00
          1   -1    0    0  503    0  0.00000000000E+00  0.00000000000E+00  0.28075576911E+03  0.28075576911E+03  0.00000000000E+00 0. -1.
         -1   -1    0    0    0  501 -0.00000000000E+00 -0.00000000000E+00 -0.95881371843E+02  0.95881371843E+02  0.00000000000E+00 0.  1.
         23    2    1    2    0    0  0.50454096032E+02 -0.47976981453E+02  0.50806349465E+02  0.13867158937E+03  0.10863295079E+03 0.  0.
         23    2    1    2    0    0 -0.38858074047E+02  0.72903238117E+02  0.10807596900E+03  0.16344838837E+03  0.90609759626E+02 0.  0.
        -11    1    3    3    0    0  0.81267054371E+02 -0.16636279881E+02  0.21007159168E+02  0.85571027052E+02  0.00000000000E+00 0.  1.
         11    1    3    3    0    0 -0.30812958339E+02 -0.31340701572E+02  0.29799190297E+02  0.53100562323E+02  0.00000000000E+00 0. -1.
        -13    1    4    4    0    0 -0.36916384730E+02  0.20752143885E+02  0.10257330352E+03  0.11097185919E+03  0.00000000000E+00 0.  1.
         13    1    4    4    0    0 -0.19416893179E+01  0.52151094232E+02  0.55026654734E+01  0.52476529176E+02  0.00000000000E+00 0. -1.
         21    1    1    2  502  501 -0.18705213726E+02  0.15235597864E+02 -0.32340512309E+01  0.24340656322E+02  0.00000000000E+00 0. -1.
         21    1    1    2  503  502  0.71091917417E+01 -0.40161854529E+02  0.29226130039E+02  0.50176506888E+02  0.00000000000E+00 0.  1.
<scales pt_clust_5="13000.00000" pt_clust_6="13000.00000" pt_clust_7="13000.00000" pt_clust_8="13000.00000" pt_clust_9="24.12485" pt_clust_10="38.50845"></scales>
<clustering>
<clus scale="   24.125">  2  9  1 -1</clus>
<clus scale="   38.508">  1 10  2 -1</clus>
<clus scale="   90.610">  7  8 -1 -1</clus>
<clus scale="  108.633">  5  6 -1 -1</clus>
<clus scale="  113.800">  1  7  2 -1</clus>
<clus scale="   38.508">  1  5  2 -1</clus>
</clustering>
</event>
<event>
10    2  0.1133532E-006  0.9837580E+02  0.7546771E-02  0.1285756E+00
          1   -1    0    0  503    0  0.00000000000E+00  0.00000000000E+00  0.10812667636E+03  0.10812667636E+03  0.00000000000E+00 0. -1.
         -1   -1    0    0    0  501 -0.00000000000E+00 -0.00000000000E+00 -0.23179348674E+03  0.23179348674E+03  0.00000000000E+00 0.  1.
         23    2    1    2    0    0 -0.25670350955E+02 -0.32703641572E+02 -0.41722190088E+02  0.10840970197E+03  0.91013335535E+02 0.  0.
         23    2    1    2    0    0 -0.21596328248E+02  0.19239653348E+02 -0.33675792292E+02  0.10469241178E+03  0.94814958959E+02 0.  0.
        -13    1    3    3    0    0  0.88842139522E+01 -0.40090205426E+02 -0.56719729179E+02  0.70023435411E+02  0.00000000000E+00 0.  1.
         13    1    3    3    0    0 -0.34554564907E+02  0.73865638539E+01  0.14997539091E+02  0.38386266558E+02  0.00000000000E+00 0. -1.
        -13    1    4    4    0    0 -0.22247986353E+02 -0.36837975103E+02 -0.13814047452E+02  0.45197756731E+02  0.00000000000E+00 0. -1.
         13    1    4    4    0    0  0.65165810477E+00  0.56077628451E+02 -0.19861744840E+02  0.59494655046E+02  0.00000000000E+00 0.  1.
         21    1    1    2  502  501  0.30699309699E+02  0.19206280870E+01 -0.81958557651E+02  0.87540514052E+02  0.00000000000E+00 0.  1.
         21    1    1    2  503  502  0.16567369504E+02  0.11543360138E+02  0.33689729649E+02  0.39277535302E+02  0.00000000000E+00 0.  1.
<scales pt_clust_5="13000.00000" pt_clust_6="13000.00000" pt_clust_7="13000.00000" pt_clust_8="13000.00000" pt_clust_9="31.43422" pt_clust_10="20.19225"></scales>
<clustering>
<clus scale="   20.192">  1 10  2 -1</clus>
<clus scale="   31.434">  2  9  1 -1</clus>
<clus scale="   91.013">  5  6 -1 -1</clus>
<clus scale="   94.717">  2  5  1 -1</clus>
<clus scale="   94.815">  7  8 -1 -1</clus>
<clus scale="   20.192">  1  5  2 -1</clus>
</clustering>
</event>
<event>
10    2  0.1133532E-006  0.1823446E+03  0.7546771E-02  0.1191636E+00
         -2   -1    0    0    0  501 -0.00000000000E+00  0.00000000000E+00  0.11169652207E+03  0.11169652207E+03  0.00000000000E+00 0.  1.
          2   -1    0    0  503    0  0.00000000000E+00 -0.00000000000E+00 -0.12986337562E+04  0.12986337562E+04  0.00000000000E+00 0. -1.
         23    2    1    2    0    0 -0.35027404950E+02  0.46484738252E+02 -0.34735790491E+02  0.11361742700E+03  0.91184398824E+02 0.  0.
         23    2    1    2    0    0 -0.13011748520E+03  0.61201982436E+02 -0.95877585104E+02  0.19355113777E+03  0.87139480141E+02 0.  0.
        -11    1    4    4    0    0 -0.13993058882E+03  0.41784829676E+02 -0.87464750935E+02  0.17022521651E+03  0.00000000000E+00 0.  1.
         11    1    4    4    0    0  0.98131036243E+01  0.19417152760E+02 -0.84128341691E+01  0.23325921264E+02  0.00000000000E+00 0. -1.
        -11    1    3    3    0    0  0.13692630174E+02 -0.19087872973E+02  0.29078941621E+01  0.23670463962E+02  0.00000000000E+00 0.  1.
         11    1    3    3    0    0 -0.48720035124E+02  0.65572611224E+02 -0.37643684653E+02  0.89946963037E+02  0.00000000000E+00 0. -1.
         21    1    1    2  502  501  0.27089158188E+02 -0.22227839945E+02 -0.62190188852E+00  0.35046913158E+02  0.00000000000E+00 0.  1.
         21    1    1    2  503  502  0.13805573196E+03 -0.85458880743E+02 -0.10557019567E+04  0.10681148004E+04  0.00000000000E+00 0. -1.
<scales pt_clust_5="13000.00000" pt_clust_6="13000.00000" pt_clust_7="13000.00000" pt_clust_8="13000.00000" pt_clust_9="35.04139" pt_clust_10="160.17574"></scales>
<clustering>
<clus scale="   35.041">  1  9  2 -1</clus>
<clus scale="   87.139">  5  6 -1 -1</clus>
<clus scale="   91.184">  7  8 -1 -1</clus>
<clus scale="  101.299">  1  7  2 -1</clus>
<clus scale="  160.176">  2 10  1 -1</clus>
<clus scale="  160.176">  2  5  1 -1</clus>
</clustering>
</event>
<event>
10    2  0.1133532E-006  0.1935634E+03  0.7546771E-02  0.1155472E+00
         -2   -1    0    0    0  501 -0.00000000000E+00  0.00000000000E+00  0.67933671868E+02  0.67933671868E+02  0.00000000000E+00 0.  1.
          2   -1    0    0  503    0  0.00000000000E+00 -0.00000000000E+00 -0.20672310309E+04  0.20672310309E+04  0.00000000000E+00 0. -1.
         23    2    1    2    0    0 -0.41263070201E+02  0.11578293943E+03 -0.37774289673E+03  0.40783027024E+03  0.92344481529E+02 0.  0.
         23    2    1    2    0    0 -0.55017038184E+02 -0.24858025643E+03 -0.70934942551E+03  0.75907726463E+03  0.90568580842E+02 0.  0.
        -11    1    4    4    0    0  0.18816776032E+02 -0.38648739151E+02 -0.17579678189E+03  0.18097597802E+03  0.00000000000E+00 0.  1.
         11    1    4    4    0    0 -0.73833814215E+02 -0.20993151728E+03 -0.53355264362E+03  0.57810128661E+03  0.00000000000E+00 0. -1.
        -13    1    3    3    0    0  0.59210702744E+00  0.10688239247E+03 -0.22319179220E+03  0.24746468943E+03  0.00000000000E+00 0.  1.
         13    1    3    3    0    0 -0.41855177228E+02  0.89005469677E+01 -0.15455110453E+03  0.16036558081E+03  0.00000000000E+00 0. -1.
         21    1    1    2  502  501 -0.39105484449E+02  0.41369627740E+02 -0.18669394136E+02  0.59910193546E+02  0.00000000000E+00 0.  1.
         21    1    1    2  503  502  0.13538559283E+03  0.91427689256E+02 -0.89353564269E+03  0.90834697438E+03  0.00000000000E+00 0.  1.
<scales pt_clust_5="13000.00000" pt_clust_6="13000.00000" pt_clust_7="13000.00000" pt_clust_8="13000.00000" pt_clust_9="56.92701" pt_clust_10="162.15533"></scales>
<clustering>
<clus scale="   56.927">  1  9  2 -1</clus>
<clus scale="   90.569">  5  6 -1 -1</clus>
<clus scale="   92.344">  7  8 -1 -1</clus>
<clus scale="  162.155">  2 10  1 -1</clus>
<clus scale="  192.723">  2  5  1 -1</clus>
<clus scale="  162.155">  2  5  1 -1</clus>
</clustering>
</event>
<event>
10    2  0.1133532E-006  0.1233916E+03  0.7546771E-02  0.1238252E+00
          2   -1    0    0  503    0  0.00000000000E+00  0.00000000000E+00  0.13299953777E+03  0.13299953777E+03  0.00000000000E+00 0. -1.
         -2   -1    0    0    0  501 -0.00000000000E+00 -0.00000000000E+00 -0.21382183707E+03  0.21382183707E+03  0.00000000000E+00 0.  1.
         23    2    1    2    0    0  0.64963367051E+02  0.52843665453E+02 -0.56894788209E+02  0.13558829805E+03  0.90191338861E+02 0.  0.
         23    2    1    2    0    0 -0.77578923027E+02 -0.36613653229E+02  0.19845975498E+02  0.12760780462E+03  0.92362547369E+02 0.  0.
        -11    1    3    3    0    0  0.66922307403E+02  0.24233366318E+02  0.77812519419E+00  0.71179047128E+02  0.00000000000E+00 0. -1.
         11    1    3    3    0    0 -0.19589403521E+01  0.28610299134E+02 -0.57672913403E+02  0.64409250921E+02  0.00000000000E+00 0.  1.
        -13    1    4    4    0    0 -0.21366774589E+02 -0.57334185177E+02  0.27739470002E+02  0.67180548094E+02  0.00000000000E+00 0. -1.
         13    1    4    4    0    0 -0.56212148437E+02  0.20720531948E+02 -0.78934945034E+01  0.60427256529E+02  0.00000000000E+00 0.  1.
         21    1    1    2  502  501  0.13448196302E+02 -0.38166158145E+02 -0.46342557258E+02  0.61523509527E+02  0.00000000000E+00 0.  1.
         21    1    1    2  503  502 -0.83264032659E+00  0.21936145921E+02  0.25690706702E+01  0.22101762642E+02  0.00000000000E+00 0. -1.
<scales pt_clust_5="13000.00000" pt_clust_6="13000.00000" pt_clust_7="13000.00000" pt_clust_8="13000.00000" pt_clust_9="39.14940" pt_clust_10="21.95194"></scales>
<clustering>
<clus scale="   21.952">  1 10  2 -1</clus>
<clus scale="   39.149">  2  9  1 -1</clus>
<clus scale="   90.191">  5  6 -1 -1</clus>
<clus scale="   92.363">  7  8 -1 -1</clus>
<clus scale="  121.775">  2  5  1 -1</clus>
<clus scale="   21.952">  1  5  2 -1</clus>
</clustering>
</event>
<event>
10    2  0.1133532E-006  0.1344400E+03  0.7546771E-02  0.1221391E+00
         -2   -1    0    0    0  501 -0.00000000000E+00  0.00000000000E+00  0.49451976456E+03  0.49451976456E+03  0.00000000000E+00 0.  1.
          2   -1    0    0  503    0  0.00000000000E+00 -0.00000000000E+00 -0.65877844175E+03  0.65877844175E+03  0.00000000000E+00 0. -1.
         23    2    1    2    0    0 -0.93682705646E+02 -0.58347228949E+02  0.25517033278E+03  0.29251139163E+03  0.90940458736E+02 0.  0.
         23    2    1    2    0    0 -0.21427509951E+02  0.83003933961E+02 -0.42138201205E+03  0.43984813480E+03  0.92492109784E+02 0.  0.
        -11    1    4    4    0    0 -0.34342595739E+02  0.99383101405E+02 -0.35796210645E+03  0.37308616214E+03  0.00000000000E+00 0.  1.
         11    1    4    4    0    0  0.12915085788E+02 -0.16379167444E+02 -0.63419905597E+02  0.66761972656E+02  0.00000000000E+00 0. -1.
        -11    1    3    3    0    0 -0.26327299883E+02 -0.51752367354E+02  0.50535964363E+02  0.76976086806E+02  0.00000000000E+00 0. -1.
         11    1    3    3    0    0 -0.67355405764E+02 -0.65948615943E+01  0.20463436842E+03  0.21553530482E+03  0.00000000000E+00 0.  1.
         21    1    1    2  502  501  0.88310023986E+02 -0.41864948310E+02  0.19880425429E+03  0.22152757335E+03  0.00000000000E+00 0. -1.
         21    1    1    2  503  502  0.26800191611E+02  0.17208243297E+02 -0.19685125221E+03  0.19941110653E+03  0.00000000000E+00 0.  1.
<scales pt_clust_5="13000.00000" pt_clust_6="13000.00000" pt_clust_7="13000.00000" pt_clust_8="13000.00000" pt_clust_9="98.14867" pt_clust_10="31.84924"></scales>
<clustering>
<clus scale="   31.849">  2 10  1 -1</clus>
<clus scale="   90.940">  7  8 -1 -1</clus>
<clus scale="   92.492">  5  6 -1 -1</clus>
<clus scale="   98.149">  1  9  2 -1</clus>
<clus scale="  133.377">  1  7  2 -1</clus>
<clus scale="   31.849">  2  5  1 -1</clus>
</clustering>
</event>
<event>
10    2  0.1133532E-006  0.1718673E+03  0.7546771E-02  0.1177504E+00
         -4   -1    0    0    0  501 -0.00000000000E+00  0.00000000000E+00  0.22134297879E+03  0.22134297879E+03  0.00000000000E+00 0.  1.
          4   -1    0    0  503    0  0.00000000000E+00 -0.00000000000E+00 -0.41392497921E+03  0.41392497921E+03  0.00000000000E+00 0. -1.
         23    2    1    2    0    0 -0.78033314152E+02 -0.64671781143E+02  0.27353153231E+02  0.13850814781E+03  0.90358589098E+02 0.  0.
         23    2    1    2    0    0  0.10572717996E+03  0.12617634048E+03 -0.87388705999E+02  0.21201237930E+03  0.10106313651E+03 0.  0.
        -11    1    4    4    0    0  0.33124868382E+02 -0.35884232992E+01  0.93664259444E+01  0.34610166456E+02  0.00000000000E+00 0. -1.
         11    1    4    4    0    0  0.72602311573E+02  0.12976476378E+03 -0.96755131944E+02  0.17740221285E+03  0.00000000000E+00 0.  1.
        -11    1    3    3    0    0 -0.21341841782E+02 -0.31675859515E+02  0.55300123407E+02  0.67208168667E+02  0.00000000000E+00 0.  1.
         11    1    3    3    0    0 -0.56691472370E+02 -0.32995921628E+02 -0.27946970176E+02  0.71299979141E+02  0.00000000000E+00 0. -1.
         21    1    1    2  502  501 -0.34501171010E+02 -0.83974171100E+02  0.47991200307E+02  0.10268956870E+03  0.00000000000E+00 0. -1.
         21    1    1    2  503  502  0.68073052068E+01  0.22469611761E+02 -0.18053764795E+03  0.18205786219E+03  0.00000000000E+00 0.  1.
<scales pt_clust_5="13000.00000" pt_clust_6="13000.00000" pt_clust_7="13000.00000" pt_clust_8="13000.00000" pt_clust_9="88.03819" pt_clust_10="23.47814"></scales>
<clustering>
<clus scale="   23.478">  2 10  1 -1</clus>
<clus scale="   88.038">  1  9  2 -1</clus>
<clus scale="   90.359">  7  8 -1 -1</clus>
<clus scale="  101.063">  5  6 -1 -1</clus>
<clus scale="  165.799">  1  7  2 -1</clus>
<clus scale="   23.478">  2  5  1 -1</clus>
</clustering>
</event>
<event>
10    2  0.1133532E-006  0.2106249E+03  0.7546771E-02  0.1141230E+00
          1   -1    0    0  503    0  0.00000000000E+00  0.00000000000E+00  0.61436351659E+03  0.61436351659E+03  0.00000000000E+00 0. -1.
         -1   -1    0    0    0  501 -0.00000000000E+00 -0.00000000000E+00 -0.16241891593E+03  0.16241891593E+03  0.00000000000E+00 0.  1.
         23    2    1    2    0    0 -0.12056593037E+03  0.17574148074E+03  0.19332201577E+01  0.23092040779E+03  0.88877926256E+02 0.  0.
         23    2    1    2    0    0  0.49308972605E+02 -0.15863432630E+03  0.24803094671E+03  0.31201124574E+03  0.90749339846E+02 0.  0.
        -11    1    4    4    0    0 -0.92646205235E+01 -0.32339449290E+02  0.11362771550E+03  0.11850287297E+03  0.00000000000E+00 0.  1.
         11    1    4    4    0    0  0.58573593128E+02 -0.12629487701E+03  0.13440323122E+03  0.19350837277E+03  0.00000000000E+00 0. -1.
        -13    1    3    3    0    0 -0.10970900244E+03  0.83214984618E+02 -0.12698821683E+01  0.13770407213E+03  0.00000000000E+00 0.  1.
         13    1    3    3    0    0 -0.10856927925E+02  0.92526496121E+02  0.32031023260E+01  0.93216335655E+02  0.00000000000E+00 0. -1.
         21    1    1    2  502  501 -0.48148385529E+01 -0.22949396953E+02  0.69954269341E+01  0.24470257228E+02  0.00000000000E+00 0. -1.
         21    1    1    2  503  502  0.76071796314E+02  0.58422425109E+01  0.19498500686E+03  0.20938052176E+03  0.00000000000E+00 0. -1.
<scales pt_clust_5="13000.00000" pt_clust_6="13000.00000" pt_clust_7="13000.00000" pt_clust_8="13000.00000" pt_clust_9="23.44904" pt_clust_10="75.99597"></scales>
<clustering>
<clus scale="   23.449">  2  9  1 -1</clus>
<clus scale="   75.996">  1 10  2 -1</clus>
<clus scale="   88.878">  7  8 -1 -1</clus>
<clus scale="   90.749">  5  6 -1 -1</clus>
<clus scale="  209.825">  2  7  1 -1</clus>
<clus scale="   75.996">  1  5  2 -1</clus>
</clustering>
</event>
<event>
10    2  0.1133532E-006  0.1522786E+03  0.7546771E-02  0.1197750E+00
         -1   -1    0    0    0  501 -0.00000000000E+00  0.00000000000E+00  0.15717645118E+03  0.15717645118E+03  0.00000000000E+00 0.  1.
          1   -1    0    0  503    0  0.00000000000E+00 -0.00000000000E+00 -0.29257225515E+03  0.29257225515E+03  0.00000000000E+00 0. -1.
         23    2    1    2    0    0  0.14202036998E+03  0.70598089314E+02 -0.33039378399E+02  0.18617142849E+03  0.91729627466E+02 0.  0.
         23    2    1    2    0    0 -0.95699420132E+02 -0.28443555682E+02 -0.10725052360E+03  0.17272764101E+03  0.91458997820E+02 0.  0.
        -11    1    3    3    0    0  0.14445485689E+03  0.36570191088E+02 -0.24609981968E+02  0.15103057892E+03  0.00000000000E+00 0.  1.
         11    1    3    3    0    0 -0.24344869099E+01  0.34027898226E+02 -0.84293964307E+01  0.35140849568E+02  0.00000000000E+00 0. -1.
        -11    1    4    4    0    0 -0.90593192622E+02  0.14057270994E+02 -0.82185794223E+02  0.12312285811E+03  0.00000000000E+00 0. -1.
         11    1    4    4    0    0 -0.51062275100E+01 -0.42500826676E+02 -0.25064729375E+02  0.49604782896E+02  0.00000000000E+00 0.  1.
         21    1    1    2  502  501 -0.43046557356E+02 -0.20217055764E+02  0.30865452752E+02  0.56695781303E+02  0.00000000000E+00 0. -1.
         21    1    1    2  503  502 -0.32743924950E+01 -0.21937477868E+02 -0.25971354721E+02  0.34153855528E+02  0.00000000000E+00 0. -1.
<scales pt_clust_5="13000.00000" pt_clust_6="13000.00000" pt_clust_7="13000.00000" pt_clust_8="13000.00000" pt_clust_9="48.17090" pt_clust_10="22.18050"></scales>
<clustering>
<clus scale="   22.181">  2 10  1 -1</clus>
<clus scale="   48.171">  1  9  2 -1</clus>
<clus scale="   91.459">  7  8 -1 -1</clus>
<clus scale="   91.730">  5  6 -1 -1</clus>
<clus scale="  152.116">  2  7  1 -1</clus>
<clus scale="   22.181">  2  5  1 -1</clus>
</clustering>
</event>
<event>
10    2  0.1133532E-006  0.1230735E+03  0.7546771E-02  0.1243150E+00
          1   -1    0    0  502    0  0.00000000000E+00  0.00000000000E+00  0.54422572267E+03  0.54422572267E+03  0.00000000000E+00 0. -1.
         -1   -1    0    0    0  501 -0.00000000000E+00 -0.00000000000E+00 -0.12530717894E+03  0.12530717894E+03  0.00000000000E+00 0.  1.
         23    2    1    2    0    0  0.15699770296E+02 -0.96480277772E+02 -0.40245401998E+02  0.14027710118E+03  0.92211962061E+02 0.  0.
         23    2    1    2    0    0 -0.46114436610E+02  0.41999475465E+02  0.63838817788E+02  0.11691027701E+03  0.75512389777E+02 0.  0.
        -11    1    3    3    0    0 -0.16546583006E+02 -0.56541986587E+02  0.18987006143E+02  0.61897431762E+02  0.00000000000E+00 0.  1.
         11    1    3    3    0    0  0.32246353302E+02 -0.39938291185E+02 -0.59232408141E+02  0.78379669419E+02  0.00000000000E+00 0. -1.
        -13    1    4    4    0    0 -0.21228325954E+02 -0.10847506841E+02  0.52147741139E+02  0.57338443765E+02  0.00000000000E+00 0.  1.
         13    1    4    4    0    0 -0.24886110656E+02  0.52846982306E+02  0.11691076649E+02  0.59571833240E+02  0.00000000000E+00 0. -1.
         21    1    1    2  502  503 -0.10990043808E+02  0.27034779442E+02  0.24203178896E+02  0.37913773633E+02  0.00000000000E+00 0. -1.
         21    1    1    2  503  501  0.41404710122E+02  0.27446022865E+02  0.37112194905E+03  0.37443174980E+03  0.00000000000E+00 0. -1.
<scales pt_clust_5="13000.00000" pt_clust_6="13000.00000" pt_clust_7="13000.00000" pt_clust_8="13000.00000" pt_clust_9="29.18322" pt_clust_10="57.74040"></scales>
<clustering>
<clus scale="   29.183">  1  9  2 -1</clus>
<clus scale="   57.740">  1 10  2 -1</clus>
<clus scale="   75.512">  7  8 -1 -1</clus>
<clus scale="   92.212">  5  6 -1 -1</clus>
<clus scale="  111.113">  1  7  2 -1</clus>
<clus scale="   29.183">  1  5  2 -1</clus>
</clustering>
</event>
<event>
10    2  0.1133532E-006  0.1232815E+03  0.7546771E-02  0.1244156E+00
          2   -1    0    0  503    0  0.00000000000E+00  0.00000000000E+00  0.56792629206E+03  0.56792629206E+03  0.00000000000E+00 0. -1.
         -2   -1    0    0    0  501 -0.00000000000E+00 -0.00000000000E+00 -0.54407711286E+02  0.54407711286E+02  0.00000000000E+00 0.  1.
         23    2    1    2    0    0 -0.46820369836E+02  0.72528496328E+02  0.10724963610E+03  0.16440078442E+03  0.89847669219E+02 0.  0.
         23    2    1    2    0    0  0.13078290804E+02 -0.24465052944E+02  0.26105296093E+03  0.28364370073E+03  0.10740353833E+03 0.  0.
        -11    1    3    3    0    0 -0.12912080664E+02  0.17255640659E+02 -0.14834707500E+02  0.26163858818E+02  0.00000000000E+00 0.  1.
         11    1    3    3    0    0 -0.33908289172E+02  0.55272855670E+02  0.12208434360E+03  0.13823692561E+03  0.00000000000E+00 0. -1.
        -11    1    4    4    0    0 -0.21305266999E+02 -0.46830354428E+02  0.62760742657E+02  0.81153603226E+02  0.00000000000E+00 0.  1.
         11    1    4    4    0    0  0.34383557803E+02  0.22365301484E+02  0.19829221827E+03  0.20249009750E+03  0.00000000000E+00 0. -1.
         21    1    1    2  502  501  0.15697970086E+02 -0.14443253073E+02 -0.27271124918E+01  0.21505138147E+02  0.00000000000E+00 0.  1.
         21    1    1    2  503  502  0.18044108946E+02 -0.33620190311E+02  0.14794309623E+03  0.15278438005E+03  0.00000000000E+00 0.  1.
<scales pt_clust_5="13000.00000" pt_clust_6="13000.00000" pt_clust_7="13000.00000" pt_clust_8="13000.00000" pt_clust_9="21.33152" pt_clust_10="39.31170"></scales>
<clustering>
<clus scale="   21.332">  2  9  1 -1</clus>
<clus scale="   39.312">  1 10  2 -1</clus>
<clus scale="   89.848">  5  6 -1 -1</clus>
<clus scale="  107.404">  7  8 -1 -1</clus>
<clus scale="  108.330">  2  5  1 -1</clus>
<clus scale="   39.312">  1  5  2 -1</clus>
</clustering>
</event>
<event>
10    2  0.1133532E-006  0.1048858E+03  0.7546771E-02  0.1271574E+00
          1   -1    0    0  503    0  0.00000000000E+00  0.00000000000E+00  0.77938668382E+03  0.77938668382E+03  0.00000000000E+00 0. -1.
         -1   -1    0    0    0  501 -0.00000000000E+00 -0.00000000000E+00 -0.31257135466E+03  0.31257135466E+03  0.00000000000E+00 0.  1.
         23    2    1    2    0    0 -0.22238808115E+02 -0.24124888213E+02 -0.23715289012E+03  0.25619158297E+03  0.91192428815E+02 0.  0.
         23    2    1    2    0    0  0.61773329585E+02 -0.23456809998E+02  0.48760652476E+03  0.50095140007E+03  0.93946878952E+02 0.  0.
        -13    1    4    4    0    0 -0.24000668349E+02 -0.15629063893E+02  0.11347809860E+03  0.11703665487E+03  0.00000000000E+00 0.  1.
         13    1    4    4    0    0  0.85773997935E+02 -0.78277461060E+01  0.37412842615E+03  0.38391474521E+03  0.00000000000E+00 0. -1.
        -13    1    3    3    0    0 -0.11246107783E+02 -0.51637043629E+02 -0.77439952716E+02  0.93753962539E+02  0.00000000000E+00 0. -1.
         13    1    3    3    0    0 -0.10992700332E+02  0.27512155416E+02 -0.15971293741E+03  0.16243762043E+03  0.00000000000E+00 0.  1.
         21    1    1    2  502  501 -0.23868124400E+02  0.14985411876E+02 -0.54603250612E+02  0.61447253062E+02  0.00000000000E+00 0.  1.
         21    1    1    2  503  502 -0.15666397070E+02  0.32596286336E+02  0.27096494514E+03  0.27336780238E+03  0.00000000000E+00 0. -1.
<scales pt_clust_5="13000.00000" pt_clust_6="13000.00000" pt_clust_7="13000.00000" pt_clust_8="13000.00000" pt_clust_9="28.18244" pt_clust_10="36.27826"></scales>
<clustering>
<clus scale="   28.182">  2  9  1 -1</clus>
<clus scale="   36.278">  1 10  2 -1</clus>
<clus scale="   91.192">  7  8 -1 -1</clus>
<clus scale="   93.947">  5  6 -1 -1</clus>
<clus scale="  102.426">  2  7  1 -1</clus>
<clus scale="   36.278">  1  5  2 -1</clus>
</clustering>
</event>
<event>
10    2  0.1133532E-006  0.1254531E+03  0.7546771E-02  0.1234489E+00
          1   -1    0    0  503    0  0.00000000000E+00  0.00000000000E+00  0.38345853684E+03  0.38345853684E+03  0.00000000000E+00 0. -1.
         -1   -1    0    0    0  501 -0.00000000000E+00 -0.00000000000E+00 -0.11985467139E+03  0.11985467139E+03  0.00000000000E+00 0.  1.
         23    2    1    2    0    0 -0.11924938447E+02 -0.10146013312E+03  0.85612710718E+02  0.16132562713E+03  0.90884866516E+02 0.  0.
         23    2    1    2    0    0  0.49296803892E+01  0.71481385134E+02  0.20460491933E+03  0.23524042115E+03  0.91329034611E+02 0.  0.
        -11    1    4    4    0    0 -0.24904548720E+02  0.44637379145E+02  0.18228934797E+03  0.18932020111E+03  0.00000000000E+00 0.  1.
         11    1    4    4    0    0  0.29834229110E+02  0.26844005989E+02  0.22315571353E+02  0.45920220044E+02  0.00000000000E+00 0. -1.
        -13    1    3    3    0    0  0.13617035194E+02 -0.69267025519E+02  0.49112845416E+01  0.70763445278E+02  0.00000000000E+00 0.  1.
         13    1    3    3    0    0 -0.25541973641E+02 -0.32193107605E+02  0.80701426177E+02  0.90562181851E+02  0.00000000000E+00 0. -1.
         21    1    1    2  502  501  0.24490985498E+02  0.15631297421E+02 -0.59856242430E+02  0.66535070358E+02  0.00000000000E+00 0.  1.
         21    1    1    2  503  502 -0.17495727440E+02  0.14347450569E+02  0.33242477836E+02  0.40212089590E+02  0.00000000000E+00 0.  1.
<scales pt_clust_5="13000.00000" pt_clust_6="13000.00000" pt_clust_7="13000.00000" pt_clust_8="13000.00000" pt_clust_9="28.98723" pt_clust_10="22.62631"></scales>
<clustering>
<clus scale="   22.626">  1 10  2 -1</clus>
<clus scale="   28.987">  2  9  1 -1</clus>
<clus scale="   90.885">  7  8 -1 -1</clus>
<clus scale="   91.329">  5  6 -1 -1</clus>
<clus scale="  125.130">  2  7  1 -1</clus>
<clus scale="   22.626">  1  5  2 -1</clus>
</clustering>
</event>
<event>
10    2  0.1133532E-006  0.1478401E+03  0.7546771E-02  0.1206671E+00
         -1   -1    0    0    0  501 -0.00000000000E+00  0.00000000000E+00  0.40696132398E+03  0.40696132398E+03  0.00000000000E+00 0.  1.
          1   -1    0    0  503    0  0.00000000000E+00 -0.00000000000E+00 -0.16029138846E+03  0.16029138846E+03  0.00000000000E+00 0. -1.
         23    2    1    2    0    0 -0.79581971838E+02 -0.20920756117E+02  0.23999854182E+03  0.27502291932E+03  0.10614771687E+03 0.  0.
         23    2    1    2    0    0  0.12756327649E+03  0.19877295368E+01  0.35066135214E+02  0.16031075361E+03  0.90518303715E+02 0.  0.
        -11    1    3    3    0    0  0.20177948049E+02 -0.14468648803E+02  0.15493857220E+02  0.29266892511E+02  0.00000000000E+00 0.  1.
         11    1    3    3    0    0 -0.99759919887E+02 -0.64521073139E+01  0.22450468460E+03  0.24575602680E+03  0.00000000000E+00 0. -1.
        -13    1    4    4    0    0  0.31342910314E+02 -0.18800354255E+02 -0.25650461336E+02  0.44651735844E+02  0.00000000000E+00 0. -1.
         13    1    4    4    0    0  0.96220366176E+02  0.20788083792E+02  0.60716596550E+02  0.11565901777E+03  0.00000000000E+00 0.  1.
         21    1    1    2  502  501 -0.21717288504E+02  0.17140071793E+02  0.45624718456E+02  0.53357638771E+02  0.00000000000E+00 0. -1.
         21    1    1    2  503  502 -0.26264016149E+02  0.17929547875E+01 -0.74019459975E+02  0.78561400739E+02  0.00000000000E+00 0. -1.
<scales pt_clust_5="13000.00000" pt_clust_6="13000.00000" pt_clust_7="13000.00000" pt_clust_8="13000.00000" pt_clust_9="28.67452" pt_clust_10="26.32514"></scales>
<clustering>
<clus scale="   26.325">  2 10  1 -1</clus>
<clus scale="   28.675">  1  9  2 -1</clus>
<clus scale="   90.518">  7  8 -1 -1</clus>
<clus scale="  106.148">  5  6 -1 -1</clus>
<clus scale="  137.051">  2  7  1 -1</clus>
<clus scale="   26.325">  2  5  1 -1</clus>
</clustering>
</event>
<event>
10    2  0.1133532E-006  0.3808036E+03  0.7546771E-02  0.1050837E+00
         -1   -1    0    0    0  501 -0.00000000000E+00  0.00000000000E+00  0.12643504459E+04  0.12643504459E+04  0.00000000000E+00 0.  1.
          1   -1    0    0  503    0  0.00000000000E+00 -0.00000000000E+00 -0.24824178601E+03  0.24824178601E+03  0.00000000000E+00 0. -1.
         23    2    1    2    0    0 -0.34517343940E+03  0.77810129210E+02  0.89971496153E+03  0.97144965371E+03  0.95017357414E+02 0.  0.
         23    2    1    2    0    0  0.36941081244E+03 -0.71836991627E+02 -0.31402658107E+01  0.38603348803E+03  0.85948187295E+02 0.  0.
        -13    1    3    3    0    0 -0.13682002526E+03  0.72167194381E+02  0.44835339731E+03  0.47428745728E+03  0.00000000000E+00 0.  1.
         13    1    3    3    0    0 -0.20835341413E+03  0.56429348285E+01  0.45136156422E+03  0.49716219642E+03  0.00000000000E+00 0. -1.
        -13    1    4    4    0    0  0.11880777607E+03 -0.83669409282E+01  0.36335253546E+02  0.12452125925E+03  0.00000000000E+00 0.  1.
         13    1    4    4    0    0  0.25060303637E+03 -0.63470050699E+02 -0.39475519357E+02  0.26151222878E+03  0.00000000000E+00 0. -1.
         21    1    1    2  502  501 -0.12855374100E+02  0.19668812616E+02  0.12443113955E+03  0.12663029386E+03  0.00000000000E+00 0. -1.
         21    1    1    2  503  502 -0.11381998941E+02 -0.25641950199E+02 -0.48971754203E+01  0.28478796270E+02  0.00000000000E+00 0. -1.
<scales pt_clust_5="13000.00000" pt_clust_6="13000.00000" pt_clust_7="13000.00000" pt_clust_8="13000.00000" pt_clust_9="23.49729" pt_clust_10="27.92320"></scales>
<clustering>
<clus scale="   23.497">  1  9  2 -1</clus>
<clus scale="   27.923">  2 10  1 -1</clus>
<clus scale="   85.948">  7  8 -1 -1</clus>
<clus scale="   95.017">  5  6 -1 -1</clus>
<clus scale="  378.642">  2  7  1 -1</clus>
<clus scale="   27.923">  2  5  1 -1</clus>
</clustering>
</event>
<event>
10    2  0.1133532E-006  0.1154262E+03  0.7546771E-02  0.1253585E+00
         -2   -1    0    0    0  501 -0.00000000000E+00  0.00000000000E+00  0.66949483480E+03  0.66949483480E+03  0.00000000000E+00 0.  1.
          2   -1    0    0  502    0  0.00000000000E+00 -0.00000000000E+00 -0.70422619883E+02  0.70422619883E+02  0.00000000000E+00 0. -1.
         23    2    1    2    0    0 -0.89217406389E+02  0.35671972640E+02  0.20167437056E+03  0.24341487419E+03  0.96674784734E+02 0.  0.
         23    2    1    2    0    0  0.42737664183E+02  0.54676185633E+02  0.38318314866E+02  0.11937617307E+03  0.89254603394E+02 0.  0.
        -13    1    4    4    0    0 -0.23465495501E+02  0.65171295118E+01  0.27603833679E+02  0.36811331000E+02  0.00000000000E+00 0.  1.
         13    1    4    4    0    0  0.66203159685E+02  0.48159056121E+02  0.10714481187E+02  0.82564842069E+02  0.00000000000E+00 0. -1.
        -13    1    3    3    0    0 -0.55604882470E+02  0.72330979358E+01  0.25101567540E+02  0.61435407976E+02  0.00000000000E+00 0. -1.
         13    1    3    3    0    0 -0.33612523920E+02  0.28438874704E+02  0.17657280302E+03  0.18197946622E+03  0.00000000000E+00 0.  1.
         21    1    1    2  502  503  0.44397337622E+02 -0.59356686576E+02  0.31228278453E+03  0.32095930793E+03  0.00000000000E+00 0.  1.
         21    1    1    2  503  501  0.20824045841E+01 -0.30991471697E+02  0.46796744958E+02  0.56167099493E+02  0.00000000000E+00 0. -1.
<scales pt_clust_5="13000.00000" pt_clust_6="13000.00000" pt_clust_7="13000.00000" pt_clust_8="13000.00000" pt_clust_9="87.90443" pt_clust_10="31.06135"></scales>
<clustering>
<clus scale="   31.061">  1 10  2 -1</clus>
<clus scale="   87.904">  1  9  2 -1</clus>
<clus scale="   89.255">  5  6 -1 -1</clus>
<clus scale="   96.675">  7  8 -1 -1</clus>
<clus scale="  109.287">  2  5  1 -1</clus>
<clus scale="  109.287">  2  5  1 -1</clus>
</clustering>
</event>
<event>
10    2  0.1133532E-006  0.1638616E+03  0.7546771E-02  0.1184794E+00
          1   -1    0    0  503    0  0.00000000000E+00  0.00000000000E+00  0.90672144751E+03  0.90672144751E+03  0.00000000000E+00 0. -1.
         -1   -1    0    0    0  501 -0.00000000000E+00 -0.00000000000E+00 -0.60456367386E+02  0.60456367386E+02  0.00000000000E+00 0.  1.
         23    2    1    2    0    0 -0.12402828845E+03  0.76110057190E+02  0.28277414065E+03  0.33053756103E+03  0.90100541017E+02 0.  0.
         23    2    1    2    0    0  0.77061897031E+02 -0.10429355699E+03  0.23318116182E+03  0.28243567227E+03  0.92632460523E+02 0.  0.
        -11    1    3    3    0    0 -0.12511044135E+03  0.55277444037E+02  0.18222250910E+03  0.22784481819E+03  0.00000000000E+00 0.  1.
         11    1    3    3    0    0  0.10821528920E+01  0.20832613153E+02  0.10055163155E+03  0.10269274284E+03  0.00000000000E+00 0. -1.
        -13    1    4    4    0    0 -0.18450527946E+02 -0.99890361592E+01  0.58452612343E+02  0.62104031388E+02  0.00000000000E+00 0.  1.
         13    1    4    4    0    0  0.95512424977E+02 -0.94304520827E+02  0.17472854947E+03  0.22033164088E+03  0.00000000000E+00 0. -1.
         21    1    1    2  502  501  0.82150319552E+00 -0.38838279674E+02  0.56549917171E+02  0.68607433763E+02  0.00000000000E+00 0.  1.
         21    1    1    2  503  502  0.46144888228E+02  0.67021779471E+02  0.27375986049E+03  0.28559714783E+03  0.00000000000E+00 0.  1.
<scales pt_clust_5="13000.00000" pt_clust_6="13000.00000" pt_clust_7="13000.00000" pt_clust_8="13000.00000" pt_clust_9="38.84697" pt_clust_10="77.98230"></scales>
<clustering>
<clus scale="   38.847">  2  9  1 -1</clus>
<clus scale="   77.982">  1 10  2 -1</clus>
<clus scale="   90.101">  5  6 -1 -1</clus>
<clus scale="   92.632">  7  8 -1 -1</clus>
<clus scale="  162.444">  2  5  1 -1</clus>
<clus scale="   77.982">  1  5  2 -1</clus>
</clustering>
</event>
<event>
10    2  0.1133532E-006  0.1489256E+03  0.7546771E-02  0.1216897E+00
         -1   -1    0    0    0  501 -0.00000000000E+00  0.00000000000E+00  0.21369960643E+03  0.21369960643E+03  0.00000000000E+00 0.  1.
          1   -1    0    0  503    0  0.00000000000E+00 -0.00000000000E+00 -0.47757082172E+03  0.47757082172E+03  0.00000000000E+00 0. -1.
         23    2    1    2    0    0  0.76967206840E+02  0.86983530020E+02 -0.84135336546E+01  0.14787273532E+03  0.91134367173E+02 0.  0.
         23    2    1    2    0    0  0.40919123948E+02 -0.43346114751E+02 -0.94471961652E+02  0.14337217774E+03  0.89874186744E+02 0.  0.
        -13    1    3    3    0    0 -0.32213952507E+01  0.62752223020E+02  0.50101508735E+01  0.63034280302E+02  0.00000000000E+00 0. -1.
         13    1    3    3    0    0  0.80188602091E+02  0.24231306999E+02 -0.13423684528E+02  0.84838455022E+02  0.00000000000E+00 0.  1.
        -13    1    4    4    0    0 -0.19470493875E+02 -0.22080565396E+02 -0.67985019116E+02  0.74085182892E+02  0.00000000000E+00 0. -1.
         13    1    4    4    0    0  0.60389617823E+02 -0.21265549354E+02 -0.26486942536E+02  0.69286994848E+02  0.00000000000E+00 0.  1.
         21    1    1    2  502  501 -0.27984087811E+02 -0.11984546081E+03  0.69368177329E+02  0.14127274215E+03  0.00000000000E+00 0. -1.
         21    1    1    2  503  502 -0.89902242977E+02  0.76208045543E+02 -0.23035389731E+03  0.25875277294E+03  0.00000000000E+00 0. -1.
<scales pt_clust_5="13000.00000" pt_clust_6="13000.00000" pt_clust_7="13000.00000" pt_clust_8="13000.00000" pt_clust_9="117.78525" pt_clust_10="77.59140"></scales>
<clustering>
<clus scale="   89.874">  7  8 -1 -1</clus>
<clus scale="   91.134">  5  6 -1 -1</clus>
<clus scale="  107.845">  2  7  1 -1</clus>
<clus scale="   77.591">  2 10  1 -1</clus>
<clus scale="  117.785">  1  9  2 -1</clus>
<clus scale="  107.845">  2  5  1 -1</clus>
</clustering>
</event>
<event>
10    2  0.1133532E-006  0.1328605E+03  0.7546771E-02  0.1223300E+00
          2   -1    0    0  503    0  0.00000000000E+00  0.00000000000E+00  0.96609158681E+03  0.96609158681E+03  0.00000000000E+00 0. -1.
         -2   -1    0    0    0  501 -0.00000000000E+00 -0.00000000000E+00 -0.67850601350E+02  0.67850601350E+02  0.00000000000E+00 0.  1.
         23    2    1    2    0    0 -0.61152193798E+02  0.13260281733E+03  0.13289052398E+03  0.21806519733E+03  0.92571274975E+02 0.  0.
         23    2    1    2    0    0  0.24118919374E+02 -0.32637900630E+02  0.18444301962E+03  0.21037212386E+03  0.92683591748E+02 0.  0.
        -11    1    3    3    0    0 -0.14758208992E+02  0.48643283707E+02  0.10738275238E+03  0.11880668875E+03  0.00000000000E+00 0. -1.
         11    1    3    3    0    0 -0.46393984805E+02  0.83959533627E+02  0.25507771596E+02  0.99258508576E+02  0.00000000000E+00 0.  1.
        -11    1    4    4    0    0 -0.24426554687E+02 -0.29862299442E+02  0.31253776456E+02  0.49650901750E+02  0.00000000000E+00 0. -1.
         11    1    4    4    0    0  0.48545474060E+02 -0.27756011888E+01  0.15318924317E+03  0.16072122211E+03  0.00000000000E+00 0.  1.
         21    1    1    2  502  501 -0.12473575756E+02 -0.16777351976E+02  0.49703675845E+01  0.21488931695E+02  0.00000000000E+00 0.  1.
         21    1    1    2  503  502  0.49506850181E+02 -0.83187564727E+02  0.57593707427E+03  0.58401593528E+03  0.00000000000E+00 0. -1.
<scales pt_clust_5="13000.00000" pt_clust_6="13000.00000" pt_clust_7="13000.00000" pt_clust_8="13000.00000" pt_clust_9="20.90621" pt_clust_10="97.35811"></scales>
<clustering>
<clus scale="   20.906">  2  9  1 -1</clus>
<clus scale="   92.571">  5  6 -1 -1</clus>
<clus scale="   92.684">  7  8 -1 -1</clus>
<clus scale="   97.358">  1 10  2 -1</clus>
<clus scale="  132.782">  2  5  1 -1</clus>
<clus scale="   97.358">  1  5  2 -1</clus>
</clustering>
</event>
<event>
10    2  0.1133532E-006  0.1643442E+03  0.7546771E-02  0.1184808E+00
          1   -1    0    0  503    0  0.00000000000E+00  0.00000000000E+00  0.13830146329E+03  0.13830146329E+03  0.00000000000E+00 0. -1.
         -1   -1    0    0    0  501 -0.00000000000E+00 -0.00000000000E+00 -0.40449202055E+03  0.40449202055E+03  0.00000000000E+00 0.  1.
         23    2    1    2    0    0  0.12087376135E+03 -0.40065289283E+02 -0.17051410978E+03  0.23266210905E+03  0.94026069612E+02 0.  0.
         23    2    1    2    0    0 -0.11643589379E+03  0.35611952400E+02 -0.12970030776E+02  0.15790088000E+03  0.99694220945E+02 0.  0.
        -11    1    3    3    0    0  0.71307390794E+02 -0.57734250041E+02 -0.15070242093E+03  0.17643471111E+03  0.00000000000E+00 0.  1.
         11    1    3    3    0    0  0.49566370555E+02  0.17668960758E+02 -0.19811688846E+02  0.56227397941E+02  0.00000000000E+00 0. -1.
        -13    1    4    4    0    0 -0.76269700603E+02 -0.27134292943E+02 -0.19011817711E+02  0.83155194043E+02  0.00000000000E+00 0. -1.
         13    1    4    4    0    0 -0.40166193187E+02  0.62746245343E+02  0.60417869353E+01  0.74745685957E+02  0.00000000000E+00 0.  1.
         21    1    1    2  502  501  0.19831337740E+02  0.16292178942E+02 -0.11052251292E+03  0.11346339900E+03  0.00000000000E+00 0.  1.
         21    1    1    2  503  502 -0.24269205299E+02 -0.11838842059E+02  0.27816096215E+02  0.38767095788E+02  0.00000000000E+00 0. -1.
<scales pt_clust_5="13000.00000" pt_clust_6="13000.00000" pt_clust_7="13000.00000" pt_clust_8="13000.00000" pt_clust_9="25.66548" pt_clust_10="26.53569"></scales>
<clustering>
<clus scale="   25.665">  2  9  1 -1</clus>
<clus scale="   26.536">  1 10  2 -1</clus>
<clus scale="   94.026">  5  6 -1 -1</clus>
<clus scale="   99.694">  7  8 -1 -1</clus>
<clus scale="  160.969">  2  5  1 -1</clus>
<clus scale="   26.536">  1  5  2 -1</clus>
</clustering>
</event>
<event>
10    2  0.1133532E-006  0.1546992E+03  0.7546771E-02  0.1197271E+00
         -1   -1    0    0    0  501 -0.00000000000E+00  0.00000000000E+00  0.48462392428E+02  0.48462392428E+02  0.00000000000E+00 0.  1.
          1   -1    0    0  503    0  0.00000000000E+00 -0.00000000000E+00 -0.10802909885E+04  0.10802909885E+04  0.00000000000E+00 0. -1.
         23    2    1    2    0    0  0.27608670604E+02  0.10318753578E+03 -0.32521605911E+03  0.35438287365E+03  0.91716028070E+02 0.  0.
         23    2    1    2    0    0 -0.19058168187E+02 -0.13162079732E+03 -0.59818463164E+03  0.61764610579E+03  0.77295604072E+02 0.  0.
        -11    1    4    4    0    0 -0.22249632660E+02 -0.80862994081E+02 -0.50087090068E+03  0.50784400076E+03  0.00000000000E+00 0.  1.
         11    1    4    4    0    0  0.31914644730E+01 -0.50757803240E+02 -0.97313730964E+02  0.10980210503E+03  0.00000000000E+00 0. -1.
        -13    1    3    3    0    0  0.17439617596E+02 -0.12077997337E+02 -0.87014469689E+02  0.89563029297E+02  0.00000000000E+00 0.  1.
         13    1    3    3    0    0  0.10169053008E+02  0.11526553312E+03 -0.23820158942E+03  0.26481984436E+03  0.00000000000E+00 0. -1.
         21    1    1    2  502  501  0.11195481438E+02  0.47461703382E+02 -0.41947164048E+01  0.48944333056E+02  0.00000000000E+00 0.  1.
         21    1    1    2  503  502 -0.19745983855E+02 -0.19028441839E+02 -0.10423318890E+03  0.10778006841E+03  0.00000000000E+00 0.  1.
<scales pt_clust_5="13000.00000" pt_clust_6="13000.00000" pt_clust_7="13000.00000" pt_clust_8="13000.00000" pt_clust_9="48.13727" pt_clust_10="27.42235"></scales>
<clustering>
<clus scale="   27.422">  2 10  1 -1</clus>
<clus scale="   48.137">  1  9  2 -1</clus>
<clus scale="   77.296">  5  6 -1 -1</clus>
<clus scale="   91.716">  7  8 -1 -1</clus>
<clus scale="  146.610">  2  5  1 -1</clus>
<clus scale="   27.422">  2  5  1 -1</clus>
</clustering>
</event>
<event>
10    2  0.1133532E-006  0.1462042E+03  0.7546771E-02  0.1206716E+00
          1   -1    0    0  503    0  0.00000000000E+00  0.00000000000E+00  0.13737660407E+03  0.13737660407E+03  0.00000000000E+00 0. -1.
         -1   -1    0    0    0  501 -0.00000000000E+00 -0.00000000000E+00 -0.58032058855E+03  0.58032058855E+03  0.00000000000E+00 0.  1.
         23    2    1    2    0    0  0.12148918119E+03 -0.12239392126E+02 -0.26648422464E+03  0.30692335796E+03  0.90987261822E+02 0.  0.
         23    2    1    2    0    0 -0.11205172013E+03 -0.21653988553E+02 -0.20313095795E+03  0.24744794853E+03  0.83329574305E+02 0.  0.
        -11    1    3    3    0    0  0.67018567604E+02  0.33302657873E+02 -0.92318056607E+02  0.11884098199E+03  0.00000000000E+00 0.  1.
         11    1    3    3    0    0  0.54470613584E+02 -0.45542049999E+02 -0.17416616803E+03  0.18808237597E+03  0.00000000000E+00 0. -1.
        -13    1    4    4    0    0 -0.66965350949E+02  0.98211807322E+01 -0.17065780271E+03  0.18358894151E+03  0.00000000000E+00 0.  1.
         13    1    4    4    0    0 -0.45086369180E+02 -0.31475169285E+02 -0.32473155238E+02  0.63859007027E+02  0.00000000000E+00 0. -1.
         21    1    1    2  502  501 -0.26368683432E+02 -0.41069307160E+02 -0.38814502370E+02  0.62358327838E+02  0.00000000000E+00 0. -1.
         21    1    1    2  503  502  0.16931222373E+02  0.74962687839E+02  0.65485700475E+02  0.10096755828E+03  0.00000000000E+00 0.  1.
<scales pt_clust_5="13000.00000" pt_clust_6="13000.00000" pt_clust_7="13000.00000" pt_clust_8="13000.00000" pt_clust_9="48.80569" pt_clust_10="75.31685"></scales>
<clustering>
<clus scale="   48.806">  2  9  1 -1</clus>
<clus scale="   75.317">  1 10  2 -1</clus>
<clus scale="   83.330">  7  8 -1 -1</clus>
<clus scale="   90.987">  5  6 -1 -1</clus>
<clus scale="  141.566">  1  7  2 -1</clus>
<clus scale="   75.317">  1  5  2 -1</clus>
</clustering>
</event>
<event>
10    2  0.1133532E-006  0.3145710E+03  0.7546771E-02  0.1121517E+00
          2   -1    0    0  503    0  0.00000000000E+00  0.00000000000E+00  0.10206417812E+04  0.10206417812E+04  0.00000000000E+00 0. -1.
         -2   -1    0    0    0  501 -0.00000000000E+00 -0.00000000000E+00 -0.23708620461E+03  0.23708620461E+03  0.00000000000E+00 0.  1.
         23    2    1    2    0    0  0.36544014945E+02  0.22504440199E+02 -0.38590303500E+02  0.10914154525E+03  0.92632340567E+02 0.  0.
         23    2    1    2    0    0  0.14507971605E+02 -0.25550265913E+03  0.30793341522E+03  0.41045520398E+03  0.90323840749E+02 0.  0.
        -11    1    3    3    0    0  0.57755092392E+02 -0.80498238685E+01 -0.41674545553E+01  0.58462107720E+02  0.00000000000E+00 0. -1.
         11    1    3    3    0    0 -0.21211077447E+02  0.30554264068E+02 -0.34422848945E+02  0.50679437533E+02  0.00000000000E+00 0.  1.
        -13    1    4    4    0    0  0.48798281897E+01 -0.46616336573E+02  0.12179352004E+03  0.13050117656E+03  0.00000000000E+00 0.  1.
         13    1    4    4    0    0  0.96281434150E+01 -0.20888632255E+03  0.18613989518E+03  0.27995402742E+03  0.00000000000E+00 0. -1.
         21    1    1    2  502  501  0.36262729828E+02  0.33606786448E+03  0.19198487372E+03  0.38873485418E+03  0.00000000000E+00 0.  1.
         21    1    1    2  503  502 -0.87314716377E+02 -0.10306964556E+03  0.32222759116E+03  0.34939638240E+03  0.00000000000E+00 0. -1.
<scales pt_clust_5="13000.00000" pt_clust_6="13000.00000" pt_clust_7="13000.00000" pt_clust_8="13000.00000" pt_clust_9="301.32464" pt_clust_10="131.69186"></scales>
<clustering>
<clus scale="   90.324">  7  8 -1 -1</clus>
<clus scale="   92.632">  5  6 -1 -1</clus>
<clus scale="  102.091">  2  5  1 -1</clus>
<clus scale="  131.692">  1 10  2 -1</clus>
<clus scale="  301.325">  2  9  1 -1</clus>
<clus scale="  131.692">  1  5  2 -1</clus>
</clustering>
</event>
<event>
10    2  0.1133532E-006  0.1203065E+03  0.7546771E-02  0.1243946E+00
          1   -1    0    0  503    0  0.00000000000E+00  0.00000000000E+00  0.60928437475E+03  0.60928437475E+03  0.00000000000E+00 0. -1.
         -1   -1    0    0    0  501 -0.00000000000E+00 -0.00000000000E+00 -0.63386512504E+02  0.63386512504E+02  0.00000000000E+00 0.  1.
         23    2    1    2    0    0  0.35572424950E+02 -0.15785743052E+02  0.31705858199E+02  0.10890473547E+03  0.96645707937E+02 0.  0.
         23    2    1    2    0    0 -0.57824209207E+02  0.31297671762E+02  0.29212926654E+03  0.31342109367E+03  0.92574781453E+02 0.  0.
        -13    1    4    4    0    0  0.81002091294E+01  0.21399807436E+02  0.12740652514E+02  0.26189489737E+02  0.00000000000E+00 0.  1.
         13    1    4    4    0    0 -0.65924418336E+02  0.98978643265E+01  0.27938861403E+03  0.28723160394E+03  0.00000000000E+00 0. -1.
        -13    1    3    3    0    0 -0.31097636152E+02 -0.18534252530E+02  0.19332393421E+02  0.41040503487E+02  0.00000000000E+00 0. -1.
         13    1    3    3    0    0  0.66670061102E+02  0.27485094784E+01  0.12373464778E+02  0.67864231981E+02  0.00000000000E+00 0.  1.
         21    1    1    2  502  501  0.45450710492E+02 -0.32548361748E+02  0.47302199996E+02  0.73230192278E+02  0.00000000000E+00 0.  1.
         21    1    1    2  503  502 -0.23198926236E+02  0.17036433038E+02  0.17476053751E+03  0.17711486584E+03  0.00000000000E+00 0. -1.
<scales pt_clust_5="13000.00000" pt_clust_6="13000.00000" pt_clust_7="13000.00000" pt_clust_8="13000.00000" pt_clust_9="51.90064" pt_clust_10="28.78246"></scales>
<clustering>
<clus scale="   28.782">  1 10  2 -1</clus>
<clus scale="   51.901">  2  9  1 -1</clus>
<clus scale="   92.575">  5  6 -1 -1</clus>
<clus scale="   96.646">  7  8 -1 -1</clus>
<clus scale="  117.061">  1  5  2 -1</clus>
<clus scale="   28.782">  1  5  2 -1</clus>
</clustering>
</event>
<event>
10    2  0.1133532E-006  0.1519186E+03  0.7546771E-02  0.1198147E+00
         -1   -1    0    0    0  501 -0.00000000000E+00  0.00000000000E+00  0.15044359654E+03  0.15044359654E+03  0.00000000000E+00 0.  1.
          1   -1    0    0  502    0  0.00000000000E+00 -0.00000000000E+00 -0.71994466203E+03  0.71994466203E+03  0.00000000000E+00 0. -1.
         23    2    1    2    0    0 -0.10159693235E+03 -0.66778010178E+02  0.43989528844E+02  0.15711492419E+03  0.89268031513E+02 0.  0.
         23    2    1    2    0    0  0.52704814751E+02  0.13727811035E+03 -0.12650490530E+03  0.21350159967E+03  0.89198458055E+02 0.  0.
        -11    1    4    4    0    0  0.30552137863E+02  0.13955747104E+03 -0.84562446063E+02  0.16601363841E+03  0.00000000000E+00 0.  1.
         11    1    4    4    0    0  0.22152676888E+02 -0.22793606974E+01 -0.41942459238E+02  0.47487961268E+02  0.00000000000E+00 0. -1.
        -13    1    3    3    0    0 -0.17383545468E+02 -0.61099029007E+02  0.38187442647E+01  0.63638524546E+02  0.00000000000E+00 0.  1.
         13    1    3    3    0    0 -0.84213386883E+02 -0.56789811710E+01  0.40170784580E+02  0.93476399649E+02  0.00000000000E+00 0. -1.
         21    1    1    2  502  503  0.34201882258E+02 -0.95408029834E+01 -0.74289072955E+02  0.82338703124E+02  0.00000000000E+00 0. -1.
         21    1    1    2  503  501  0.14690235342E+02 -0.60959297185E+02 -0.41269661608E+03  0.41743303157E+03  0.00000000000E+00 0. -1.
<scales pt_clust_5="13000.00000" pt_clust_6="13000.00000" pt_clust_7="13000.00000" pt_clust_8="13000.00000" pt_clust_9="35.50768" pt_clust_10="76.56333"></scales>
<clustering>
<clus scale="   35.508">  2  9  1 -1</clus>
<clus scale="   76.563">  2 10  1 -1</clus>
<clus scale="   89.198">  5  6 -1 -1</clus>
<clus scale="   89.268">  7  8 -1 -1</clus>
<clus scale="  151.878">  2  5  1 -1</clus>
<clus scale="   35.508">  2  5  1 -1</clus>
</clustering>
</event>
<event>
10    2  0.1133532E-006  0.1141967E+03  0.7546771E-02  0.1254246E+00
          2   -1    0    0  503    0  0.00000000000E+00  0.00000000000E+00  0.18891577884E+03  0.18891577884E+03  0.00000000000E+00 0. -1.
         -2   -1    0    0    0  501 -0.00000000000E+00 -0.00000000000E+00 -0.33227637864E+03  0.33227637864E+03  0.00000000000E+00 0.  1.
         23    2    1    2    0    0  0.10179825357E+02  0.89224267436E+02 -0.22018783661E+03  0.25467430141E+03  0.91168622135E+02 0.  0.
         23    2    1    2    0    0 -0.98140960510E+01  0.57944754601E+01  0.78296645307E+02  0.12331496870E+03  0.94585011558E+02 0.  0.
        -11    1    4    4    0    0  0.38968556783E+02  0.77055117315E+01  0.13021840948E+02  0.41803010304E+02  0.00000000000E+00 0.  1.
         11    1    4    4    0    0 -0.48782652834E+02 -0.19110362715E+01  0.65274804358E+02  0.81511958394E+02  0.00000000000E+00 0. -1.
        -11    1    3    3    0    0  0.82690088857E+00  0.10711697920E+03 -0.17501644577E+03  0.20519621655E+03  0.00000000000E+00 0.  1.
         11    1    3    3    0    0  0.93529244683E+01 -0.17892711762E+02 -0.45171390845E+02  0.49478084858E+02  0.00000000000E+00 0. -1.
         21    1    1    2  502  501  0.11574074225E+02 -0.19955594485E+02 -0.48580604222E+02  0.53779736444E+02  0.00000000000E+00 0. -1.
         21    1    1    2  503  502 -0.11939803531E+02 -0.75063148411E+02  0.47111195738E+02  0.89423150926E+02  0.00000000000E+00 0. -1.
<scales pt_clust_5="13000.00000" pt_clust_6="13000.00000" pt_clust_7="13000.00000" pt_clust_8="13000.00000" pt_clust_9="23.06913" pt_clust_10="77.36100"></scales>
<clustering>
<clus scale="   23.069">  2  9  1 -1</clus>
<clus scale="   77.361">  1 10  2 -1</clus>
<clus scale="   91.169">  7  8 -1 -1</clus>
<clus scale="   94.585">  5  6 -1 -1</clus>
<clus scale="  111.384">  2  7  1 -1</clus>
<clus scale="   77.361">  1  5  2 -1</clus>
</clustering>
</event>
<event>
10    2  0.1133532E-006  0.1474424E+03  0.7546771E-02  0.1224498E+00
          1   -1    0    0  503    0  0.00000000000E+00  0.00000000000E+00  0.11294235926E+04  0.11294235926E+04  0.00000000000E+00 0. -1.
         -1   -1    0    0    0  501 -0.00000000000E+00 -0.00000000000E+00 -0.37629742815E+02  0.37629742815E+02  0.00000000000E+00 0.  1.
         23    2    1    2    0    0 -0.27870719845E+02 -0.11892069952E+02  0.12155501427E+03  0.15385803886E+03  0.89322316784E+02 0.  0.
         23    2    1    2    0    0 -0.64370591907E+02 -0.69551024238E+02  0.33105357663E+03  0.35689341623E+03  0.93784443652E+02 0.  0.
        -11    1    4    4    0    0 -0.21161912669E+02 -0.84358076583E+02  0.19940684322E+03  0.21754815732E+03  0.00000000000E+00 0. -1.
         11    1    4    4    0    0 -0.43208679238E+02  0.14807052345E+02  0.13164673341E+03  0.13934525891E+03  0.00000000000E+00 0.  1.
        -13    1    3    3    0    0 -0.31567607527E+02 -0.44587083926E+02  0.45885053076E+02  0.71343955552E+02  0.00000000000E+00 0.  1.
         13    1    3    3    0    0  0.36968876819E+01  0.32695013974E+02  0.75669961197E+02  0.82514083312E+02  0.00000000000E+00 0. -1.
         21    1    1    2  502  501  0.10767935017E+03  0.68178522425E+02  0.51996670414E+03  0.53535831626E+03  0.00000000000E+00 0. -1.
         21    1    1    2  503  502 -0.15438038415E+02  0.13264571765E+02  0.11921855469E+03  0.12094356401E+03  0.00000000000E+00 0. -1.
<scales pt_clust_5="13000.00000" pt_clust_6="13000.00000" pt_clust_7="13000.00000" pt_clust_8="13000.00000" pt_clust_9="113.77051" pt_clust_10="20.35392"></scales>
<clustering>
<clus scale="   20.354">  1 10  2 -1</clus>
<clus scale="   89.322">  7  8 -1 -1</clus>
<clus scale="   93.784">  5  6 -1 -1</clus>
<clus scale="   94.756">  2  7  1 -1</clus>
<clus scale="  113.771">  1  9  2 -1</clus>
<clus scale="   20.354">  1  5  2 -1</clus>
</clustering>
</event>
<event>
10    2  0.1133532E-006  0.1544444E+03  0.7546771E-02  0.1201399E+00
          2   -1    0    0  503    0  0.00000000000E+00  0.00000000000E+00  0.25257005274E+03  0.25257005274E+03  0.00000000000E+00 0. -1.
         -2   -1    0    0    0  501 -0.00000000000E+00 -0.00000000000E+00 -0.17423042720E+03  0.17423042720E+03  0.00000000000E+00 0.  1.
         23    2    1    2    0    0  0.56332984477E+02  0.93298736939E+02 -0.18515566675E+02  0.14185837494E+03  0.88898328871E+02 0.  0.
         23    2    1    2    0    0 -0.48825176734E+02 -0.98260767889E+02  0.11957672142E+03  0.19988173168E+03  0.11668349483E+03 0.  0.
        -11    1    4    4    0    0 -0.75909180743E+02 -0.22288626273E+02  0.52157974383E+02  0.94759911745E+02  0.00000000000E+00 0.  1.
         11    1    4    4    0    0  0.27084004009E+02 -0.75972141616E+02  0.67418747037E+02  0.10512181994E+03  0.00000000000E+00 0. -1.
        -11    1    3    3    0    0  0.55188521242E+02  0.48835650270E+02 -0.48496860794E+02  0.88219267289E+02  0.00000000000E+00 0.  1.
         11    1    3    3    0    0  0.11444632352E+01  0.44463086670E+02  0.29981294119E+02  0.53639107648E+02  0.00000000000E+00 0. -1.
         21    1    1    2  502  501 -0.24809328411E+02 -0.91763778662E+01 -0.45830249417E+02  0.52916164341E+02  0.00000000000E+00 0.  1.
         21    1    1    2  503  502  0.17301520667E+02  0.14138408816E+02  0.23108720216E+02  0.32144208985E+02  0.00000000000E+00 0. -1.
<scales pt_clust_5="13000.00000" pt_clust_6="13000.00000" pt_clust_7="13000.00000" pt_clust_8="13000.00000" pt_clust_9="26.11942" pt_clust_10="22.34362"></scales>
<clustering>
<clus scale="   22.344">  1 10  2 -1</clus>
<clus scale="   26.119">  2  9  1 -1</clus>
<clus scale="   88.898">  7  8 -1 -1</clus>
<clus scale="  116.683">  5  6 -1 -1</clus>
<clus scale="  134.688">  2  7  1 -1</clus>
<clus scale="   22.344">  1  5  2 -1</clus>
</clustering>
</event>
<event>
10    2  0.1133532E-006  0.1741547E+03  0.7546771E-02  0.1189274E+00
         -1   -1    0    0    0  501 -0.00000000000E+00  0.00000000000E+00  0.95995745817E+02  0.95995745817E+02  0.00000000000E+00 0.  1.
          1   -1    0    0  503    0  0.00000000000E+00 -0.00000000000E+00 -0.90774151604E+03  0.90774151604E+03  0.00000000000E+00 0. -1.
         23    2    1    2    0    0 -0.64649690312E+02  0.56229221651E+02 -0.31253025749E+03  0.33694400297E+03  0.92275627704E+02 0.  0.
         23    2    1    2    0    0 -0.69527653749E+02  0.96932556370E+01 -0.27262383604E+03  0.29546975407E+03  0.89724944988E+02 0.  0.
        -11    1    3    3    0    0 -0.29803220613E+02  0.72256152345E+02 -0.26258218113E+03  0.27396821961E+03  0.00000000000E+00 0. -1.
         11    1    3    3    0    0 -0.34846469699E+02 -0.16026930694E+02 -0.49948076364E+02  0.62975783365E+02  0.00000000000E+00 0.  1.
        -11    1    4    4    0    0 -0.90976878083E+02  0.10446436038E+02 -0.23404891985E+03  0.25132611733E+03  0.00000000000E+00 0. -1.
         11    1    4    4    0    0  0.21449224335E+02 -0.75318040137E+00 -0.38574916197E+02  0.44143636743E+02  0.00000000000E+00 0.  1.
         21    1    1    2  502  501  0.16877590144E+03 -0.30121088157E+02 -0.37114045930E+02  0.17541390271E+03  0.00000000000E+00 0.  1.
         21    1    1    2  503  502 -0.34598557379E+02 -0.35801389132E+02 -0.18947763076E+03  0.19590960210E+03  0.00000000000E+00 0. -1.
<scales pt_clust_5="13000.00000" pt_clust_6="13000.00000" pt_clust_7="13000.00000" pt_clust_8="13000.00000" pt_clust_9="147.69930" pt_clust_10="49.78754"></scales>
<clustering>
<clus scale="   49.788">  2 10  1 -1</clus>
<clus scale="   89.725">  7  8 -1 -1</clus>
<clus scale="   92.276">  5  6 -1 -1</clus>
<clus scale="  122.496">  2  7  1 -1</clus>
<clus scale="  147.699">  1  9  2 -1</clus>
<clus scale="   49.788">  2  5  1 -1</clus>
</clustering>
</event>
<event>
10    2  0.1133532E-006  0.1555824E+03  0.7546771E-02  0.1197935E+00
          1   -1    0    0  503    0  0.00000000000E+00  0.00000000000E+00  0.12416551624E+03  0.12416551624E+03  0.00000000000E+00 0. -1.
         -1   -1    0    0    0  501 -0.00000000000E+00 -0.00000000000E+00 -0.38765823482E+03  0.38765823482E+03  0.00000000000E+00 0.  1.
         23    2    1    2    0    0  0.89710153371E+00 -0.11886661816E+03 -0.62040870226E+02  0.15766614350E+03  0.82942543506E+02 0.  0.
         23    2    1    2    0    0  0.42665707354E+02  0.10820873961E+03 -0.19232587542E+02  0.15749588180E+03  0.10442972013E+03 0.  0.
        -11    1    4    4    0    0  0.68184393476E+02  0.11064173873E+03 -0.10388769992E+02  0.13037880351E+03  0.00000000000E+00 0.  1.
         11    1    4    4    0    0 -0.25518686122E+02 -0.24329991161E+01 -0.88438175502E+01  0.27117078289E+02  0.00000000000E+00 0. -1.
        -11    1    3    3    0    0 -0.23416562014E+02 -0.11716425026E+03 -0.58510424803E+02  0.13303859112E+03  0.00000000000E+00 0. -1.
         11    1    3    3    0    0  0.24313663548E+02 -0.17023679036E+01 -0.35304454234E+01  0.24627552385E+02  0.00000000000E+00 0.  1.
         21    1    1    2  502  501 -0.23079488482E+02 -0.26476563069E+01 -0.16535755059E+03  0.16698141337E+03  0.00000000000E+00 0.  1.
         21    1    1    2  503  502 -0.20483320405E+02  0.13305534857E+02 -0.16861710219E+02  0.29680312400E+02  0.00000000000E+00 0. -1.
<scales pt_clust_5="13000.00000" pt_clust_6="13000.00000" pt_clust_7="13000.00000" pt_clust_8="13000.00000" pt_clust_9="23.23086" pt_clust_10="26.35332"></scales>
<clustering>
<clus scale="   23.231">  2  9  1 -1</clus>
<clus scale="   26.353">  2 10  1 -1</clus>
<clus scale="   82.943">  7  8 -1 -1</clus>
<clus scale="  104.430">  5  6 -1 -1</clus>
<clus scale="  142.056">  2  7  1 -1</clus>
<clus scale="  155.582">  1  5  2 -1</clus>
</clustering>
</event>
<event>
10    2  0.1133532E-006  0.1850230E+03  0.7546771E-02  0.1163059E+00
         -1   -1    0    0    0  501 -0.00000000000E+00  0.00000000000E+00  0.45096169426E+03  0.45096169426E+03  0.00000000000E+00 0.  1.
          1   -1    0    0  503    0  0.00000000000E+00 -0.00000000000E+00 -0.15119575785E+03  0.15119575785E+03  0.00000000000E+00 0. -1.
         23    2    1    2    0    0  0.12483841083E+03  0.11717497785E+03  0.24557866217E+03  0.31278220184E+03  0.90604758260E+02 0.  0.
         23    2    1    2    0    0 -0.15090265101E+03 -0.32260829290E+02  0.22733806522E+02  0.18051703479E+03  0.90869151540E+02 0.  0.
        -11    1    4    4    0    0 -0.14495335219E+03 -0.60147371957E+01 -0.32355520851E+00  0.14507844796E+03  0.00000000000E+00 0. -1.
         11    1    4    4    0    0 -0.59492988244E+01 -0.26246092094E+02  0.23057361731E+02  0.35438586832E+02  0.00000000000E+00 0.  1.
        -13    1    3    3    0    0 -0.10225651384E+02  0.32832418043E+02  0.47272901892E+02  0.58457325238E+02  0.00000000000E+00 0. -1.
         13    1    3    3    0    0  0.13506406222E+03  0.84342559811E+02  0.19830576028E+03  0.25432487660E+03  0.00000000000E+00 0.  1.
         21    1    1    2  502  501  0.30999940669E+02 -0.48010037626E+02  0.41103816694E+02  0.70395197146E+02  0.00000000000E+00 0. -1.
         21    1    1    2  503  502 -0.49357004927E+01 -0.36904110937E+02 -0.96503489813E+01  0.38463018328E+02  0.00000000000E+00 0. -1.
<scales pt_clust_5="13000.00000" pt_clust_6="13000.00000" pt_clust_7="13000.00000" pt_clust_8="13000.00000" pt_clust_9="60.47561" pt_clust_10="37.23271"></scales>
<clustering>
<clus scale="   37.233">  2 10  1 -1</clus>
<clus scale="   60.476">  1  9  2 -1</clus>
<clus scale="   90.605">  7  8 -1 -1</clus>
<clus scale="   90.869">  5  6 -1 -1</clus>
<clus scale="  184.893">  1  7  2 -1</clus>
<clus scale="   37.233">  2  5  1 -1</clus>
</clustering>
</event>
<event>
10    2  0.1133532E-006  0.1147916E+03  0.7546771E-02  0.1254746E+00
         -2   -1    0    0    0  501 -0.00000000000E+00  0.00000000000E+00  0.25332340099E+03  0.25332340099E+03  0.00000000000E+00 0.  1.
          2   -1    0    0  502    0  0.00000000000E+00 -0.00000000000E+00 -0.99187399563E+02  0.99187399563E+02  0.00000000000E+00 0. -1.
         23    2    1    2    0    0  0.37888779810E+02  0.19817293820E+02  0.80749757563E+02  0.13439818297E+03  0.98559948604E+02 0.  0.
         23    2    1    2    0    0 -0.36156316191E+02 -0.77004634495E+02  0.87217284619E+02  0.15221695485E+03  0.91247759834E+02 0.  0.
        -11    1    3    3    0    0 -0.26487332540E+02 -0.18556853935E+02  0.21141478194E+02  0.38638034542E+02  0.00000000000E+00 0.  1.
         11    1    3    3    0    0  0.64376112350E+02  0.38374147755E+02  0.59608279369E+02  0.95760148426E+02  0.00000000000E+00 0. -1.
        -13    1    4    4    0    0 -0.42462510887E+02 -0.36409428931E+02  0.95152688476E+02  0.11037547495E+03  0.00000000000E+00 0.  1.
         13    1    4    4    0    0  0.63061946959E+01 -0.40595205564E+02 -0.79354038574E+01  0.41841479906E+02  0.00000000000E+00 0. -1.
         21    1    1    2  502  503 -0.28493998830E+01  0.25652903099E+02  0.85724635149E+01  0.27197015421E+02  0.00000000000E+00 0. -1.
         21    1    1    2  503  501  0.11169362638E+01  0.31534437576E+02 -0.22403504271E+02  0.38698647309E+02  0.00000000000E+00 0.  1.
<scales pt_clust_5="13000.00000" pt_clust_6="13000.00000" pt_clust_7="13000.00000" pt_clust_8="13000.00000" pt_clust_9="25.81067" pt_clust_10="40.25485"></scales>
<clustering>
<clus scale="   25.811">  2  9  1 -1</clus>
<clus scale="   40.255">  2 10  1 -1</clus>
<clus scale="   91.248">  7  8 -1 -1</clus>
<clus scale="   98.560">  5  6 -1 -1</clus>
<clus scale="  108.578">  2  7  1 -1</clus>
<clus scale="   25.811">  2  5  1 -1</clus>
</clustering>
</event>
<event>
10    2  0.1133532E-006  0.1384024E+03  0.7546771E-02  0.1215605E+00
         -1   -1    0    0    0  501 -0.00000000000E+00  0.00000000000E+00  0.10815466810E+03  0.10815466810E+03  0.00000000000E+00 0.  1.
          1   -1    0    0  503    0  0.00000000000E+00 -0.00000000000E+00 -0.51875524512E+03  0.51875524512E+03  0.00000000000E+00 0. -1.
         23    2    1    2    0    0  0.11577290938E+03  0.69646584493E+02 -0.17768391632E+02  0.16360783944E+03  0.90541681603E+02 0.  0.
         23    2    1    2    0    0 -0.54238717163E+02 -0.34764650506E+02 -0.15716337777E+03  0.19224898490E+03  0.90049572570E+02 0.  0.
        -11    1    3    3    0    0  0.34072044753E+02  0.41557691763E+02 -0.48021515788E+02  0.72069493941E+02  0.00000000000E+00 0. -1.
         11    1    3    3    0    0  0.81700864631E+02  0.28088892730E+02  0.30253124155E+02  0.91538345503E+02  0.00000000000E+00 0.  1.
        -11    1    4    4    0    0 -0.34363597633E+02  0.23811903033E+02 -0.98471652484E+02  0.10697910970E+03  0.00000000000E+00 0.  1.
         11    1    4    4    0    0 -0.19875119530E+02 -0.58576553539E+02 -0.58691725282E+02  0.85269875205E+02  0.00000000000E+00 0. -1.
         21    1    1    2  502  501 -0.20298530882E+02 -0.87373857375E-01  0.77489557461E+01  0.21727501129E+02  0.00000000000E+00 0.  1.
         21    1    1    2  503  502 -0.41235661339E+02 -0.34794560130E+02 -0.24341776337E+03  0.24932558775E+03  0.00000000000E+00 0. -1.
<scales pt_clust_5="13000.00000" pt_clust_6="13000.00000" pt_clust_7="13000.00000" pt_clust_8="13000.00000" pt_clust_9="20.29872" pt_clust_10="54.44796"></scales>
<clustering>
<clus scale="   20.299">  1  9  2 -1</clus>
<clus scale="   54.448">  2 10  1 -1</clus>
<clus scale="   90.050">  7  8 -1 -1</clus>
<clus scale="   90.542">  5  6 -1 -1</clus>
<clus scale="  138.081">  2  7  1 -1</clus>
<clus scale="   54.448">  2  5  1 -1</clus>
</clustering>
</event>
<event>
10    2  0.1133532E-006  0.1037108E+03  0.7546771E-02  0.1273785E+00
         -1   -1    0    0    0  501 -0.00000000000E+00  0.00000000000E+00  0.37460379546E+03  0.37460379546E+03  0.00000000000E+00 0.  1.
          1   -1    0    0  503    0  0.00000000000E+00 -0.00000000000E+00 -0.57593459301E+02  0.57593459301E+02  0.00000000000E+00 0. -1.
         23    2    1    2    0    0  0.55617562395E+01 -0.51201439547E+02  0.10716517996E+03  0.14893085980E+03  0.89685587814E+02 0.  0.
         23    2    1    2    0    0 -0.55698013572E+02  0.23429105004E+02  0.94669367952E+02  0.14527357374E+03  0.92146244203E+02 0.  0.
        -11    1    4    4    0    0 -0.78015553732E+02  0.25421766154E+02  0.91065924102E+02  0.12257934308E+03  0.00000000000E+00 0.  1.
         11    1    4    4    0    0  0.22317540161E+02 -0.19926611497E+01  0.36034438500E+01  0.22694230652E+02  0.00000000000E+00 0. -1.
        -13    1    3    3    0    0  0.23192906749E+02 -0.64993371115E+02  0.43815318920E+02  0.81742469895E+02  0.00000000000E+00 0. -1.
         13    1    3    3    0    0 -0.17631150510E+02  0.13791931568E+02  0.63349861040E+02  0.67188389909E+02  0.00000000000E+00 0.  1.
         21    1    1    2  502  501  0.13678118867E+02  0.15017539821E+02  0.89109163753E+02  0.91395079205E+02  0.00000000000E+00 0.  1.
         21    1    1    2  503  502  0.36458138465E+02  0.12754794722E+02  0.26066624499E+02  0.46597742021E+02  0.00000000000E+00 0.  1.
<scales pt_clust_5="13000.00000" pt_clust_6="13000.00000" pt_clust_7="13000.00000" pt_clust_8="13000.00000" pt_clust_9="20.31299" pt_clust_10="40.92676"></scales>
<clustering>
<clus scale="   20.313">  1  9  2 -1</clus>
<clus scale="   40.927">  2 10  1 -1</clus>
<clus scale="   89.686">  7  8 -1 -1</clus>
<clus scale="   92.146">  5  6 -1 -1</clus>
<clus scale="  101.531">  1  7  2 -1</clus>
<clus scale="   40.927">  2  5  1 -1</clus>
</clustering>
</event>
<event>
10    2  0.1133532E-006  0.1915642E+03  0.7546771E-02  0.1157648E+00
         -1   -1    0    0    0  501 -0.00000000000E+00  0.00000000000E+00  0.10868678170E+04  0.10868678170E+04  0.00000000000E+00 0.  1.
          1   -1    0    0  503    0  0.00000000000E+00 -0.00000000000E+00 -0.63956252100E+02  0.63956252100E+02  0.00000000000E+00 0. -1.
         23    2    1    2    0    0 -0.14264977640E+03 -0.43713293542E+02  0.62098890695E+03  0.64525729099E+03  0.92032267624E+02 0.  0.
         23    2    1    2    0    0  0.18531388455E+03 -0.18640073661E+02  0.27956585715E+03  0.34686781052E+03  0.86437962333E+02 0.  0.
        -11    1    3    3    0    0 -0.13251254624E+03 -0.95861247039E+01  0.55028411035E+03  0.56609546086E+03  0.00000000000E+00 0. -1.
         11    1    3    3    0    0 -0.10137230163E+02 -0.34127168838E+02  0.70704796593E+02  0.79161830130E+02  0.00000000000E+00 0.  1.
        -13    1    4    4    0    0  0.94118499594E+02 -0.21016277647E+02  0.72666590113E+02  0.12074936526E+03  0.00000000000E+00 0. -1.
         13    1    4    4    0    0  0.91195384955E+02  0.23762039858E+01  0.20689926704E+03  0.22611844526E+03  0.00000000000E+00 0.  1.
         21    1    1    2  502  501 -0.31871703473E+02  0.28974030332E+02  0.11507277202E+03  0.12287002391E+03  0.00000000000E+00 0. -1.
         21    1    1    2  503  502 -0.10792404672E+02  0.33379336871E+02  0.72840287509E+01  0.35828943654E+02  0.00000000000E+00 0. -1.
<scales pt_clust_5="13000.00000" pt_clust_6="13000.00000" pt_clust_7="13000.00000" pt_clust_8="13000.00000" pt_clust_9="45.48230" pt_clust_10="35.08071"></scales>
<clustering>
<clus scale="   35.081">  2 10  1 -1</clus>
<clus scale="   45.482">  1  9  2 -1</clus>
<clus scale="   86.438">  7  8 -1 -1</clus>
<clus scale="   92.032">  5  6 -1 -1</clus>
<clus scale="  188.940">  2  7  1 -1</clus>
<clus scale="   35.081">  2  5  1 -1</clus>
</clustering>
</event>
<event>
10    2  0.1133532E-006  0.3069928E+03  0.7546771E-02  0.1082274E+00
         -1   -1    0    0    0  501 -0.00000000000E+00  0.00000000000E+00  0.38535315809E+03  0.38535315809E+03  0.00000000000E+00 0.  1.
          1   -1    0    0  503    0  0.00000000000E+00 -0.00000000000E+00 -0.14659830970E+04  0.14659830970E+04  0.00000000000E+00 0. -1.
         23    2    1    2    0    0 -0.18109818046E+03 -0.25568643228E+03  0.88131295303E+02  0.33502262328E+03  0.79378399316E+02 0.  0.
         23    2    1    2    0    0  0.21993881848E+02  0.39737058235E+03 -0.10161479468E+04  0.10952753036E+04  0.93189217466E+02 0.  0.
        -11    1    3    3    0    0 -0.88132420447E+02 -0.13122661104E+03  0.34915144376E+01  0.15811368585E+03  0.00000000000E+00 0. -1.
         11    1    3    3    0    0 -0.92965760012E+02 -0.12445982124E+03  0.84639780865E+02  0.17690893743E+03  0.00000000000E+00 0.  1.
        -13    1    4    4    0    0 -0.39534115096E+01  0.37034230942E+03 -0.89971689861E+03  0.97296431242E+03  0.00000000000E+00 0. -1.
         13    1    4    4    0    0  0.25947293357E+02  0.27028272928E+02 -0.11643104820E+03  0.12231099114E+03  0.00000000000E+00 0.  1.
         21    1    1    2  502  501  0.12909234289E+03 -0.15126905914E+02  0.81362033172E+02  0.15334091664E+03  0.00000000000E+00 0.  1.
         21    1    1    2  503  502  0.30011955722E+02 -0.12655724416E+03 -0.23397532057E+03  0.26769741159E+03  0.00000000000E+00 0.  1.
<scales pt_clust_5="13000.00000" pt_clust_6="13000.00000" pt_clust_7="13000.00000" pt_clust_8="13000.00000" pt_clust_9="129.97560" pt_clust_10="133.08909"></scales>
<clustering>
<clus scale="   79.378">  5  6 -1 -1</clus>
<clus scale="   93.189">  7  8 -1 -1</clus>
<clus scale="  129.976">  1  9  2 -1</clus>
<clus scale="  133.089">  2 10  1 -1</clus>
<clus scale="  303.086">  1  5  2 -1</clus>
<clus scale="  133.089">  2  5  1 -1</clus>
</clustering>
</event>
<event>
10    2  0.1133532E-006  0.1454502E+03  0.7546771E-02  0.1206390E+00
          2   -1    0    0  503    0  0.00000000000E+00  0.00000000000E+00  0.87769615459E+03  0.87769615459E+03  0.00000000000E+00 0. -1.
         -2   -1    0    0    0  501 -0.00000000000E+00 -0.00000000000E+00 -0.10620858785E+03  0.10620858785E+03  0.00000000000E+00 0.  1.
         23    2    1    2    0    0 -0.84280380070E+02  0.93559111480E+00 -0.38565502919E+02  0.12894108823E+03  0.89635084773E+02 0.  0.
         23    2    1    2    0    0  0.85639579864E+02 -0.12054654250E+02  0.73426202258E+03  0.74488025716E+03  0.90699654751E+02 0.  0.
        -13    1    3    3    0    0 -0.53768864160E+02  0.24824003596E+02 -0.60293923281E+02  0.84514372104E+02  0.00000000000E+00 0.  1.
         13    1    3    3    0    0 -0.30511515910E+02 -0.23888412481E+02  0.21728420362E+02  0.44426716122E+02  0.00000000000E+00 0. -1.
        -13    1    4    4    0    0  0.75165128271E+02 -0.47112188947E+02  0.52653177723E+03  0.53395230807E+03  0.00000000000E+00 0. -1.
         13    1    4    4    0    0  0.10474451593E+02  0.35057534697E+02  0.20773024535E+03  0.21092794909E+03  0.00000000000E+00 0.  1.
         21    1    1    2  502  501 -0.36542210503E+02  0.15706141588E+02  0.21463957814E+02  0.45196432570E+02  0.00000000000E+00 0.  1.
         21    1    1    2  503  502  0.35183010708E+02 -0.45870784528E+01  0.54327089267E+02  0.64886964480E+02  0.00000000000E+00 0. -1.
<scales pt_clust_5="13000.00000" pt_clust_6="13000.00000" pt_clust_7="13000.00000" pt_clust_8="13000.00000" pt_clust_9="38.38587" pt_clust_10="35.48078"></scales>
<clustering>
<clus scale="   35.481">  1 10  2 -1</clus>
<clus scale="   38.386">  2  9  1 -1</clus>
<clus scale="   89.635">  5  6 -1 -1</clus>
<clus scale="   90.700">  7  8 -1 -1</clus>
<clus scale="  144.789">  2  5  1 -1</clus>
<clus scale="   35.481">  1  5  2 -1</clus>
</clustering>
</event>
<event>
10    2  0.1133532E-006  0.1085747E+03  0.7546771E-02  0.1267267E+00
          2   -1    0    0  503    0  0.00000000000E+00  0.00000000000E+00  0.57833517865E+03  0.57833517865E+03  0.00000000000E+00 0. -1.
         -2   -1    0    0    0  501 -0.00000000000E+00 -0.00000000000E+00 -0.64978541877E+02  0.64978541877E+02  0.00000000000E+00 0.  1.
         23    2    1    2    0    0  0.79379229157E+01 -0.49803232706E+01  0.70032718896E+02  0.12251871347E+03  0.10009215350E+03 0.  0.
         23    2    1    2    0    0 -0.89708854689E+02  0.61560420807E+02  0.27837587736E+03  0.31246371165E+03  0.91121226828E+02 0.  0.
        -13    1    4    4    0    0 -0.45757118864E+02  0.81502055126E+02  0.17591084412E+03  0.19920071284E+03  0.00000000000E+00 0.  1.
         13    1    4    4    0    0 -0.43951735825E+02 -0.19941634319E+02  0.10246503325E+03  0.11326299881E+03  0.00000000000E+00 0. -1.
        -13    1    3    3    0    0  0.76322003367E+01 -0.34759534598E+02  0.82794429240E+02  0.90118772964E+02  0.00000000000E+00 0. -1.
         13    1    3    3    0    0  0.30572257906E+00  0.29779211328E+02 -0.12761710344E+02  0.32399940501E+02  0.00000000000E+00 0.  1.
         21    1    1    2  502  501  0.19575624124E+02 -0.61225161767E+01 -0.44203812100E+01  0.20981659472E+02  0.00000000000E+00 0. -1.
         21    1    1    2  503  502  0.62195307649E+02 -0.50457581359E+02  0.16936842172E+03  0.18734963594E+03  0.00000000000E+00 0.  1.
<scales pt_clust_5="13000.00000" pt_clust_6="13000.00000" pt_clust_7="13000.00000" pt_clust_8="13000.00000" pt_clust_9="20.51074" pt_clust_10="83.37683"></scales>
<clustering>
<clus scale="   20.511">  2  9  1 -1</clus>
<clus scale="   83.377">  1 10  2 -1</clus>
<clus scale="   91.121">  5  6 -1 -1</clus>
<clus scale="  100.092">  7  8 -1 -1</clus>
<clus scale="  100.365">  1  5  2 -1</clus>
<clus scale="   83.377">  1  5  2 -1</clus>
</clustering>
</event>
<event>
10    2  0.1133532E-006  0.2848677E+03  0.7546771E-02  0.1093141E+00
         -1   -1    0    0    0  501 -0.00000000000E+00  0.00000000000E+00  0.24073380078E+03  0.24073380078E+03  0.00000000000E+00 0.  1.
          1   -1    0    0  503    0  0.00000000000E+00 -0.00000000000E+00 -0.77088377460E+03  0.77088377460E+03  0.00000000000E+00 0. -1.
         23    2    1    2    0    0  0.99183921181E+02 -0.24341736377E+03  0.30580856883E+02  0.27969183694E+03  0.90569705971E+02 0.  0.
         23    2    1    2    0    0 -0.12233352396E+03  0.21866237700E+03 -0.49316172232E+03  0.56083500185E+03  0.92459119259E+02 0.  0.
        -11    1    4    4    0    0 -0.10999938782E+03  0.15699831574E+03 -0.28571355262E+03  0.34406477677E+03  0.00000000000E+00 0.  1.
         11    1    4    4    0    0 -0.12334136139E+02  0.61664061259E+02 -0.20744816970E+03  0.21677022507E+03  0.00000000000E+00 0. -1.
        -13    1    3    3    0    0  0.35020818853E+02 -0.17783029883E+03  0.45161798547E+02  0.18678774313E+03  0.00000000000E+00 0.  1.
         13    1    3    3    0    0  0.64163102328E+02 -0.65587064940E+02 -0.14580941665E+02  0.92904093815E+02  0.00000000000E+00 0. -1.
         21    1    1    2  502  501  0.59461382888E+02  0.11930514299E+02  0.28928545519E+02  0.67192663083E+02  0.00000000000E+00 0.  1.
         21    1    1    2  503  502 -0.36311780106E+02  0.12824472470E+02 -0.96497653906E+02  0.10389807350E+03  0.00000000000E+00 0.  1.
<scales pt_clust_5="13000.00000" pt_clust_6="13000.00000" pt_clust_7="13000.00000" pt_clust_8="13000.00000" pt_clust_9="59.70548" pt_clust_10="38.50990"></scales>
<clustering>
<clus scale="   38.510">  2 10  1 -1</clus>
<clus scale="   59.705">  1  9  2 -1</clus>
<clus scale="   90.570">  7  8 -1 -1</clus>
<clus scale="   92.459">  5  6 -1 -1</clus>
<clus scale="  284.260">  1  7  2 -1</clus>
<clus scale="   38.510">  2  5  1 -1</clus>
</clustering>
</event>
<event>
10    2  0.1133532E-006  0.1022274E+03  0.7546771E-02  0.1277820E+00
         -1   -1    0    0    0  501 -0.00000000000E+00  0.00000000000E+00  0.38167264847E+03  0.38167264847E+03  0.00000000000E+00 0.  1.
          1   -1    0    0  503    0  0.00000000000E+00 -0.00000000000E+00 -0.73669395736E+02  0.73669395736E+02  0.00000000000E+00 0. -1.
         23    2    1    2    0    0 -0.30261965650E+02 -0.37635718335E+02  0.10508519478E+03  0.15080745237E+03  0.96787166866E+02 0.  0.
         23    2    1    2    0    0  0.31257987206E+02 -0.62253963942E+01  0.75547010997E+02  0.12356982798E+03  0.92446385497E+02 0.  0.
        -13    1    4    4    0    0  0.13910169753E+02  0.38586078498E+02  0.98637920309E+01  0.42186166804E+02  0.00000000000E+00 0. -1.
         13    1    4    4    0    0  0.17347817453E+02 -0.44811474892E+02  0.65683218966E+02  0.81383661174E+02  0.00000000000E+00 0.  1.
        -13    1    3    3    0    0 -0.58930043562E+02  0.11564289203E+01  0.67820464719E+02  0.89853785656E+02  0.00000000000E+00 0. -1.
         13    1    3    3    0    0  0.28668077911E+02 -0.38792147256E+02  0.37264730057E+02  0.60953666715E+02  0.00000000000E+00 0.  1.
         21    1    1    2  502  501  0.27988624792E+02  0.40194492416E+01  0.12860822197E+03  0.13167989159E+03  0.00000000000E+00 0. -1.
         21    1    1    2  503  502 -0.28984646347E+02  0.39841665488E+02 -0.12371750084E+01  0.49284872271E+02  0.00000000000E+00 0. -1.
<scales pt_clust_5="13000.00000" pt_clust_6="13000.00000" pt_clust_7="13000.00000" pt_clust_8="13000.00000" pt_clust_9="28.27577" pt_clust_10="48.06648"></scales>
<clustering>
<clus scale="   28.276">  1  9  2 -1</clus>
<clus scale="   48.066">  2 10  1 -1</clus>
<clus scale="   92.446">  5  6 -1 -1</clus>
<clus scale="   96.787">  7  8 -1 -1</clus>
<clus scale="   98.128">  2  5  1 -1</clus>
<clus scale="   48.066">  2  5  1 -1</clus>
</clustering>
</event>
<event>
10    2  0.1133532E-006  0.1775280E+03  0.7546771E-02  0.1170306E+00
          2   -1    0    0  503    0  0.00000000000E+00  0.00000000000E+00  0.12127427752E+04  0.12127427752E+04  0.00000000000E+00 0. -1.
         -2   -1    0    0    0  501 -0.00000000000E+00 -0.00000000000E+00 -0.49682398694E+02  0.49682398694E+02  0.00000000000E+00 0.  1.
         23    2    1    2    0    0  0.11024739622E+03  0.40491724151E+02  0.21738369224E+03  0.26278816457E+03  0.89486768237E+02 0.  0.
         23    2    1    2    0    0 -0.19678822867E+03 -0.29092673972E+02  0.57937437451E+03  0.61917854726E+03  0.90196546137E+02 0.  0.
        -11    1    3    3    0    0  0.31148843153E+02 -0.18455771592E+01  0.41865596411E+01  0.31483072697E+02  0.00000000000E+00 0. -1.
         11    1    3    3    0    0  0.79098553071E+02  0.42337301311E+02  0.21319713260E+03  0.23130509188E+03  0.00000000000E+00 0.  1.
        -13    1    4    4    0    0 -0.17455107269E+03 -0.37899157428E+02  0.56176433978E+03  0.58947739274E+03  0.00000000000E+00 0. -1.
         13    1    4    4    0    0 -0.22237155972E+02  0.88064834559E+01  0.17610034733E+02  0.29701154520E+02  0.00000000000E+00 0.  1.
         21    1    1    2  502  501  0.39601932394E+02 -0.15509321512E+02  0.82976622400E+02  0.93241471288E+02  0.00000000000E+00 0.  1.
         21    1    1    2  503  502  0.46938900049E+02  0.41102713322E+01  0.28332568734E+03  0.28721699075E+03  0.00000000000E+00 0. -1.
<scales pt_clust_5="13000.00000" pt_clust_6="13000.00000" pt_clust_7="13000.00000" pt_clust_8="13000.00000" pt_clust_9="42.53060" pt_clust_10="48.78938"></scales>
<clustering>
<clus scale="   42.531">  2  9  1 -1</clus>
<clus scale="   48.789">  1 10  2 -1</clus>
<clus scale="   89.487">  5  6 -1 -1</clus>
<clus scale="   90.197">  7  8 -1 -1</clus>
<clus scale="  177.168">  2  5  1 -1</clus>
<clus scale="   48.789">  1  5  2 -1</clus>
</clustering>
</event>
<event>
10    2  0.1133532E-006  0.9499286E+02  0.7546771E-02  0.1294290E+00
         -1   -1    0    0    0  501 -0.00000000000E+00  0.00000000000E+00  0.59737376437E+02  0.59737376437E+02  0.00000000000E+00 0.  1.
          1   -1    0    0  503    0  0.00000000000E+00 -0.00000000000E+00 -0.33655214421E+03  0.33655214421E+03  0.00000000000E+00 0. -1.
         23    2    1    2    0    0  0.14863905263E+02 -0.31645592614E+02 -0.80450574440E+02  0.12891783192E+03  0.94472923361E+02 0.  0.
         23    2    1    2    0    0  0.24263441807E+02 -0.74655953207E+01 -0.14003138964E+03  0.16790997168E+03  0.89109588619E+02 0.  0.
        -13    1    3    3    0    0  0.43942559930E+02 -0.31529501761E+02 -0.83705064071E+02  0.99657392127E+02  0.00000000000E+00 0. -1.
         13    1    3    3    0    0 -0.29078654667E+02 -0.11609085278E+00  0.32544896305E+01  0.29260439796E+02  0.00000000000E+00 0.  1.
        -13    1    4    4    0    0  0.30969064138E+01  0.35522289551E+02 -0.25729303800E+02  0.43970682941E+02  0.00000000000E+00 0.  1.
         13    1    4    4    0    0  0.21166535394E+02 -0.42987884872E+02 -0.11430208584E+03  0.12393928874E+03  0.00000000000E+00 0. -1.
         21    1    1    2  502  501 -0.11259846667E+02  0.30608058153E+02  0.36104362849E+01  0.32812689939E+02  0.00000000000E+00 0.  1.
         21    1    1    2  503  502 -0.27867500404E+02  0.85031297815E+01 -0.59943239980E+02  0.66649027106E+02  0.00000000000E+00 0.  1.
<scales pt_clust_5="13000.00000" pt_clust_6="13000.00000" pt_clust_7="13000.00000" pt_clust_8="13000.00000" pt_clust_9="33.57690" pt_clust_10="29.13590"></scales>
<clustering>
<clus scale="   29.136">  2 10  1 -1</clus>
<clus scale="   33.577">  1  9  2 -1</clus>
<clus scale="   89.110">  7  8 -1 -1</clus>
<clus scale="   89.661">  2  7  1 -1</clus>
<clus scale="   94.473">  5  6 -1 -1</clus>
<clus scale="   29.136">  2  5  1 -1</clus>
</clustering>
</event>
<event>
10    2  0.1133532E-006  0.1467540E+03  0.7546771E-02  0.1204538E+00
         -4   -1    0    0    0  501 -0.00000000000E+00  0.00000000000E+00  0.54310313572E+03  0.54310313572E+03  0.00000000000E+00 0.  1.
          4   -1    0    0  503    0  0.00000000000E+00 -0.00000000000E+00 -0.87658069984E+02  0.87658069984E+02  0.00000000000E+00 0. -1.
         23    2    1    2    0    0  0.85199785711E+02 -0.95829743813E+01  0.21417195225E+03  0.24776214638E+03  0.90363815568E+02 0.  0.
         23    2    1    2    0    0 -0.12980385724E+03  0.38451502296E+01  0.73017411811E+02  0.17429416891E+03  0.90460424238E+02 0.  0.
        -11    1    4    4    0    0 -0.13102363261E+03  0.28069588713E+02  0.61102107091E+02  0.14727036906E+03  0.00000000000E+00 0. -1.
         11    1    4    4    0    0  0.12197753654E+01 -0.24224438483E+02  0.11915304720E+02  0.27023799850E+02  0.00000000000E+00 0.  1.
        -13    1    3    3    0    0 -0.23421385408E+01  0.26829940909E+02  0.28073922905E+02  0.38903425162E+02  0.00000000000E+00 0. -1.
         13    1    3    3    0    0  0.87541924252E+02 -0.36412915290E+02  0.18609802935E+03  0.20885872122E+03  0.00000000000E+00 0.  1.
         21    1    1    2  502  501  0.49592685926E+02 -0.38084928773E+02  0.14699608949E+03  0.15974275139E+03  0.00000000000E+00 0.  1.
         21    1    1    2  503  502 -0.49886143954E+01  0.43822752925E+02  0.21259612187E+02  0.48962139024E+02  0.00000000000E+00 0.  1.
<scales pt_clust_5="13000.00000" pt_clust_6="13000.00000" pt_clust_7="13000.00000" pt_clust_8="13000.00000" pt_clust_9="59.94528" pt_clust_10="44.10578"></scales>
<clustering>
<clus scale="   44.106">  2 10  1 -1</clus>
<clus scale="   59.945">  1  9  2 -1</clus>
<clus scale="   90.364">  7  8 -1 -1</clus>
<clus scale="   90.460">  5  6 -1 -1</clus>
<clus scale="  146.694">  1  7  2 -1</clus>
<clus scale="   44.106">  2  5  1 -1</clus>
</clustering>
</event>
<event>
10    2  0.3383679E-006  0.1221854E+03  0.7546771E-02  0.1243412E+00
         -2   -1    0    0    0  501 -0.00000000000E+00  0.00000000000E+00  0.40952618906E+03  0.40952618906E+03  0.00000000000E+00 0.  1.
          2   -1    0    0  503    0  0.00000000000E+00 -0.00000000000E+00 -0.24603263436E+03  0.24603263436E+03  0.00000000000E+00 0. -1.
         23    2    1    2    0    0  0.52442764400E+02 -0.50407193848E+02  0.33997199558E+03  0.35844683092E+03  0.87247029099E+02 0.  0.
         23    2    1    2    0    0 -0.33619514303E+02  0.18460559796E+02 -0.17199269645E+03  0.20207736520E+03  0.98907582543E+02 0.  0.
        -11    1    3    3    0    0  0.75778696376E+02 -0.32487298849E+02  0.22065399320E+03  0.23555470729E+03  0.00000000000E+00 0. -1.
         11    1    3    3    0    0 -0.23335931976E+02 -0.17919895000E+02  0.11931800238E+03  0.12289212363E+03  0.00000000000E+00 0.  1.
        -13    1    4    4    0    0  0.22363171841E+02  0.39361539466E+02 -0.88457160703E+02  0.99368564061E+02  0.00000000000E+00 0.  1.
         13    1    4    4    0    0 -0.55982686144E+02 -0.20900979670E+02 -0.83535535743E+02  0.10270880114E+03  0.00000000000E+00 0. -1.
         21    1    1    2  502  501  0.13569322064E+02  0.16480318408E+02  0.35422680051E+02  0.41358114779E+02  0.00000000000E+00 0.  1.
         21    1    1    2  503  502 -0.32392572162E+02  0.15466315644E+02 -0.39908424490E+02  0.53676512518E+02  0.00000000000E+00 0. -1.
<scales pt_clust_5="13000.00000" pt_clust_6="13000.00000" pt_clust_7="13000.00000" pt_clust_8="13000.00000" pt_clust_9="21.34777" pt_clust_10="35.80213"></scales>
<clustering>
<clus scale="   21.348">  1  9  2 -1</clus>
<clus scale="   35.802">  2 10  1 -1</clus>
<clus scale="   87.247">  5  6 -1 -1</clus>
<clus scale="   98.908">  7  8 -1 -1</clus>
<clus scale="  112.954">  1  5  2 -1</clus>
<clus scale="   35.802">  2  5  1 -1</clus>
</clustering>
</event>
<event>
10    2  0.1133532E-006  0.1685824E+03  0.7546771E-02  0.1180007E+00
         -1   -1    0    0    0  501 -0.00000000000E+00  0.00000000000E+00  0.21242116693E+03  0.21242116693E+03  0.00000000000E+00 0.  1.
          1   -1    0    0  503    0  0.00000000000E+00 -0.00000000000E+00 -0.65762792174E+03  0.65762792174E+03  0.00000000000E+00 0. -1.
         23    2    1    2    0    0 -0.46929783372E+02 -0.13117879064E+03  0.12831586122E+03  0.21228001704E+03  0.95851790345E+02 0.  0.
         23    2    1    2    0    0 -0.46135221626E+02  0.11347262022E+03 -0.46339894656E+03  0.48967066285E+03  0.10017125422E+03 0.  0.
        -11    1    4    4    0    0 -0.27582411547E+02  0.13018082295E+03 -0.38084540264E+03  0.40342416487E+03  0.00000000000E+00 0. -1.
         11    1    4    4    0    0 -0.18552810079E+02 -0.16708202730E+02 -0.82553543921E+02  0.86246497982E+02  0.00000000000E+00 0.  1.
        -13    1    3    3    0    0 -0.70773950085E+02 -0.11981251143E+03  0.12213652895E+03  0.18515215799E+03  0.00000000000E+00 0.  1.
         13    1    3    3    0    0  0.23844166712E+02 -0.11366279217E+02  0.61793322752E+01  0.27127859053E+02  0.00000000000E+00 0. -1.
         21    1    1    2  502  501  0.86756746043E+02  0.41982741999E+02 -0.64306206083E+02  0.11586445421E+03  0.00000000000E+00 0.  1.
         21    1    1    2  503  502  0.63082589555E+01 -0.24276571574E+02 -0.45817463381E+02  0.52233954562E+02  0.00000000000E+00 0.  1.
<scales pt_clust_5="13000.00000" pt_clust_6="13000.00000" pt_clust_7="13000.00000" pt_clust_8="13000.00000" pt_clust_9="95.72546" pt_clust_10="25.08278"></scales>
<clustering>
<clus scale="   25.083">  2 10  1 -1</clus>
<clus scale="   95.725">  2  9  1 -1</clus>
<clus scale="   95.852">  7  8 -1 -1</clus>
<clus scale="  100.171">  5  6 -1 -1</clus>
<clus scale="  166.052">  1  7  2 -1</clus>
<clus scale="   25.083">  2  5  1 -1</clus>
</clustering>
</event>
<event>
10    2  0.1133532E-006  0.1514896E+03  0.7546771E-02  0.1207355E+00
         -3   -1    0    0    0  501 -0.00000000000E+00  0.00000000000E+00  0.91642949850E+03  0.91642949850E+03  0.00000000000E+00 0.  1.
          3   -1    0    0  503    0  0.00000000000E+00 -0.00000000000E+00 -0.56019265116E+02  0.56019265116E+02  0.00000000000E+00 0. -1.
         23    2    1    2    0    0  0.81715828980E+02  0.20282322331E+01  0.49165971069E+03  0.50628316233E+03  0.88948181049E+02 0.  0.
         23    2    1    2    0    0 -0.63681827935E+02 -0.39608230787E+02  0.22619502250E+03  0.26812764472E+03  0.12289856998E+03 0.  0.
        -11    1    3    3    0    0  0.70712419129E+02 -0.36887113396E+02  0.34938979439E+03  0.35837708322E+03  0.00000000000E+00 0.  1.
         11    1    3    3    0    0  0.11003409851E+02  0.38915345629E+02  0.14226991630E+03  0.14790607911E+03  0.00000000000E+00 0. -1.
        -11    1    4    4    0    0 -0.34679340789E+02 -0.83990421500E+02  0.13832608628E+03  0.16550273027E+03  0.00000000000E+00 0.  1.
         11    1    4    4    0    0 -0.29002487146E+02  0.44382190713E+02  0.87868936221E+02  0.10262491445E+03  0.00000000000E+00 0. -1.
         21    1    1    2  502  501  0.38227328376E+02  0.12542174240E+02  0.12880268222E+03  0.13493985963E+03  0.00000000000E+00 0. -1.
         21    1    1    2  503  502 -0.56261329420E+02  0.25037824314E+02  0.13752817970E+02  0.63098096933E+02  0.00000000000E+00 0. -1.
<scales pt_clust_5="13000.00000" pt_clust_6="13000.00000" pt_clust_7="13000.00000" pt_clust_8="13000.00000" pt_clust_9="40.23226" pt_clust_10="60.13485"></scales>
<clustering>
<clus scale="   40.232">  1  9  2 -1</clus>
<clus scale="   60.135">  2 10  1 -1</clus>
<clus scale="   88.948">  5  6 -1 -1</clus>
<clus scale="  122.899">  7  8 -1 -1</clus>
<clus scale="  125.526">  1  5  2 -1</clus>
<clus scale="   60.135">  2  5  1 -1</clus>
</clustering>
</event>
<event>
10    2  0.1133532E-006  0.9839825E+02  0.7546771E-02  0.1292235E+00
         -2   -1    0    0    0  501 -0.00000000000E+00  0.00000000000E+00  0.20039781761E+03  0.20039781761E+03  0.00000000000E+00 0.  1.
          2   -1    0    0  503    0  0.00000000000E+00 -0.00000000000E+00 -0.21490518492E+03  0.21490518492E+03  0.00000000000E+00 0. -1.
         23    2    1    2    0    0  0.16793246859E+02 -0.45921846782E+02  0.75839856114E+02  0.12834735446E+03  0.91271739707E+02 0.  0.
         23    2    1    2    0    0 -0.38962652281E+02 -0.21331060380E+02 -0.14780367678E+03  0.17173524114E+03  0.75325717861E+02 0.  0.
        -11    1    3    3    0    0  0.28317768853E+02  0.20322837693E+02  0.16065440285E+02  0.38379840232E+02  0.00000000000E+00 0.  1.
         11    1    3    3    0    0 -0.11524521994E+02 -0.66244684474E+02  0.59774415829E+02  0.89967514226E+02  0.00000000000E+00 0. -1.
        -13    1    4    4    0    0 -0.22937391731E+02 -0.40301408917E+02 -0.13703404122E+03  0.14466739768E+03  0.00000000000E+00 0. -1.
         13    1    4    4    0    0 -0.16025260550E+02  0.18970348537E+02 -0.10769635557E+02  0.27067843455E+02  0.00000000000E+00 0.  1.
         21    1    1    2  502  501  0.16641797638E+02  0.24431198842E+02  0.64984545555E+02  0.71392044840E+02  0.00000000000E+00 0.  1.
         21    1    1    2  503  502  0.55276077852E+01  0.42821708320E+02 -0.75280922034E+01  0.43828362090E+02  0.00000000000E+00 0. -1.
<scales pt_clust_5="13000.00000" pt_clust_6="13000.00000" pt_clust_7="13000.00000" pt_clust_8="13000.00000" pt_clust_9="29.56066" pt_clust_10="46.83190"></scales>
<clustering>
<clus scale="   29.561">  1  9  2 -1</clus>
<clus scale="   46.832">  2 10  1 -1</clus>
<clus scale="   75.326">  7  8 -1 -1</clus>
<clus scale="   83.819">  2  7  1 -1</clus>
<clus scale="   91.272">  5  6 -1 -1</clus>
<clus scale="   46.832">  2  5  1 -1</clus>
</clustering>
</event>
<event>
10    2  0.1133532E-006  0.1838221E+03  0.7546771E-02  0.1164537E+00
         -1   -1    0    0    0  501 -0.00000000000E+00  0.00000000000E+00  0.23551962600E+03  0.23551962600E+03  0.00000000000E+00 0.  1.
          1   -1    0    0  503    0  0.00000000000E+00 -0.00000000000E+00 -0.53260450091E+03  0.53260450091E+03  0.00000000000E+00 0. -1.
         23    2    1    2    0    0  0.10633865015E+03  0.81909450580E+02  0.14357475995E+03  0.21521610026E+03  0.87676630342E+02 0.  0.
         23    2    1    2    0    0 -0.15685260551E+03 -0.13871447319E+03 -0.32965601423E+03  0.40099513774E+03  0.90992130696E+02 0.  0.
        -11    1    4    4    0    0 -0.24294925206E+02 -0.64229343836E+02 -0.58919486626E+02  0.90482914987E+02  0.00000000000E+00 0.  1.
         11    1    4    4    0    0 -0.13255768031E+03 -0.74485129358E+02 -0.27073652760E+03  0.31051222276E+03  0.00000000000E+00 0. -1.
        -13    1    3    3    0    0  0.80283650492E+02  0.96800499870E+02  0.93016772232E+02  0.15642225298E+03  0.00000000000E+00 0.  1.
         13    1    3    3    0    0  0.26054999654E+02 -0.14891049290E+02  0.50557987717E+02  0.58793847280E+02  0.00000000000E+00 0. -1.
         21    1    1    2  502  501  0.20331196718E+02  0.11659632414E+02  0.48763589618E+01  0.23939161738E+02  0.00000000000E+00 0.  1.
         21    1    1    2  503  502  0.30182758648E+02  0.45145390200E+02 -0.11587997959E+03  0.12797372717E+03  0.00000000000E+00 0.  1.
<scales pt_clust_5="13000.00000" pt_clust_6="13000.00000" pt_clust_7="13000.00000" pt_clust_8="13000.00000" pt_clust_9="23.43725" pt_clust_10="54.88051"></scales>
<clustering>
<clus scale="   23.437">  1  9  2 -1</clus>
<clus scale="   54.881">  2 10  1 -1</clus>
<clus scale="   87.677">  7  8 -1 -1</clus>
<clus scale="   90.992">  5  6 -1 -1</clus>
<clus scale="  182.204">  1  7  2 -1</clus>
<clus scale="   54.881">  2  5  1 -1</clus>
</clustering>
</event>
<event>
10    2  0.1133532E-006  0.1066628E+03  0.7546771E-02  0.1266993E+00
          1   -1    0    0  503    0  0.00000000000E+00  0.00000000000E+00  0.37244292502E+03  0.37244292502E+03  0.00000000000E+00 0. -1.
         -1   -1    0    0    0  501 -0.00000000000E+00 -0.00000000000E+00 -0.20158132538E+03  0.20158132538E+03  0.00000000000E+00 0.  1.
         23    2    1    2    0    0  0.12939557378E+02 -0.40189523852E+01  0.21552196678E+02  0.94960941072E+02  0.91484966110E+02 0.  0.
         23    2    1    2    0    0 -0.96452650835E+02 -0.41882866992E+02  0.95100406121E+02  0.16888376564E+03  0.91762468640E+02 0.  0.
        -11    1    3    3    0    0  0.84911803467E+01 -0.42637850283E+02  0.32836173519E+02  0.54482113687E+02  0.00000000000E+00 0. -1.
         11    1    3    3    0    0  0.44483770314E+01  0.38618897898E+02 -0.11283976841E+02  0.40478827385E+02  0.00000000000E+00 0.  1.
        -13    1    4    4    0    0 -0.98350808506E+02 -0.62232501721E+02  0.67512306118E+02  0.13454990629E+03  0.00000000000E+00 0. -1.
         13    1    4    4    0    0  0.18981576711E+01  0.20349634729E+02  0.27588100002E+02  0.34333859350E+02  0.00000000000E+00 0.  1.
         21    1    1    2  502  501  0.44257409891E+02  0.36450917066E+02 -0.11912492093E+03  0.13220489579E+03  0.00000000000E+00 0.  1.
         21    1    1    2  503  502  0.39255683566E+02  0.94509023111E+01  0.17333391777E+03  0.17797464790E+03  0.00000000000E+00 0. -1.
<scales pt_clust_5="13000.00000" pt_clust_6="13000.00000" pt_clust_7="13000.00000" pt_clust_8="13000.00000" pt_clust_9="58.54539" pt_clust_10="40.37732"></scales>
<clustering>
<clus scale="   40.377">  1 10  2 -1</clus>
<clus scale="   58.545">  2  9  1 -1</clus>
<clus scale="   91.485">  5  6 -1 -1</clus>
<clus scale="   91.762">  7  8 -1 -1</clus>
<clus scale="  106.424">  2  5  1 -1</clus>
<clus scale="   40.377">  1  5  2 -1</clus>
</clustering>
</event>
<event>
10    2  0.1133532E-006  0.1570907E+03  0.7546771E-02  0.1192091E+00
         -1   -1    0    0    0  501 -0.00000000000E+00  0.00000000000E+00  0.56527314989E+02  0.56527314989E+02  0.00000000000E+00 0.  1.
          1   -1    0    0  503    0  0.00000000000E+00 -0.00000000000E+00 -0.12360349310E+04  0.12360349310E+04  0.00000000000E+00 0. -1.
         23    2    1    2    0    0 -0.23267635923E+02 -0.12061107513E+03 -0.12129061408E+03  0.19536238141E+03  0.91469299113E+02 0.  0.
         23    2    1    2    0    0  0.95074698769E+02  0.13203896781E+03 -0.79284252525E+03  0.81456430335E+03  0.91881701537E+02 0.  0.
        -11    1    3    3    0    0  0.28077326223E+02 -0.84151041840E+01 -0.17581496355E+02  0.34179807495E+02  0.00000000000E+00 0. -1.
         11    1    3    3    0    0 -0.51344962147E+02 -0.11219597094E+03 -0.10370911773E+03  0.16118257391E+03  0.00000000000E+00 0.  1.
        -13    1    4    4    0    0  0.63606260747E+02  0.14584462272E+02 -0.27446890767E+03  0.28211991108E+03  0.00000000000E+00 0. -1.
         13    1    4    4    0    0  0.31468438022E+02  0.11745450553E+03 -0.51837361758E+03  0.53244439227E+03  0.00000000000E+00 0.  1.
         21    1    1    2  502  501 -0.66143201609E+02 -0.32925217466E+02 -0.18402810751E+03  0.19830617091E+03  0.00000000000E+00 0. -1.
         21    1    1    2  503  502 -0.56638612368E+01  0.21497324786E+02 -0.81346369189E+02  0.84329390353E+02  0.00000000000E+00 0. -1.
<scales pt_clust_5="13000.00000" pt_clust_6="13000.00000" pt_clust_7="13000.00000" pt_clust_8="13000.00000" pt_clust_9="73.22644" pt_clust_10="22.23093"></scales>
<clustering>
<clus scale="   22.231">  2 10  1 -1</clus>
<clus scale="   73.226">  2  9  1 -1</clus>
<clus scale="   91.469">  5  6 -1 -1</clus>
<clus scale="   91.882">  7  8 -1 -1</clus>
<clus scale="  156.850">  1  5  2 -1</clus>
<clus scale="   22.231">  2  5  1 -1</clus>
</clustering>
</event>
<event>
10    2  0.1133532E-006  0.1721105E+03  0.7546771E-02  0.1192497E+00
         -2   -1    0    0    0  501 -0.00000000000E+00  0.00000000000E+00  0.70333734281E+02  0.70333734281E+02  0.00000000000E+00 0.  1.
          2   -1    0    0  503    0  0.00000000000E+00 -0.00000000000E+00 -0.11578790012E+04  0.11578790012E+04  0.00000000000E+00 0. -1.
         23    2    1    2    0    0  0.21924467539E+02  0.73687159979E+02 -0.27649670112E+03  0.30098349096E+03  0.90720208762E+02 0.  0.
         23    2    1    2    0    0  0.13816840190E+03 -0.12849287172E+02 -0.24091449942E+03  0.29295946366E+03  0.92357132125E+02 0.  0.
        -13    1    4    4    0    0  0.12093343657E+02  0.24588213742E+02 -0.83250583122E+02  0.87644103087E+02  0.00000000000E+00 0. -1.
         13    1    4    4    0    0  0.12607505825E+03 -0.37437500914E+02 -0.15766391629E+03  0.20531536057E+03  0.00000000000E+00 0.  1.
        -13    1    3    3    0    0  0.18025914591E+02 -0.18771594425E+02 -0.70686481276E+02  0.75325194917E+02  0.00000000000E+00 0.  1.
         13    1    3    3    0    0  0.38985529475E+01  0.92458754404E+02 -0.20581021984E+03  0.22565829604E+03  0.00000000000E+00 0. -1.
         21    1    1    2  502  501 -0.20499419398E+02  0.88581144570E+00  0.17604732664E+02  0.27035855262E+02  0.00000000000E+00 0.  1.
         21    1    1    2  503  502 -0.13959345004E+03 -0.61723684253E+02 -0.58773879910E+03  0.60723392565E+03  0.00000000000E+00 0. -1.
<scales pt_clust_5="13000.00000" pt_clust_6="13000.00000" pt_clust_7="13000.00000" pt_clust_8="13000.00000" pt_clust_9="20.51855" pt_clust_10="145.23153"></scales>
<clustering>
<clus scale="   20.519">  1  9  2 -1</clus>
<clus scale="   90.720">  7  8 -1 -1</clus>
<clus scale="   92.357">  5  6 -1 -1</clus>
<clus scale="  118.204">  1  7  2 -1</clus>
<clus scale="  145.232">  2 10  1 -1</clus>
<clus scale="  145.232">  2  5  1 -1</clus>
</clustering>
</event>
<event>
10    2  0.1133532E-006  0.1179526E+03  0.7546771E-02  0.1247330E+00
          1   -1    0    0  503    0  0.00000000000E+00  0.00000000000E+00  0.51496869104E+03  0.51496869104E+03  0.00000000000E+00 0. -1.
         -1   -1    0    0    0  501 -0.00000000000E+00 -0.00000000000E+00 -0.10896445196E+03  0.10896445196E+03  0.00000000000E+00 0.  1.
         23    2    1    2    0    0 -0.69999398094E+02  0.25588691172E+02 -0.18158304093E+02  0.12049761045E+03  0.92926063446E+02 0.  0.
         23    2    1    2    0    0  0.64986862416E+02 -0.41677299815E+00  0.28263365894E+03  0.30379555054E+03  0.90479198588E+02 0.  0.
        -11    1    3    3    0    0 -0.70279417141E+02  0.52293464083E+02  0.10408259524E+01  0.87606427721E+02  0.00000000000E+00 0.  1.
         11    1    3    3    0    0  0.28001904666E+00 -0.26704772911E+02 -0.19199130045E+02  0.32891182730E+02  0.00000000000E+00 0. -1.
        -13    1    4    4    0    0  0.57467492031E+01 -0.37355037976E+02  0.13972235476E+03  0.14474377503E+03  0.00000000000E+00 0.  1.
         13    1    4    4    0    0  0.59240113213E+02  0.36938264977E+02  0.14291130418E+03  0.15905177552E+03  0.00000000000E+00 0. -1.
         21    1    1    2  502  501 -0.36448182845E+01 -0.53425269238E+02 -0.15198502395E+01  0.53571018641E+02  0.00000000000E+00 0. -1.
         21    1    1    2  503  502  0.86573539626E+01  0.28253351063E+02  0.14304873448E+03  0.14606896337E+03  0.00000000000E+00 0.  1.
<scales pt_clust_5="13000.00000" pt_clust_6="13000.00000" pt_clust_7="13000.00000" pt_clust_8="13000.00000" pt_clust_9="51.52969" pt_clust_10="29.54999"></scales>
<clustering>
<clus scale="   29.550">  1 10  2 -1</clus>
<clus scale="   51.530">  2  9  1 -1</clus>
<clus scale="   90.479">  7  8 -1 -1</clus>
<clus scale="   92.926">  5  6 -1 -1</clus>
<clus scale="  116.035">  1  7  2 -1</clus>
<clus scale="   29.550">  1  5  2 -1</clus>
</clustering>
</event>
<event>
10    2  0.1133532E-006  0.9521710E+02  0.7546771E-02  0.1291487E+00
          2   -1    0    0  503    0  0.00000000000E+00  0.00000000000E+00  0.70378824350E+03  0.70378824350E+03  0.00000000000E+00 0. -1.
         -2   -1    0    0    0  501 -0.00000000000E+00 -0.00000000000E+00 -0.22943122668E+02  0.22943122668E+02  0.00000000000E+00 0.  1.
         23    2    1    2    0    0 -0.53211623762E+01 -0.35577360044E+02  0.22554008449E+03  0.24647805010E+03  0.92677052997E+02 0.  0.
         23    2    1    2    0    0  0.63406880030E+01 -0.88755618475E+01  0.25751878795E+03  0.27439175850E+03  0.94105956575E+02 0.  0.
        -11    1    4    4    0    0 -0.18633153016E+02 -0.33717428320E+02  0.46185131358E+02  0.60142545027E+02  0.00000000000E+00 0.  1.
         11    1    4    4    0    0  0.24973841019E+02  0.24841866472E+02  0.21133365659E+03  0.21424921347E+03  0.00000000000E+00 0. -1.
        -13    1    3    3    0    0 -0.48204182535E+02 -0.25588781566E+02  0.10904291991E+03  0.12193763709E+03  0.00000000000E+00 0.  1.
         13    1    3    3    0    0  0.42883020159E+02 -0.99885784782E+01  0.11649716458E+03  0.12454041301E+03  0.00000000000E+00 0. -1.
         21    1    1    2  502  501 -0.85303963248E+01  0.23187905234E+02  0.44272759863E+02  0.50700334087E+02  0.00000000000E+00 0. -1.
         21    1    1    2  503  502  0.75108706980E+01  0.21265016658E+02  0.15351348853E+03  0.15516122348E+03  0.00000000000E+00 0. -1.
<scales pt_clust_5="13000.00000" pt_clust_6="13000.00000" pt_clust_7="13000.00000" pt_clust_8="13000.00000" pt_clust_9="26.23742" pt_clust_10="22.55247"></scales>
<clustering>
<clus scale="   22.552">  1 10  2 -1</clus>
<clus scale="   26.237">  2  9  1 -1</clus>
<clus scale="   92.677">  7  8 -1 -1</clus>
<clus scale="   93.805">  2  7  1 -1</clus>
<clus scale="   94.106">  5  6 -1 -1</clus>
<clus scale="   22.552">  1  5  2 -1</clus>
</clustering>
</event>
<event>
10    2  0.1133532E-006  0.9357663E+02  0.7546771E-02  0.1294855E+00
         -4   -1    0    0    0  501 -0.00000000000E+00  0.00000000000E+00  0.29846301849E+03  0.29846301849E+03  0.00000000000E+00 0.  1.
          4   -1    0    0  503    0  0.00000000000E+00 -0.00000000000E+00 -0.22556688599E+03  0.22556688599E+03  0.00000000000E+00 0. -1.
         23    2    1    2    0    0 -0.40872215928E+01  0.36075939122E+01  0.80068516763E+02  0.12204181128E+03  0.91943005222E+02 0.  0.
         23    2    1    2    0    0 -0.12383583569E+01  0.12475684389E+02 -0.50388752898E+02  0.10491557690E+03  0.91165100922E+02 0.  0.
        -13    1    3    3    0    0  0.67757086003E+00  0.36539082423E+02  0.80884560973E+02  0.88757398849E+02  0.00000000000E+00 0.  1.
         13    1    3    3    0    0 -0.47647924528E+01 -0.32931488511E+02 -0.81604420958E+00  0.33284412430E+02  0.00000000000E+00 0. -1.
        -13    1    4    4    0    0 -0.23419459056E+02  0.39303525994E+01  0.19732218359E+02  0.30875219439E+02  0.00000000000E+00 0.  1.
         13    1    4    4    0    0  0.22181100699E+02  0.85453317893E+01 -0.70120971257E+02  0.74040357465E+02  0.00000000000E+00 0. -1.
         21    1    1    2  502  501 -0.18508336454E+02 -0.21055853670E+02  0.16780327388E+03  0.17012891058E+03  0.00000000000E+00 0. -1.
         21    1    1    2  503  502  0.23833916404E+02  0.49725753688E+01 -0.12458690523E+03  0.12694360572E+03  0.00000000000E+00 0. -1.
<scales pt_clust_5="13000.00000" pt_clust_6="13000.00000" pt_clust_7="13000.00000" pt_clust_8="13000.00000" pt_clust_9="27.80771" pt_clust_10="24.34712"></scales>
<clustering>
<clus scale="   24.347">  2 10  1 -1</clus>
<clus scale="   27.808">  1  9  2 -1</clus>
<clus scale="   91.165">  7  8 -1 -1</clus>
<clus scale="   91.943">  5  6 -1 -1</clus>
<clus scale="   92.812">  2  7  1 -1</clus>
<clus scale="   24.347">  2  5  1 -1</clus>
</clustering>
</event>
<event>
10    2  0.1133532E-006  0.1349247E+03  0.7546771E-02  0.1220331E+00
          2   -1    0    0  503    0  0.00000000000E+00  0.00000000000E+00  0.40077978390E+03  0.40077978390E+03  0.00000000000E+00 0. -1.
         -2   -1    0    0    0  501 -0.00000000000E+00 -0.00000000000E+00 -0.21105891835E+03  0.21105891835E+03  0.00000000000E+00 0.  1.
         23    2    1    2    0    0 -0.50629326295E+02 -0.75166847376E+02 -0.12944716980E+03  0.18269222715E+03  0.91686948174E+02 0.  0.
         23    2    1    2    0    0  0.61647621130E+02  0.81606298173E+02  0.27845961905E+03  0.31048708032E+03  0.91664881578E+02 0.  0.
        -13    1    3    3    0    0 -0.63143369280E+02 -0.43386189531E+02 -0.12716542141E+03  0.14846040189E+03  0.00000000000E+00 0.  1.
         13    1    3    3    0    0  0.12514042984E+02 -0.31780657845E+02 -0.22817483880E+01  0.34231825259E+02  0.00000000000E+00 0. -1.
        -13    1    4    4    0    0  0.40593579117E+02 -0.53759629531E+01  0.47041011092E+02  0.62366628639E+02  0.00000000000E+00 0.  1.
         13    1    4    4    0    0  0.21054042013E+02  0.86982261126E+02  0.23141860795E+03  0.24812045168E+03  0.00000000000E+00 0. -1.
         21    1    1    2  502  501  0.17721050941E+02 -0.19860930358E+02 -0.30634709750E+02  0.40582972324E+02  0.00000000000E+00 0.  1.
         21    1    1    2  503  502 -0.28739345776E+02  0.13421479561E+02  0.71343126053E+02  0.78076422460E+02  0.00000000000E+00 0.  1.
<scales pt_clust_5="13000.00000" pt_clust_6="13000.00000" pt_clust_7="13000.00000" pt_clust_8="13000.00000" pt_clust_9="26.61752" pt_clust_10="31.25015"></scales>
<clustering>
<clus scale="   26.618">  2  9  1 -1</clus>
<clus scale="   31.250">  1 10  2 -1</clus>
<clus scale="   91.665">  7  8 -1 -1</clus>
<clus scale="   91.687">  5  6 -1 -1</clus>
<clus scale="  134.910">  1  7  2 -1</clus>
<clus scale="   31.250">  1  5  2 -1</clus>
</clustering>
</event>
<event>
10    2  0.1133532E-006  0.1321749E+03  0.7546771E-02  0.1225247E+00
          1   -1    0    0  503    0  0.00000000000E+00  0.00000000000E+00  0.97263592835E+03  0.97263592835E+03  0.00000000000E+00 0. -1.
         -1   -1    0    0    0  501 -0.00000000000E+00 -0.00000000000E+00 -0.21406526245E+03  0.21406526245E+03  0.00000000000E+00 0.  1.
         23    2    1    2    0    0  0.45196516485E+02 -0.74783931063E+02 -0.14914998903E+03  0.19421612055E+03  0.88537115414E+02 0.  0.
         23    2    1    2    0    0 -0.10436589072E+03  0.17082059237E+03  0.29808595361E+03  0.37076533663E+03  0.92410958145E+02 0.  0.
        -11    1    3    3    0    0  0.35250579535E+02 -0.95288881813E+02 -0.12251994757E+03  0.15916567440E+03  0.00000000000E+00 0.  1.
         11    1    3    3    0    0  0.99459369497E+01  0.20504950750E+02 -0.26630041460E+02  0.35050446149E+02  0.00000000000E+00 0. -1.
        -11    1    4    4    0    0 -0.25582262769E+02  0.10123960435E+03  0.20628954331E+03  0.23121264096E+03  0.00000000000E+00 0. -1.
         11    1    4    4    0    0 -0.78783627954E+02  0.69580988022E+02  0.91796410295E+02  0.13955269568E+03  0.00000000000E+00 0.  1.
         21    1    1    2  502  501  0.55294896343E+02 -0.74302075050E+02  0.55691416591E+03  0.56456329328E+03  0.00000000000E+00 0. -1.
         21    1    1    2  503  502  0.38744778956E+01 -0.21734586257E+02  0.52720535412E+02  0.57156440345E+02  0.00000000000E+00 0.  1.
<scales pt_clust_5="13000.00000" pt_clust_6="13000.00000" pt_clust_7="13000.00000" pt_clust_8="13000.00000" pt_clust_9="104.86009" pt_clust_10="22.07722"></scales>
<clustering>
<clus scale="   22.077">  1 10  2 -1</clus>
<clus scale="   88.537">  5  6 -1 -1</clus>
<clus scale="   92.411">  7  8 -1 -1</clus>
<clus scale="  104.860">  1  9  2 -1</clus>
<clus scale="  129.496">  2  5  1 -1</clus>
<clus scale="   22.077">  1  5  2 -1</clus>
</clustering>
</event>
<event>
10    2  0.1133532E-006  0.5224387E+03  0.7546771E-02  0.1008090E+00
          1   -1    0    0  503    0  0.00000000000E+00  0.00000000000E+00  0.16587299021E+04  0.16587299021E+04  0.00000000000E+00 0. -1.
         -1   -1    0    0    0  501 -0.00000000000E+00 -0.00000000000E+00 -0.63941621798E+03  0.63941621798E+03  0.00000000000E+00 0.  1.
         23    2    1    2    0    0 -0.43118614248E+03 -0.37219097391E+03  0.74918621706E+03  0.94559963347E+03  0.91820849788E+02 0.  0.
         23    2    1    2    0    0  0.38837463799E+03  0.25987850028E+03  0.52107485201E+03  0.70582441341E+03  0.91090102780E+02 0.  0.
        -11    1    4    4    0    0  0.34075148557E+03  0.21338094218E+03  0.39699543362E+03  0.56502068610E+03  0.00000000000E+00 0.  1.
         11    1    4    4    0    0  0.47623152412E+02  0.46497558097E+02  0.12407941839E+03  0.14080372731E+03  0.00000000000E+00 0. -1.
        -13    1    3    3    0    0 -0.35356301540E+03 -0.33641522853E+03  0.67136731424E+03  0.83000968818E+03  0.00000000000E+00 0. -1.
         13    1    3    3    0    0 -0.77623127080E+02 -0.35775745382E+02  0.77818902818E+02  0.11558994529E+03  0.00000000000E+00 0.  1.
         21    1    1    2  502  501  0.71160320101E+02  0.12465067382E+03 -0.43604463886E+03  0.45906046303E+03  0.00000000000E+00 0.  1.
         21    1    1    2  503  502 -0.28348815611E+02 -0.12338200181E+02  0.18509725395E+03  0.18766161022E+03  0.00000000000E+00 0. -1.
<scales pt_clust_5="13000.00000" pt_clust_6="13000.00000" pt_clust_7="13000.00000" pt_clust_8="13000.00000" pt_clust_9="143.33898" pt_clust_10="30.91741"></scales>
<clustering>
<clus scale="   30.917">  1 10  2 -1</clus>
<clus scale="   91.090">  5  6 -1 -1</clus>
<clus scale="   91.821">  7  8 -1 -1</clus>
<clus scale="  143.339">  2  9  1 -1</clus>
<clus scale="  522.311">  1  5  2 -1</clus>
<clus scale="   30.917">  1  5  2 -1</clus>
</clustering>
</event>
<event>
10    2  0.1133532E-006  0.1578368E+03  0.7546771E-02  0.1194273E+00
         -1   -1    0    0    0  501 -0.00000000000E+00  0.00000000000E+00  0.60419850733E+02  0.60419850733E+02  0.00000000000E+00 0.  1.
          1   -1    0    0  502    0  0.00000000000E+00 -0.00000000000E+00 -0.10077566140E+04  0.10077566140E+04  0.00000000000E+00 0. -1.
         23    2    1    2    0    0 -0.78676015562E+02  0.45314016934E+02 -0.28128421441E+03  0.30751088652E+03  0.84846098917E+02 0.  0.
         23    2    1    2    0    0  0.99401755503E+02 -0.11735939863E+03 -0.63288833892E+03  0.65923266509E+03  0.10191231393E+03 0.  0.
        -13    1    3    3    0    0 -0.27181856665E+02  0.63868458763E+02 -0.16392814497E+03  0.17801817342E+03  0.00000000000E+00 0.  1.
         13    1    3    3    0    0 -0.51494158897E+02 -0.18554441829E+02 -0.11735606944E+03  0.12949271310E+03  0.00000000000E+00 0. -1.
        -13    1    4    4    0    0  0.61311233138E+02 -0.11522933214E+02 -0.13384209049E+03  0.14766702572E+03  0.00000000000E+00 0.  1.
         13    1    4    4    0    0  0.38090522365E+02 -0.10583646542E+03 -0.49904624843E+03  0.51156563937E+03  0.00000000000E+00 0. -1.
         21    1    1    2  502  503 -0.23999981781E+02  0.51219296005E+02  0.60753101427E+01  0.56888705400E+02  0.00000000000E+00 0. -1.
         21    1    1    2  503  501  0.32742418403E+01  0.20826085693E+02 -0.39239520046E+02  0.44544207686E+02  0.00000000000E+00 0.  1.
<scales pt_clust_5="13000.00000" pt_clust_6="13000.00000" pt_clust_7="13000.00000" pt_clust_8="13000.00000" pt_clust_9="66.39592" pt_clust_10="21.08190"></scales>
<clustering>
<clus scale="   21.082">  1 10  2 -1</clus>
<clus scale="   66.396">  1  9  2 -1</clus>
<clus scale="   84.846">  5  6 -1 -1</clus>
<clus scale="  101.912">  7  8 -1 -1</clus>
<clus scale="  147.395">  1  5  2 -1</clus>
<clus scale="  157.837">  2  5  1 -1</clus>
</clustering>
</event>
<event>
10    2  0.1133532E-006  0.1023279E+03  0.7546771E-02  0.1276230E+00
          2   -1    0    0  503    0  0.00000000000E+00  0.00000000000E+00  0.47301168433E+03  0.47301168433E+03  0.00000000000E+00 0. -1.
         -2   -1    0    0    0  501 -0.00000000000E+00 -0.00000000000E+00 -0.22071555974E+03  0.22071555974E+03  0.00000000000E+00 0.  1.
         23    2    1    2    0    0  0.24135717280E+02 -0.24620155270E+02 -0.10248452796E+03  0.14083122921E+03  0.90231212764E+02 0.  0.
         23    2    1    2    0    0 -0.72456979314E+02  0.20345404245E+02  0.18816161784E+03  0.22250560599E+03  0.91869477753E+02 0.  0.
        -11    1    3    3    0    0  0.59336676662E+01 -0.37970251480E+02 -0.11041002721E+03  0.11690732449E+03  0.00000000000E+00 0.  1.
         11    1    3    3    0    0  0.18202049614E+02  0.13350096210E+02  0.79254992547E+01  0.23923904727E+02  0.00000000000E+00 0. -1.
        -13    1    4    4    0    0 -0.13503465022E+01  0.34423521745E+02  0.21105652237E+02  0.40401124259E+02  0.00000000000E+00 0. -1.
         13    1    4    4    0    0 -0.71106632812E+02 -0.14078117500E+02  0.16705596560E+03  0.18210448173E+03  0.00000000000E+00 0.  1.
         21    1    1    2  502  501 -0.10602043118E+02 -0.20815074591E+02 -0.75975190901E+02  0.79485220519E+02  0.00000000000E+00 0. -1.
         21    1    1    2  503  502  0.58923305152E+02  0.25089825616E+02  0.24259422561E+03  0.25090518835E+03  0.00000000000E+00 0. -1.
<scales pt_clust_5="13000.00000" pt_clust_6="13000.00000" pt_clust_7="13000.00000" pt_clust_8="13000.00000" pt_clust_9="23.35959" pt_clust_10="63.52362"></scales>
<clustering>
<clus scale="   23.360">  2  9  1 -1</clus>
<clus scale="   63.524">  1 10  2 -1</clus>
<clus scale="   90.231">  5  6 -1 -1</clus>
<clus scale="   91.869">  7  8 -1 -1</clus>
<clus scale="  100.860">  2  5  1 -1</clus>
<clus scale="   63.524">  1  5  2 -1</clus>
</clustering>
</event>
<event>
10    2  0.1133532E-006  0.1351627E+03  0.7546771E-02  0.1220200E+00
         -2   -1    0    0    0  501 -0.00000000000E+00  0.00000000000E+00  0.18199000371E+03  0.18199000371E+03  0.00000000000E+00 0.  1.
          2   -1    0    0  502    0  0.00000000000E+00 -0.00000000000E+00 -0.52151490936E+03  0.52151490936E+03  0.00000000000E+00 0. -1.
         23    2    1    2    0    0 -0.12455003271E+03  0.21410520053E+02  0.10976986409E+03  0.19070776565E+03  0.91372357964E+02 0.  0.
         23    2    1    2    0    0  0.30865644807E+02  0.55989415238E+01 -0.84057690619E+02  0.12742896882E+03  0.90489836819E+02 0.  0.
        -11    1    3    3    0    0 -0.10556039323E+03  0.45432643632E+02  0.53762564936E+02  0.12687606203E+03  0.00000000000E+00 0.  1.
         11    1    3    3    0    0 -0.18989639475E+02 -0.24022123579E+02  0.56007299157E+02  0.63831703624E+02  0.00000000000E+00 0. -1.
        -13    1    4    4    0    0 -0.19388828054E+02 -0.16240471717E+02  0.20396134428E+01  0.25373994520E+02  0.00000000000E+00 0.  1.
         13    1    4    4    0    0  0.50254472861E+02  0.21839413241E+02 -0.86097304062E+02  0.10205497430E+03  0.00000000000E+00 0. -1.
         21    1    1    2  502  503  0.36885680389E+02  0.22062298479E+01 -0.42263150173E+02  0.56139065992E+02  0.00000000000E+00 0. -1.
         21    1    1    2  503  501  0.56798707512E+02 -0.29215691424E+02 -0.32297392896E+03  0.32922911261E+03  0.00000000000E+00 0. -1.
<scales pt_clust_5="13000.00000" pt_clust_6="13000.00000" pt_clust_7="13000.00000" pt_clust_8="13000.00000" pt_clust_9="36.95160" pt_clust_10="86.80172"></scales>
<clustering>
<clus scale="   36.952">  2  9  1 -1</clus>
<clus scale="   86.802">  2 10  1 -1</clus>
<clus scale="   90.490">  7  8 -1 -1</clus>
<clus scale="   91.372">  5  6 -1 -1</clus>
<clus scale="  134.568">  2  7  1 -1</clus>
<clus scale="   36.952">  2  5  1 -1</clus>
</clustering>
</event>
<event>
10    2  0.1133532E-006  0.9449319E+02  0.7546771E-02  0.1293105E+00
          2   -1    0    0  503    0  0.00000000000E+00  0.00000000000E+00  0.23224042774E+03  0.23224042774E+03  0.00000000000E+00 0. -1.
         -2   -1    0    0    0  501 -0.00000000000E+00 -0.00000000000E+00 -0.81774544478E+02  0.81774544478E+02  0.00000000000E+00 0.  1.
         23    2    1    2    0    0 -0.18338236470E+02 -0.14213289857E+02  0.18714379097E+02  0.96353036126E+02  0.91626257483E+02 0.  0.
         23    2    1    2    0    0 -0.11417131035E+02  0.21443351583E+02  0.60501301085E+02  0.11359111998E+03  0.93018099833E+02 0.  0.
        -11    1    3    3    0    0  0.33792231417E+02 -0.16239350225E+02 -0.70805645873E+01  0.38154499010E+02  0.00000000000E+00 0.  1.
         11    1    3    3    0    0 -0.52130467887E+02  0.20260603679E+01  0.25794943684E+02  0.58198537115E+02  0.00000000000E+00 0. -1.
        -13    1    4    4    0    0 -0.14629530778E+02  0.56804688162E+02  0.48496002605E+02  0.76109513444E+02  0.00000000000E+00 0. -1.
         13    1    4    4    0    0  0.32123997429E+01 -0.35361336579E+02  0.12005298480E+02  0.37481606534E+02  0.00000000000E+00 0.  1.
         21    1    1    2  502  501 -0.14199156989E+02  0.17587689529E+02  0.10043367236E+02  0.24734835912E+02  0.00000000000E+00 0.  1.
         21    1    1    2  503  502  0.43954524494E+02 -0.24817751254E+02  0.61206835847E+02  0.79335980206E+02  0.00000000000E+00 0.  1.
<scales pt_clust_5="13000.00000" pt_clust_6="13000.00000" pt_clust_7="13000.00000" pt_clust_8="13000.00000" pt_clust_9="22.60405" pt_clust_10="47.92871"></scales>
<clustering>
<clus scale="   22.604">  2  9  1 -1</clus>
<clus scale="   47.929">  1 10  2 -1</clus>
<clus scale="   91.626">  5  6 -1 -1</clus>
<clus scale="   93.018">  7  8 -1 -1</clus>
<clus scale="   93.123">  2  5  1 -1</clus>
<clus scale="   47.929">  1  5  2 -1</clus>
</clustering>
</event>
<event>
10    2  0.1133532E-006  0.1367872E+03  0.7546771E-02  0.1218029E+00
          2   -1    0    0  503    0  0.00000000000E+00  0.00000000000E+00  0.10403787576E+03  0.10403787576E+03  0.00000000000E+00 0. -1.
         -2   -1    0    0    0  501 -0.00000000000E+00 -0.00000000000E+00 -0.47467773335E+03  0.47467773335E+03  0.00000000000E+00 0.  1.
         23    2    1    2    0    0  0.42577203891E+02  0.78936996328E+02 -0.17296297402E+03  0.21478753425E+03  0.90408112512E+02 0.  0.
         23    2    1    2    0    0  0.13533913182E+02 -0.12976538774E+03 -0.16426972599E+03  0.22896119707E+03  0.91741289647E+02 0.  0.
        -11    1    3    3    0    0  0.36447043217E+02 -0.51561370290E+01 -0.25032260066E+02  0.44515017155E+02  0.00000000000E+00 0.  1.
         11    1    3    3    0    0  0.61301606738E+01  0.84093133357E+02 -0.14793071396E+03  0.17027251710E+03  0.00000000000E+00 0. -1.
        -11    1    4    4    0    0  0.40355582278E+02 -0.62924788234E+02 -0.38635695867E+02  0.84147602404E+02  0.00000000000E+00 0. -1.
         11    1    4    4    0    0 -0.26821669096E+02 -0.66840599507E+02 -0.12563403012E+03  0.14481359467E+03  0.00000000000E+00 0.  1.
         21    1    1    2  502  501 -0.26409981990E+02  0.52536108074E+01 -0.66187173642E+02  0.71455087502E+02  0.00000000000E+00 0. -1.
         21    1    1    2  503  502 -0.29701135083E+02  0.45574780606E+02  0.32780016056E+02  0.63511790284E+02  0.00000000000E+00 0. -1.
<scales pt_clust_5="13000.00000" pt_clust_6="13000.00000" pt_clust_7="13000.00000" pt_clust_8="13000.00000" pt_clust_9="26.92745" pt_clust_10="55.11609"></scales>
<clustering>
<clus scale="   26.927">  2  9  1 -1</clus>
<clus scale="   55.116">  1 10  2 -1</clus>
<clus scale="   90.408">  5  6 -1 -1</clus>
<clus scale="   91.741">  7  8 -1 -1</clus>
<clus scale="  135.897">  2  5  1 -1</clus>
<clus scale="   55.116">  1  5  2 -1</clus>
</clustering>
</event>
<event>
10    2  0.1133532E-006  0.1222669E+03  0.7546771E-02  0.1241361E+00
          1   -1    0    0  503    0  0.00000000000E+00  0.00000000000E+00  0.79004459667E+02  0.79004459667E+02  0.00000000000E+00 0. -1.
         -1   -1    0    0    0  501 -0.00000000000E+00 -0.00000000000E+00 -0.57952701031E+03  0.57952701031E+03  0.00000000000E+00 0.  1.
         23    2    1    2    0    0  0.10612211763E+03 -0.56363554875E+02 -0.17043823589E+03  0.22982685626E+03  0.96604541482E+02 0.  0.
         23    2    1    2    0    0 -0.42993164573E+02  0.35040532833E+01 -0.69143696630E+02  0.12178709176E+03  0.90501681458E+02 0.  0.
        -11    1    3    3    0    0  0.46106117328E+02  0.15014725182E+02 -0.19208818992E+02  0.52155486331E+02  0.00000000000E+00 0. -1.
         11    1    3    3    0    0  0.60016000305E+02 -0.71378280057E+02 -0.15122941690E+03  0.17767136993E+03  0.00000000000E+00 0.  1.
        -11    1    4    4    0    0 -0.15137012193E+02 -0.18736245883E+02 -0.80776689699E+02  0.84291456546E+02  0.00000000000E+00 0.  1.
         11    1    4    4    0    0 -0.27856152380E+02  0.22240299166E+02  0.11632993070E+02  0.37495635215E+02  0.00000000000E+00 0. -1.
         21    1    1    2  502  501 -0.36201889288E+02  0.31366261683E+02 -0.26757730419E+03  0.27183089022E+03  0.00000000000E+00 0. -1.
         21    1    1    2  503  502 -0.26927063772E+02  0.21493239909E+02  0.66366860623E+01  0.35086631742E+02  0.00000000000E+00 0. -1.
<scales pt_clust_5="13000.00000" pt_clust_6="13000.00000" pt_clust_7="13000.00000" pt_clust_8="13000.00000" pt_clust_9="49.15936" pt_clust_10="34.45325"></scales>
<clustering>
<clus scale="   34.453">  1 10  2 -1</clus>
<clus scale="   49.159">  2  9  1 -1</clus>
<clus scale="   90.502">  7  8 -1 -1</clus>
<clus scale="   96.605">  5  6 -1 -1</clus>
<clus scale="  117.504">  1  7  2 -1</clus>
<clus scale="   34.453">  1  5  2 -1</clus>
</clustering>
</event>
<event>
10    2  0.1133532E-006  0.2310670E+03  0.7546771E-02  0.1126076E+00
         -1   -1    0    0    0  501 -0.00000000000E+00  0.00000000000E+00  0.57510069443E+02  0.57510069443E+02  0.00000000000E+00 0.  1.
          1   -1    0    0  503    0  0.00000000000E+00 -0.00000000000E+00 -0.18176693719E+04  0.18176693719E+04  0.00000000000E+00 0. -1.
         23    2    1    2    0    0 -0.61316611847E+02  0.27211882729E+03 -0.10157561999E+04  0.10571365074E+04  0.89266760600E+02 0.  0.
         23    2    1    2    0    0  0.69597068066E+02 -0.14338822735E+03 -0.48031361134E+03  0.51435506466E+03  0.91956683722E+02 0.  0.
        -11    1    3    3    0    0 -0.38916047334E+02  0.68478247365E+02 -0.17718806995E+03  0.19390549563E+03  0.00000000000E+00 0.  1.
         11    1    3    3    0    0 -0.22400564513E+02  0.20364057992E+03 -0.83856812999E+03  0.86323101179E+03  0.00000000000E+00 0. -1.
        -13    1    4    4    0    0  0.88112256874E+02 -0.10365049466E+03 -0.40468042949E+03  0.42693494219E+03  0.00000000000E+00 0.  1.
         13    1    4    4    0    0 -0.18515188808E+02 -0.39737732687E+02 -0.75633181851E+02  0.87420122470E+02  0.00000000000E+00 0. -1.
         21    1    1    2  502  501 -0.25615650202E+01 -0.21950278081E+02 -0.39791308120E+01  0.22454616568E+02  0.00000000000E+00 0. -1.
         21    1    1    2  503  502 -0.57188911991E+01 -0.10678032186E+03 -0.26011036040E+03  0.28123325273E+03  0.00000000000E+00 0.  1.
<scales pt_clust_5="13000.00000" pt_clust_6="13000.00000" pt_clust_7="13000.00000" pt_clust_8="13000.00000" pt_clust_9="22.09924" pt_clust_10="111.75934"></scales>
<clustering>
<clus scale="   22.099">  1  9  2 -1</clus>
<clus scale="   89.267">  5  6 -1 -1</clus>
<clus scale="   91.957">  7  8 -1 -1</clus>
<clus scale="  111.759">  1 10  2 -1</clus>
<clus scale="  230.010">  1  5  2 -1</clus>
<clus scale="  231.067">  2  5  1 -1</clus>
</clustering>
</event>
<event>
10    2  0.1133532E-006  0.1681832E+03  0.7546771E-02  0.1183019E+00
          1   -1    0    0  503    0  0.00000000000E+00  0.00000000000E+00  0.28209463849E+03  0.28209463849E+03  0.00000000000E+00 0. -1.
         -1   -1    0    0    0  501 -0.00000000000E+00 -0.00000000000E+00 -0.48674352475E+03  0.48674352475E+03  0.00000000000E+00 0.  1.
         23    2    1    2    0    0 -0.22401529894E+02  0.11022687417E+03 -0.24231420533E+03  0.28186655281E+03  0.89893198632E+02 0.  0.
         23    2    1    2    0    0 -0.40315183248E+02 -0.16579013251E+03  0.18221922551E+03  0.27248461029E+03  0.10923522629E+03 0.  0.
        -11    1    3    3    0    0 -0.39263047637E+02  0.75135031112E+02 -0.85932729278E+02  0.12071161407E+03  0.00000000000E+00 0.  1.
         11    1    3    3    0    0  0.16861517743E+02  0.35091843054E+02 -0.15638147605E+03  0.16115493875E+03  0.00000000000E+00 0. -1.
        -11    1    4    4    0    0 -0.24903503059E+01 -0.13768840477E+03  0.78380715284E+02  0.15845452086E+03  0.00000000000E+00 0.  1.
         11    1    4    4    0    0 -0.37824832942E+02 -0.28101727737E+02  0.10383851023E+03  0.11403008943E+03  0.00000000000E+00 0. -1.
         21    1    1    2  502  501  0.45020251540E+02  0.15010092223E+02 -0.16056629528E+03  0.16743255686E+03  0.00000000000E+00 0. -1.
         21    1    1    2  503  502  0.17696461601E+02  0.40553166118E+02  0.16012388846E+02  0.47054443276E+02  0.00000000000E+00 0. -1.
<scales pt_clust_5="13000.00000" pt_clust_6="13000.00000" pt_clust_7="13000.00000" pt_clust_8="13000.00000" pt_clust_9="47.86446" pt_clust_10="44.24618"></scales>
<clustering>
<clus scale="   44.246">  1 10  2 -1</clus>
<clus scale="   47.864">  2  9  1 -1</clus>
<clus scale="   89.893">  5  6 -1 -1</clus>
<clus scale="  109.235">  7  8 -1 -1</clus>
<clus scale="  156.314">  2  5  1 -1</clus>
<clus scale="   44.246">  1  5  2 -1</clus>
</clustering>
</event>
<event>
10    2  0.1133532E-006  0.2141424E+03  0.7546771E-02  0.1138453E+00
         -2   -1    0    0    0  501 -0.00000000000E+00  0.00000000000E+00  0.22358978279E+03  0.22358978279E+03  0.00000000000E+00 0.  1.
          2   -1    0    0  502    0  0.00000000000E+00 -0.00000000000E+00 -0.87212280742E+03  0.87212280742E+03  0.00000000000E+00 0. -1.
         23    2    1    2    0    0  0.15159235763E+03 -0.94171643160E+02  0.74047792409E+02  0.21367554435E+03  0.91244843271E+02 0.  0.
         23    2    1    2    0    0 -0.28227927147E+03  0.79390612424E+02 -0.35658883992E+03  0.47030524409E+03  0.89704879606E+02 0.  0.
        -13    1    4    4    0    0 -0.73721182072E+02  0.50835037849E+02 -0.64912832882E+02  0.11060149019E+03  0.00000000000E+00 0.  1.
         13    1    4    4    0    0 -0.20855808939E+03  0.28555574575E+02 -0.29167600704E+03  0.35970375390E+03  0.00000000000E+00 0. -1.
        -13    1    3    3    0    0  0.15223578542E+03 -0.63989448379E+02  0.43595110320E+02  0.17079495751E+03  0.00000000000E+00 0.  1.
         13    1    3    3    0    0 -0.64342779002E+00 -0.30182194781E+02  0.30452682089E+02  0.42880586838E+02  0.00000000000E+00 0. -1.
         21    1    1    2  502  503  0.17186307573E+02 -0.41245607232E+02 -0.33157244534E+02  0.55641460702E+02  0.00000000000E+00 0. -1.
         21    1    1    2  503  501  0.11350060626E+03  0.56026637968E+02 -0.33283473259E+03  0.35609034107E+03  0.00000000000E+00 0.  1.
<scales pt_clust_5="13000.00000" pt_clust_6="13000.00000" pt_clust_7="13000.00000" pt_clust_8="13000.00000" pt_clust_9="44.68299" pt_clust_10="126.75707"></scales>
<clustering>
<clus scale="   44.683">  2  9  1 -1</clus>
<clus scale="   89.705">  5  6 -1 -1</clus>
<clus scale="   91.245">  7  8 -1 -1</clus>
<clus scale="  126.757">  2 10  1 -1</clus>
<clus scale="  213.491">  2  5  1 -1</clus>
<clus scale="   44.683">  2  5  1 -1</clus>
</clustering>
</event>
<event>
10    2  0.1133532E-006  0.2527941E+03  0.7546771E-02  0.1111687E+00
         -2   -1    0    0    0  501 -0.00000000000E+00  0.00000000000E+00  0.14710891579E+03  0.14710891579E+03  0.00000000000E+00 0.  1.
          2   -1    0    0  503    0  0.00000000000E+00 -0.00000000000E+00 -0.18978625275E+04  0.18978625275E+04  0.00000000000E+00 0. -1.
         23    2    1    2    0    0  0.19065902649E+03 -0.70477188766E+02 -0.26970050359E+03  0.35108063292E+03  0.95923670989E+02 0.  0.
         23    2    1    2    0    0 -0.23911970102E+03  0.15037067199E+03 -0.12994215363E+04  0.13330602097E+04  0.93614226103E+02 0.  0.
        -11    1    4    4    0    0 -0.21676328738E+03  0.93940292832E+02 -0.99695170686E+03  0.10245602994E+04  0.00000000000E+00 0. -1.
         11    1    4    4    0    0 -0.22356413643E+02  0.56430379162E+02 -0.30246982946E+03  0.30849991031E+03  0.00000000000E+00 0.  1.
        -13    1    3    3    0    0 -0.87479244138E+00 -0.25828912525E+02 -0.49498471489E+02  0.55839024560E+02  0.00000000000E+00 0. -1.
         13    1    3    3    0    0  0.19153381893E+03 -0.44648276241E+02 -0.22020203211E+03  0.29524160836E+03  0.00000000000E+00 0.  1.
         21    1    1    2  502  501  0.58259494669E+01 -0.53572772977E+02  0.78887789434E+02  0.95536731226E+02  0.00000000000E+00 0.  1.
         21    1    1    2  503  502  0.42634725070E+02 -0.26320710251E+02 -0.26051936122E+03  0.26529386940E+03  0.00000000000E+00 0.  1.
<scales pt_clust_5="13000.00000" pt_clust_6="13000.00000" pt_clust_7="13000.00000" pt_clust_8="13000.00000" pt_clust_9="54.04569" pt_clust_10="50.10489"></scales>
<clustering>
<clus scale="   50.105">  2 10  1 -1</clus>
<clus scale="   54.046">  1  9  2 -1</clus>
<clus scale="   93.614">  5  6 -1 -1</clus>
<clus scale="   95.924">  7  8 -1 -1</clus>
<clus scale="  251.927">  2  5  1 -1</clus>
<clus scale="   50.105">  2  5  1 -1</clus>
</clustering>
</event>
<event>
10    2  0.1133532E-006  0.9455999E+02  0.7546771E-02  0.1299766E+00
          1   -1    0    0  503    0  0.00000000000E+00  0.00000000000E+00  0.36572729653E+03  0.36572729653E+03  0.00000000000E+00 0. -1.
         -1   -1    0    0    0  501 -0.00000000000E+00 -0.00000000000E+00 -0.79982922271E+02  0.79982922271E+02  0.00000000000E+00 0.  1.
         23    2    1    2    0    0 -0.16718379737E+02  0.37894478511E+02  0.16268381467E+02  0.10142627263E+03  0.91143473829E+02 0.  0.
         23    2    1    2    0    0 -0.19559979834E+02 -0.17701676667E+02  0.27005691302E+03  0.28237835124E+03  0.78171956707E+02 0.  0.
        -11    1    4    4    0    0 -0.40036560088E+02 -0.36840964831E+02  0.17277000996E+03  0.18113436774E+03  0.00000000000E+00 0. -1.
         11    1    4    4    0    0  0.20476580254E+02  0.19139288164E+02  0.97286903052E+02  0.10124398350E+03  0.00000000000E+00 0.  1.
        -13    1    3    3    0    0 -0.53777898962E+02  0.13193668416E+02  0.58002898365E+01  0.55675655948E+02  0.00000000000E+00 0.  1.
         13    1    3    3    0    0  0.37059519225E+02  0.24700810095E+02  0.10468091631E+02  0.45750616683E+02  0.00000000000E+00 0. -1.
         21    1    1    2  502  501  0.15110189715E+02 -0.13378983403E+02 -0.22814159686E+02  0.30459824561E+02  0.00000000000E+00 0. -1.
         21    1    1    2  503  502  0.21168169856E+02 -0.68138184422E+01  0.22233239461E+02  0.31445770363E+02  0.00000000000E+00 0.  1.
<scales pt_clust_5="13000.00000" pt_clust_6="13000.00000" pt_clust_7="13000.00000" pt_clust_8="13000.00000" pt_clust_9="20.18205" pt_clust_10="23.84401"></scales>
<clustering>
<clus scale="   20.182">  2  9  1 -1</clus>
<clus scale="   23.844">  2 10  1 -1</clus>
<clus scale="   78.172">  5  6 -1 -1</clus>
<clus scale="   82.130">  1  5  2 -1</clus>
<clus scale="   91.143">  7  8 -1 -1</clus>
<clus scale="   82.130">  1  5  2 -1</clus>
</clustering>
</event>
<event>
10    2  0.1133532E-006  0.2472667E+03  0.7546771E-02  0.1115138E+00
         -1   -1    0    0    0  501 -0.00000000000E+00  0.00000000000E+00  0.74354351624E+03  0.74354351624E+03  0.00000000000E+00 0.  1.
          1   -1    0    0  503    0  0.00000000000E+00 -0.00000000000E+00 -0.12839938018E+03  0.12839938018E+03  0.00000000000E+00 0. -1.
         23    2    1    2    0    0  0.25325798452E+03 -0.11508358430E+02  0.31116073739E+03  0.41196464654E+03  0.92853736979E+02 0.  0.
         23    2    1    2    0    0 -0.20252349784E+03 -0.31063576860E+02  0.17634558523E+03  0.28532625406E+03  0.91283037000E+02 0.  0.
        -13    1    3    3    0    0  0.21556595452E+02 -0.16816683784E+02  0.47088830120E+01  0.27742769151E+02  0.00000000000E+00 0. -1.
         13    1    3    3    0    0  0.23170138906E+03  0.53083253533E+01  0.30645185438E+03  0.38422187739E+03  0.00000000000E+00 0.  1.
        -13    1    4    4    0    0 -0.12555245141E+03 -0.42202098688E+02  0.15656359173E+03  0.20507704270E+03  0.00000000000E+00 0. -1.
         13    1    4    4    0    0 -0.76971046431E+02  0.11138521828E+02  0.19781993500E+02  0.80249211361E+02  0.00000000000E+00 0.  1.
         21    1    1    2  502  501  0.33693298420E+01  0.23677964330E+02  0.11300121062E+03  0.11550442408E+03  0.00000000000E+00 0.  1.
         21    1    1    2  503  502 -0.54103816522E+02  0.18893970960E+02  0.14636602811E+02  0.59147571740E+02  0.00000000000E+00 0.  1.
<scales pt_clust_5="13000.00000" pt_clust_6="13000.00000" pt_clust_7="13000.00000" pt_clust_8="13000.00000" pt_clust_9="23.91649" pt_clust_10="57.59558"></scales>
<clustering>
<clus scale="   23.916">  1  9  2 -1</clus>
<clus scale="   57.596">  2 10  1 -1</clus>
<clus scale="   91.283">  7  8 -1 -1</clus>
<clus scale="   92.854">  5  6 -1 -1</clus>
<clus scale="  246.681">  2  7  1 -1</clus>
<clus scale="   57.596">  2  5  1 -1</clus>
</clustering>
</event>
<event>
10    2  0.1133532E-006  0.9891313E+02  0.7546771E-02  0.1282761E+00
         -2   -1    0    0    0  501 -0.00000000000E+00  0.00000000000E+00  0.66362147968E+02  0.66362147968E+02  0.00000000000E+00 0.  1.
          2   -1    0    0  503    0  0.00000000000E+00 -0.00000000000E+00 -0.31914725257E+03  0.31914725257E+03  0.00000000000E+00 0. -1.
         23    2    1    2    0    0  0.32692601392E+02 -0.10487367380E+02 -0.22706862609E+02  0.99683775035E+02  0.90788007663E+02 0.  0.
         23    2    1    2    0    0 -0.31035837476E+02  0.10175306162E+02 -0.10302011864E+03  0.14093293466E+03  0.90455442968E+02 0.  0.
        -13    1    4    4    0    0 -0.10301406569E+02 -0.40165145762E+02 -0.39418055235E+02  0.57211371159E+02  0.00000000000E+00 0.  1.
         13    1    4    4    0    0 -0.20734430907E+02  0.50340451923E+02 -0.63602063410E+02  0.83721563500E+02  0.00000000000E+00 0. -1.
        -13    1    3    3    0    0 -0.25643346735E+02  0.18790895766E+02 -0.72257129767E+01  0.32601992630E+02  0.00000000000E+00 0. -1.
         13    1    3    3    0    0  0.58335948127E+02 -0.29278263145E+02 -0.15481149633E+02  0.67081782405E+02  0.00000000000E+00 0.  1.
         21    1    1    2  502  501  0.16086152562E+02 -0.16062979827E+02 -0.90962130435E+01  0.24485193831E+02  0.00000000000E+00 0. -1.
         21    1    1    2  503  502 -0.17742916478E+02  0.16375041045E+02 -0.11796191030E+03  0.12040749701E+03  0.00000000000E+00 0.  1.
<scales pt_clust_5="13000.00000" pt_clust_6="13000.00000" pt_clust_7="13000.00000" pt_clust_8="13000.00000" pt_clust_9="22.73288" pt_clust_10="23.67098"></scales>
<clustering>
<clus scale="   22.733">  1  9  2 -1</clus>
<clus scale="   23.671">  2 10  1 -1</clus>
<clus scale="   90.455">  5  6 -1 -1</clus>
<clus scale="   90.788">  7  8 -1 -1</clus>
<clus scale="   98.608">  2  5  1 -1</clus>
<clus scale="   23.671">  2  5  1 -1</clus>
</clustering>
</event>
<event>
10    2  0.1133532E-006  0.1883172E+03  0.7546771E-02  0.1185107E+00
          2   -1    0    0  503    0  0.00000000000E+00  0.00000000000E+00  0.55563660999E+03  0.55563660999E+03  0.00000000000E+00 0. -1.
         -2   -1    0    0    0  501 -0.00000000000E+00 -0.00000000000E+00 -0.31169565432E+03  0.31169565432E+03  0.00000000000E+00 0.  1.
         23    2    1    2    0    0 -0.74232907443E+02 -0.10070948751E+03  0.26837236177E+03  0.30931246916E+03  0.89429042235E+02 0.  0.
         23    2    1    2    0    0 -0.10395169937E+02 -0.58518589946E+02  0.19600298600E+03  0.22345289890E+03  0.89339479389E+02 0.  0.
        -11    1    3    3    0    0 -0.38355865987E+02 -0.10848297502E+03  0.18019454244E+03  0.21379850665E+03  0.00000000000E+00 0. -1.
         11    1    3    3    0    0 -0.35877041455E+02  0.77734875032E+01  0.88177819335E+02  0.95513962509E+02  0.00000000000E+00 0.  1.
        -13    1    4    4    0    0 -0.25731880045E+02 -0.31927002849E+01  0.14294606218E+03  0.14527869657E+03  0.00000000000E+00 0.  1.
         13    1    4    4    0    0  0.15336710108E+02 -0.55325889661E+02  0.53056923826E+02  0.78174202328E+02  0.00000000000E+00 0. -1.
         21    1    1    2  502  501 -0.93048416312E+00  0.21154795277E+02 -0.15978263781E+03  0.16117965911E+03  0.00000000000E+00 0.  1.
         21    1    1    2  503  502  0.85558561543E+02  0.13807328218E+03 -0.60651754294E+02  0.17338723714E+03  0.00000000000E+00 0.  1.
<scales pt_clust_5="13000.00000" pt_clust_6="13000.00000" pt_clust_7="13000.00000" pt_clust_8="13000.00000" pt_clust_9="21.17525" pt_clust_10="165.72814"></scales>
<clustering>
<clus scale="   21.175">  2  9  1 -1</clus>
<clus scale="   89.339">  7  8 -1 -1</clus>
<clus scale="   89.429">  5  6 -1 -1</clus>
<clus scale="  106.277">  1  7  2 -1</clus>
<clus scale="  165.728">  2 10  1 -1</clus>
<clus scale="  106.277">  1  5  2 -1</clus>
</clustering>
</event>
<event>
10    2  0.1133532E-006  0.2036463E+03  0.7546771E-02  0.1146710E+00
          2   -1    0    0  503    0  0.00000000000E+00  0.00000000000E+00  0.46241156824E+03  0.46241156824E+03  0.00000000000E+00 0. -1.
         -2   -1    0    0    0  501 -0.00000000000E+00 -0.00000000000E+00 -0.27251410738E+03  0.27251410738E+03  0.00000000000E+00 0.  1.
         23    2    1    2    0    0  0.22101732068E+03 -0.51853160465E+02 -0.75807268568E+02  0.25604206346E+03  0.90958177212E+02 0.  0.
         23    2    1    2    0    0 -0.14857651819E+03  0.10309125328E+03  0.19548692236E+03  0.28144968776E+03  0.91082389445E+02 0.  0.
        -11    1    4    4    0    0 -0.13703273096E+03  0.73187051592E+02  0.19509542581E+03  0.24939233959E+03  0.00000000000E+00 0. -1.
         11    1    4    4    0    0 -0.11543787231E+02  0.29904201690E+02  0.39149655293E+00  0.32057348173E+02  0.00000000000E+00 0.  1.
        -13    1    3    3    0    0  0.15481119938E+03 -0.63536011520E+02 -0.85830979578E+02  0.18806990527E+03  0.00000000000E+00 0.  1.
         13    1    3    3    0    0  0.66206121297E+02  0.11682851055E+02  0.10023711010E+02  0.67972158186E+02  0.00000000000E+00 0. -1.
         21    1    1    2  502  501 -0.95952096108E+02 -0.66451675345E+02 -0.53555700745E+01  0.11683882931E+03  0.00000000000E+00 0. -1.
         21    1    1    2  503  502  0.23511293624E+02  0.15213582528E+02  0.75573377136E+02  0.80595095092E+02  0.00000000000E+00 0. -1.
<scales pt_clust_5="13000.00000" pt_clust_6="13000.00000" pt_clust_7="13000.00000" pt_clust_8="13000.00000" pt_clust_9="112.65646" pt_clust_10="28.00418"></scales>
<clustering>
<clus scale="   28.004">  1 10  2 -1</clus>
<clus scale="   90.958">  7  8 -1 -1</clus>
<clus scale="   91.082">  5  6 -1 -1</clus>
<clus scale="  112.656">  2  9  1 -1</clus>
<clus scale="  203.591">  2  7  1 -1</clus>
<clus scale="   28.004">  1  5  2 -1</clus>
</clustering>
</event>
<event>
10    2  0.1133532E-006  0.1327269E+03  0.7546771E-02  0.1224213E+00
          1   -1    0    0  503    0  0.00000000000E+00  0.00000000000E+00  0.55278786277E+03  0.55278786277E+03  0.00000000000E+00 0. -1.
         -1   -1    0    0    0  501 -0.00000000000E+00 -0.00000000000E+00 -0.63520891334E+03  0.63520891334E+03  0.00000000000E+00 0.  1.
         23    2    1    2    0    0 -0.32039489665E+02  0.94560699037E+02 -0.37627262448E+03  0.39953423872E+03  0.89879170451E+02 0.  0.
         23    2    1    2    0    0  0.81004890131E+02 -0.40555047951E+02 -0.15524579937E+03  0.20230631052E+03  0.92844390880E+02 0.  0.
        -11    1    3    3    0    0 -0.17654256302E+02 -0.15319658282E+02 -0.58764071951E+02  0.63242239427E+02  0.00000000000E+00 0. -1.
         11    1    3    3    0    0 -0.14385233363E+02  0.10988035732E+03 -0.31750855253E+03  0.33629199930E+03  0.00000000000E+00 0.  1.
        -13    1    4    4    0    0 -0.20427540415E+02 -0.14270192317E+02 -0.28577405477E+02  0.37915575955E+02  0.00000000000E+00 0. -1.
         13    1    4    4    0    0  0.10143243055E+03 -0.26284855634E+02 -0.12666839389E+03  0.16439073457E+03  0.00000000000E+00 0.  1.
         21    1    1    2  502  501  0.11511097866E+02  0.31116177099E+02 -0.58866022336E+02  0.67571668893E+02  0.00000000000E+00 0.  1.
         21    1    1    2  503  502 -0.60476498331E+02 -0.85121828186E+02  0.50796339561E+03  0.51858455797E+03  0.00000000000E+00 0. -1.
<scales pt_clust_5="13000.00000" pt_clust_6="13000.00000" pt_clust_7="13000.00000" pt_clust_8="13000.00000" pt_clust_9="33.17713" pt_clust_10="104.12069"></scales>
<clustering>
<clus scale="   33.177">  2  9  1 -1</clus>
<clus scale="   89.879">  5  6 -1 -1</clus>
<clus scale="   92.844">  7  8 -1 -1</clus>
<clus scale="  104.121">  1 10  2 -1</clus>
<clus scale="  130.670">  2  5  1 -1</clus>
<clus scale="  104.121">  1  5  2 -1</clus>
</clustering>
</event>
<event>
10    2  0.1133532E-006  0.1038035E+03  0.7546771E-02  0.1272649E+00
          2   -1    0    0  502    0  0.00000000000E+00  0.00000000000E+00  0.42911912544E+03  0.42911912544E+03  0.00000000000E+00 0. -1.
         -2   -1    0    0    0  501 -0.00000000000E+00 -0.00000000000E+00 -0.20456130039E+03  0.20456130039E+03  0.00000000000E+00 0.  1.
         23    2    1    2    0    0 -0.36995590758E+02 -0.31861126843E+02 -0.10381836351E+03  0.14648394292E+03  0.91079568469E+02 0.  0.
         23    2    1    2    0    0  0.47711430193E+02  0.19387611499E+02 -0.29302554515E+02  0.10894974054E+03  0.91428366560E+02 0.  0.
        -13    1    4    4    0    0  0.44007110318E+02 -0.38357600459E+00 -0.58677730777E+02  0.73347453795E+02  0.00000000000E+00 0.  1.
         13    1    4    4    0    0  0.37043198750E+01  0.19771187504E+02  0.29375176262E+02  0.35602286745E+02  0.00000000000E+00 0. -1.
        -13    1    3    3    0    0 -0.29177247782E+02 -0.63631487760E+02 -0.77998895240E+02  0.10480508423E+03  0.00000000000E+00 0.  1.
         13    1    3    3    0    0 -0.78183429756E+01  0.31770360917E+02 -0.25819468268E+02  0.41678858685E+02  0.00000000000E+00 0. -1.
         21    1    1    2  502  503  0.94879852222E+01 -0.32082161320E+02  0.24429635302E+02  0.41425765165E+02  0.00000000000E+00 0. -1.
         21    1    1    2  503  501 -0.20203824657E+02  0.44555676664E+02  0.33324910778E+03  0.33682097721E+03  0.00000000000E+00 0. -1.
<scales pt_clust_5="13000.00000" pt_clust_6="13000.00000" pt_clust_7="13000.00000" pt_clust_8="13000.00000" pt_clust_9="33.45575" pt_clust_10="21.26073"></scales>
<clustering>
<clus scale="   33.456">  1  9  2 -1</clus>
<clus scale="   21.261">  1 10  2 -1</clus>
<clus scale="   91.080">  7  8 -1 -1</clus>
<clus scale="   91.428">  5  6 -1 -1</clus>
<clus scale="  103.496">  2  7  1 -1</clus>
<clus scale="   33.456">  1  5  2 -1</clus>
</clustering>
</event>
<event>
10    2  0.1133532E-006  0.9863003E+02  0.7546771E-02  0.1283639E+00
          4   -1    0    0  503    0  0.00000000000E+00  0.00000000000E+00  0.61174762700E+03  0.61174762700E+03  0.00000000000E+00 0. -1.
         -4   -1    0    0    0  501 -0.00000000000E+00 -0.00000000000E+00 -0.12529525011E+03  0.12529525011E+03  0.00000000000E+00 0.  1.
         23    2    1    2    0    0 -0.36516015541E+02  0.63224039411E+02  0.80186758307E+02  0.14141313150E+03  0.90758244823E+02 0.  0.
         23    2    1    2    0    0  0.17479014065E+02 -0.12607598219E+02  0.38294581451E+03  0.39434499928E+03  0.91629766658E+02 0.  0.
        -11    1    4    4    0    0  0.54093975299E+02  0.25999309608E+01  0.23708861850E+03  0.24319525248E+03  0.00000000000E+00 0.  1.
         11    1    4    4    0    0 -0.36614961233E+02 -0.15207529180E+02  0.14585719601E+03  0.15114974680E+03  0.00000000000E+00 0. -1.
        -11    1    3    3    0    0 -0.87051626535E+01  0.25036569872E+02  0.89430537813E+02  0.93276099733E+02  0.00000000000E+00 0.  1.
         11    1    3    3    0    0 -0.27810852888E+02  0.38187469539E+02 -0.92437795062E+01  0.48137031770E+02  0.00000000000E+00 0. -1.
         21    1    1    2  502  501 -0.33235599049E+01 -0.67196906480E+02 -0.74029162322E+02  0.10003393007E+03  0.00000000000E+00 0.  1.
         21    1    1    2  503  502  0.22360561381E+02  0.16580465288E+02  0.97348966394E+02  0.10125081626E+03  0.00000000000E+00 0.  1.
<scales pt_clust_5="13000.00000" pt_clust_6="13000.00000" pt_clust_7="13000.00000" pt_clust_8="13000.00000" pt_clust_9="66.83307" pt_clust_10="27.83714"></scales>
<clustering>
<clus scale="   27.837">  1 10  2 -1</clus>
<clus scale="   66.833">  2  9  1 -1</clus>
<clus scale="   90.758">  7  8 -1 -1</clus>
<clus scale="   91.630">  5  6 -1 -1</clus>
<clus scale="   97.821">  2  7  1 -1</clus>
<clus scale="   27.837">  1  5  2 -1</clus>
</clustering>
</event>
<event>
10    2  0.1133532E-006  0.2978931E+03  0.7546771E-02  0.1086359E+00
          1   -1    0    0  503    0  0.00000000000E+00  0.00000000000E+00  0.69221476518E+03  0.69221476518E+03  0.00000000000E+00 0. -1.
         -1   -1    0    0    0  501 -0.00000000000E+00 -0.00000000000E+00 -0.20190119248E+03  0.20190119248E+03  0.00000000000E+00 0.  1.
         23    2    1    2    0    0 -0.30598759348E+03 -0.69762217840E+02  0.28442238637E+03  0.43340913257E+03  0.91935890346E+02 0.  0.
         23    2    1    2    0    0  0.25942905715E+03 -0.19497339331E+02  0.18750278333E+03  0.33317583726E+03  0.90361843932E+02 0.  0.
        -11    1    3    3    0    0 -0.22514904719E+03 -0.13273347716E+02  0.22331335678E+03  0.31739113177E+03  0.00000000000E+00 0. -1.
         11    1    3    3    0    0 -0.80838546288E+02 -0.56488870124E+02  0.61109029583E+02  0.11601800080E+03  0.00000000000E+00 0.  1.
        -13    1    4    4    0    0  0.23568243779E+03 -0.14078535707E+02  0.12730431295E+03  0.26823647169E+03  0.00000000000E+00 0.  1.
         13    1    4    4    0    0  0.23746619367E+02 -0.54188036231E+01  0.60198470382E+02  0.64939365568E+02  0.00000000000E+00 0. -1.
         21    1    1    2  502  501  0.59923781385E+02  0.62046656470E+02 -0.89308566730E+01  0.86720282261E+02  0.00000000000E+00 0.  1.
         21    1    1    2  503  502 -0.13365245063E+02  0.27212900700E+02  0.27319259676E+02  0.40810705573E+02  0.00000000000E+00 0.  1.
<scales pt_clust_5="13000.00000" pt_clust_6="13000.00000" pt_clust_7="13000.00000" pt_clust_8="13000.00000" pt_clust_9="86.88362" pt_clust_10="30.31785"></scales>
<clustering>
<clus scale="   30.318">  1 10  2 -1</clus>
<clus scale="   86.884">  2  9  1 -1</clus>
<clus scale="   90.362">  7  8 -1 -1</clus>
<clus scale="   91.936">  5  6 -1 -1</clus>
<clus scale="  297.411">  1  7  2 -1</clus>
<clus scale="   30.318">  1  5  2 -1</clus>
</clustering>
</event>
<event>
10    2  0.1133532E-006  0.1030276E+03  0.7546771E-02  0.1275424E+00
          2   -1    0    0  503    0  0.00000000000E+00  0.00000000000E+00  0.39168830342E+03  0.39168830342E+03  0.00000000000E+00 0. -1.
         -2   -1    0    0    0  501 -0.00000000000E+00 -0.00000000000E+00 -0.36568883631E+03  0.36568883631E+03  0.00000000000E+00 0.  1.
         23    2    1    2    0    0 -0.51556239559E+02 -0.94317939045E+01 -0.30527716759E+03  0.32190464934E+03  0.87643879648E+02 0.  0.
         23    2    1    2    0    0  0.10700936542E+03 -0.60659564556E+00  0.26830733762E+03  0.30276209665E+03  0.90690062858E+02 0.  0.
        -11    1    4    4    0    0  0.63756643353E+02  0.75478627116E+01  0.24436251835E+03  0.25265573450E+03  0.00000000000E+00 0. -1.
         11    1    4    4    0    0  0.43252722071E+02 -0.81544583571E+01  0.23944819266E+02  0.50106362145E+02  0.00000000000E+00 0.  1.
        -11    1    3    3    0    0 -0.30779629676E+02  0.29215356115E+02 -0.23682221598E+03  0.24059444012E+03  0.00000000000E+00 0.  1.
         11    1    3    3    0    0 -0.20776609883E+02 -0.38647150020E+02 -0.68454951614E+02  0.81310209220E+02  0.00000000000E+00 0. -1.
         21    1    1    2  502  501  0.14541042456E+02 -0.19032211373E+02 -0.11400235225E+02  0.26526069227E+02  0.00000000000E+00 0. -1.
         21    1    1    2  503  502 -0.69994168321E+02  0.29070600923E+02  0.74369532315E+02  0.10618432452E+03  0.00000000000E+00 0.  1.
<scales pt_clust_5="13000.00000" pt_clust_6="13000.00000" pt_clust_7="13000.00000" pt_clust_8="13000.00000" pt_clust_9="23.95135" pt_clust_10="74.84206"></scales>
<clustering>
<clus scale="   23.951">  2  9  1 -1</clus>
<clus scale="   74.842">  1 10  2 -1</clus>
<clus scale="   87.644">  7  8 -1 -1</clus>
<clus scale="   90.690">  5  6 -1 -1</clus>
<clus scale="  100.357">  2  7  1 -1</clus>
<clus scale="   74.842">  1  5  2 -1</clus>
</clustering>
</event>
<event>
10    2  0.1133532E-006  0.1684250E+03  0.7546771E-02  0.1179724E+00
          2   -1    0    0  503    0  0.00000000000E+00  0.00000000000E+00  0.12319243039E+04  0.12319243039E+04  0.00000000000E+00 0. -1.
         -2   -1    0    0    0  501 -0.00000000000E+00 -0.00000000000E+00 -0.50645493339E+02  0.50645493339E+02  0.00000000000E+00 0.  1.
         23    2    1    2    0    0 -0.86380802450E+02  0.14846309295E+03  0.25128148915E+03  0.31834696097E+03  0.93270937428E+02 0.  0.
         23    2    1    2    0    0  0.58606163438E+02 -0.80867370360E+02  0.69266916642E+03  0.70581919072E+03  0.91738442858E+02 0.  0.
        -11    1    3    3    0    0 -0.22207622609E+02 -0.82499978268E+00  0.76652298024E+02  0.79808733351E+02  0.00000000000E+00 0. -1.
         11    1    3    3    0    0 -0.64173179840E+02  0.14928809273E+03  0.17462919113E+03  0.23853822762E+03  0.00000000000E+00 0.  1.
        -13    1    4    4    0    0  0.66472548964E+02 -0.13893720115E+02  0.32540046327E+03  0.33241103580E+03  0.00000000000E+00 0.  1.
         13    1    4    4    0    0 -0.78663855257E+01 -0.66973650246E+02  0.36726870315E+03  0.37340815492E+03  0.00000000000E+00 0. -1.
         21    1    1    2  502  501  0.28171723665E+02 -0.11110828767E+02  0.26832918837E+02  0.40461117922E+02  0.00000000000E+00 0. -1.
         21    1    1    2  503  502 -0.39708465387E+00 -0.56484893821E+02  0.21049523613E+03  0.21794252760E+03  0.00000000000E+00 0. -1.
<scales pt_clust_5="13000.00000" pt_clust_6="13000.00000" pt_clust_7="13000.00000" pt_clust_8="13000.00000" pt_clust_9="30.28360" pt_clust_10="57.46348"></scales>
<clustering>
<clus scale="   30.284">  2  9  1 -1</clus>
<clus scale="   57.463">  1 10  2 -1</clus>
<clus scale="   91.738">  7  8 -1 -1</clus>
<clus scale="   93.271">  5  6 -1 -1</clus>
<clus scale="  167.581">  1  7  2 -1</clus>
<clus scale="   57.463">  1  5  2 -1</clus>
</clustering>
</event>
<event>
10    2  0.1133532E-006  0.9529742E+02  0.7546771E-02  0.1293231E+00
         -1   -1    0    0    0  501 -0.00000000000E+00  0.00000000000E+00  0.39867769101E+03  0.39867769101E+03  0.00000000000E+00 0.  1.
          1   -1    0    0  503    0  0.00000000000E+00 -0.00000000000E+00 -0.20630134710E+03  0.20630134710E+03  0.00000000000E+00 0. -1.
         23    2    1    2    0    0 -0.21130646453E+02 -0.17255262015E+02  0.32331381551E+03  0.33809689809E+03  0.95044415475E+02 0.  0.
         23    2    1    2    0    0 -0.17716083577E+02 -0.30152726523E+02 -0.30675403948E+02  0.10158311747E+03  0.90305607879E+02 0.  0.
        -11    1    4    4    0    0  0.17218144353E+02 -0.49341189770E+02 -0.16642919808E+01  0.52285632545E+02  0.00000000000E+00 0.  1.
         11    1    4    4    0    0 -0.34934227930E+02  0.19188463246E+02 -0.29011111968E+02  0.49297484930E+02  0.00000000000E+00 0. -1.
        -11    1    3    3    0    0 -0.43791435012E+02  0.25268371513E+02  0.17448242121E+03  0.18165983511E+03  0.00000000000E+00 0. -1.
         11    1    3    3    0    0  0.22660788559E+02 -0.42523633527E+02  0.14883139430E+03  0.15643706298E+03  0.00000000000E+00 0.  1.
         21    1    1    2  502  501  0.21116273789E+02  0.47690882179E+01  0.24245587022E+02  0.32503687655E+02  0.00000000000E+00 0.  1.
         21    1    1    2  503  502  0.17730456242E+02  0.42638900320E+02 -0.12450765467E+03  0.13279533490E+03  0.00000000000E+00 0. -1.
<scales pt_clust_5="13000.00000" pt_clust_6="13000.00000" pt_clust_7="13000.00000" pt_clust_8="13000.00000" pt_clust_9="21.64812" pt_clust_10="46.31883"></scales>
<clustering>
<clus scale="   21.648">  1  9  2 -1</clus>
<clus scale="   46.319">  2 10  1 -1</clus>
<clus scale="   90.306">  5  6 -1 -1</clus>
<clus scale="   90.572">  2  5  1 -1</clus>
<clus scale="   95.044">  7  8 -1 -1</clus>
<clus scale="   46.319">  2  5  1 -1</clus>
</clustering>
</event>
<event>
10    2  0.1133532E-006  0.1263460E+03  0.7546771E-02  0.1233164E+00
         -2   -1    0    0    0  501 -0.00000000000E+00  0.00000000000E+00  0.15118449576E+03  0.15118449576E+03  0.00000000000E+00 0.  1.
          2   -1    0    0  503    0  0.00000000000E+00 -0.00000000000E+00 -0.37442271198E+03  0.37442271198E+03  0.00000000000E+00 0. -1.
         23    2    1    2    0    0  0.18822538816E+02 -0.58427778330E+02 -0.46262828398E+02  0.11924726894E+03  0.91167804685E+02 0.  0.
         23    2    1    2    0    0 -0.56313565666E+02  0.11221819844E+03 -0.47643176151E+02  0.16268167594E+03  0.91822185298E+02 0.  0.
        -13    1    3    3    0    0 -0.34719864836E+02 -0.40437878914E+02 -0.19614055415E+02  0.56792624830E+02  0.00000000000E+00 0. -1.
         13    1    3    3    0    0  0.53542403652E+02 -0.17989899417E+02 -0.26648772983E+02  0.62454644113E+02  0.00000000000E+00 0.  1.
        -13    1    4    4    0    0  0.13845058064E+02  0.39943444068E+02  0.14067841767E+02  0.44554107878E+02  0.00000000000E+00 0.  1.
         13    1    4    4    0    0 -0.70158623730E+02  0.72274754371E+02 -0.61711017918E+02  0.11812756806E+03  0.00000000000E+00 0. -1.
         21    1    1    2  502  501  0.13327194928E+02  0.30840124531E+02  0.40363693502E+02  0.52516237097E+02  0.00000000000E+00 0.  1.
         21    1    1    2  503  502  0.24163831922E+02 -0.84630544640E+02 -0.16969590518E+03  0.19116202576E+03  0.00000000000E+00 0.  1.
<scales pt_clust_5="13000.00000" pt_clust_6="13000.00000" pt_clust_7="13000.00000" pt_clust_8="13000.00000" pt_clust_9="33.59654" pt_clust_10="85.37668"></scales>
<clustering>
<clus scale="   33.597">  1  9  2 -1</clus>
<clus scale="   85.377">  2 10  1 -1</clus>
<clus scale="   91.168">  5  6 -1 -1</clus>
<clus scale="   91.822">  7  8 -1 -1</clus>
<clus scale="  125.871">  1  5  2 -1</clus>
<clus scale="   85.377">  2  5  1 -1</clus>
</clustering>
</event>
<event>
10    2  0.1133532E-006  0.9619466E+02  0.7546771E-02  0.1291771E+00
          2   -1    0    0  503    0  0.00000000000E+00  0.00000000000E+00  0.51991693696E+03  0.51991693696E+03  0.00000000000E+00 0. -1.
         -2   -1    0    0    0  501 -0.00000000000E+00 -0.00000000000E+00 -0.67402038357E+02  0.67402038357E+02  0.00000000000E+00 0.  1.
         23    2    1    2    0    0 -0.62187223116E+02 -0.47977155981E+02  0.95232187957E+02  0.15048884997E+03  0.86073608767E+02 0.  0.
         23    2    1    2    0    0  0.14049972233E+02 -0.34323767607E+02  0.23960715316E+03  0.25988623713E+03  0.93561453930E+02 0.  0.
        -13    1    4    4    0    0  0.31211994865E+02  0.19848770663E+02  0.51663677022E+02  0.63539734369E+02  0.00000000000E+00 0.  1.
         13    1    4    4    0    0 -0.17162022631E+02 -0.54172538270E+02  0.18794347614E+03  0.19634650276E+03  0.00000000000E+00 0. -1.
        -13    1    3    3    0    0 -0.73055123196E+01  0.19394465459E+02  0.46385120841E+02  0.50804480473E+02  0.00000000000E+00 0.  1.
         13    1    3    3    0    0 -0.54881710797E+02 -0.67371621440E+02  0.48847067116E+02  0.99684369494E+02  0.00000000000E+00 0. -1.
         21    1    1    2  502  501  0.65239085376E+02  0.62196126671E+02  0.47324235027E+02  0.10180412396E+03  0.00000000000E+00 0.  1.
         21    1    1    2  503  502 -0.17101834493E+02  0.20104796917E+02  0.70351322461E+02  0.75139764267E+02  0.00000000000E+00 0. -1.
<scales pt_clust_5="13000.00000" pt_clust_6="13000.00000" pt_clust_7="13000.00000" pt_clust_8="13000.00000" pt_clust_9="90.49198" pt_clust_10="26.39461"></scales>
<clustering>
<clus scale="   26.395">  1 10  2 -1</clus>
<clus scale="   86.074">  7  8 -1 -1</clus>
<clus scale="   90.492">  2  9  1 -1</clus>
<clus scale="   90.492">  2  7  1 -1</clus>
<clus scale="   93.561">  5  6 -1 -1</clus>
<clus scale="   26.395">  1  5  2 -1</clus>
</clustering>
</event>
<event>
10    2  0.1133532E-006  0.9954283E+02  0.7546771E-02  0.1282526E+00
          2   -1    0    0  503    0  0.00000000000E+00  0.00000000000E+00  0.25569847659E+03  0.25569847659E+03  0.00000000000E+00 0. -1.
         -2   -1    0    0    0  501 -0.00000000000E+00 -0.00000000000E+00 -0.15754417106E+03  0.15754417106E+03  0.00000000000E+00 0.  1.
         23    2    1    2    0    0 -0.41329851779E+02 -0.29141974185E+02  0.66119122004E+02  0.12210750704E+03  0.89336967006E+02 0.  0.
         23    2    1    2    0    0  0.36275123189E+02 -0.38526010161E+02  0.87391098155E+02  0.13741530032E+03  0.91900069116E+02 0.  0.
        -11    1    3    3    0    0 -0.57311507630E+02 -0.47137375296E+01  0.72187006392E+02  0.92291885451E+02  0.00000000000E+00 0. -1.
         11    1    3    3    0    0  0.15981655851E+02 -0.24428236655E+02 -0.60678843882E+01  0.29815621590E+02  0.00000000000E+00 0.  1.
        -11    1    4    4    0    0  0.19156712570E+02  0.28624345204E+02  0.43101478474E+02  0.55173093275E+02  0.00000000000E+00 0.  1.
         11    1    4    4    0    0  0.17118410620E+02 -0.67150355366E+02  0.44289619681E+02  0.82242207043E+02  0.00000000000E+00 0. -1.
         21    1    1    2  502  501  0.14073222383E+02  0.45615248222E+02 -0.95654718695E+02  0.10690477851E+03  0.00000000000E+00 0.  1.
         21    1    1    2  503  502 -0.90184937938E+01  0.22052736124E+02  0.40298804067E+02  0.46815061787E+02  0.00000000000E+00 0.  1.
<scales pt_clust_5="13000.00000" pt_clust_6="13000.00000" pt_clust_7="13000.00000" pt_clust_8="13000.00000" pt_clust_9="48.22677" pt_clust_10="23.82554"></scales>
<clustering>
<clus scale="   23.826">  1 10  2 -1</clus>
<clus scale="   48.227">  2  9  1 -1</clus>
<clus scale="   89.337">  5  6 -1 -1</clus>
<clus scale="   91.900">  7  8 -1 -1</clus>
<clus scale="   97.182">  2  5  1 -1</clus>
<clus scale="   23.826">  1  5  2 -1</clus>
</clustering>
</event>
<event>
10    2  0.1133532E-006  0.1199496E+03  0.7546771E-02  0.1243688E+00
         -1   -1    0    0    0  501 -0.00000000000E+00  0.00000000000E+00  0.32087740846E+03  0.32087740846E+03  0.00000000000E+00 0.  1.
          1   -1    0    0  503    0  0.00000000000E+00 -0.00000000000E+00 -0.96549792329E+03  0.96549792329E+03  0.00000000000E+00 0. -1.
         23    2    1    2    0    0  0.37708780740E+02  0.19932752267E+02  0.23865325452E+03  0.25948375769E+03  0.92505015296E+02 0.  0.
         23    2    1    2    0    0 -0.37278215861E+02 -0.74527797040E+02 -0.49952667306E+03  0.51452505202E+03  0.90912453192E+02 0.  0.
        -11    1    4    4    0    0 -0.66166844110E+02 -0.48087409384E+02 -0.38152997091E+03  0.39019939634E+03  0.00000000000E+00 0. -1.
         11    1    4    4    0    0  0.28888628249E+02 -0.26440387655E+02 -0.11799670215E+03  0.12432565567E+03  0.00000000000E+00 0.  1.
        -11    1    3    3    0    0 -0.27322235434E+02  0.46220024876E+01  0.32159189429E+02  0.42450923675E+02  0.00000000000E+00 0. -1.
         11    1    3    3    0    0  0.65031016174E+02  0.15310749779E+02  0.20649406509E+03  0.21703283402E+03  0.00000000000E+00 0.  1.
         21    1    1    2  502  501  0.36677445913E+02  0.49625001938E+01  0.56629052026E+02  0.67651393040E+02  0.00000000000E+00 0.  1.
         21    1    1    2  503  502 -0.37108010793E+02  0.49632544579E+02 -0.44037614832E+03  0.44471512900E+03  0.00000000000E+00 0. -1.
<scales pt_clust_5="13000.00000" pt_clust_6="13000.00000" pt_clust_7="13000.00000" pt_clust_8="13000.00000" pt_clust_9="37.01164" pt_clust_10="61.82068"></scales>
<clustering>
<clus scale="   37.012">  1  9  2 -1</clus>
<clus scale="   61.821">  2 10  1 -1</clus>
<clus scale="   90.912">  5  6 -1 -1</clus>
<clus scale="   92.505">  7  8 -1 -1</clus>
<clus scale="  118.726">  2  5  1 -1</clus>
<clus scale="   61.821">  2  5  1 -1</clus>
</clustering>
</event>
<event>
10    2  0.1133532E-006  0.8755018E+03  0.7546771E-02  0.9751191E-01
          1   -1    0    0  503    0  0.00000000000E+00  0.00000000000E+00  0.24064014311E+04  0.24064014311E+04  0.00000000000E+00 0. -1.
         -1   -1    0    0    0  501 -0.00000000000E+00 -0.00000000000E+00 -0.14705191948E+04  0.14705191948E+04  0.00000000000E+00 0.  1.
         23    2    1    2    0    0 -0.29923816022E+03  0.77481581477E+02  0.12438017099E+02  0.32215487658E+03  0.89900991286E+02 0.  0.
         23    2    1    2    0    0 -0.11362028081E+03 -0.86508898029E+03 -0.10341907612E+04  0.13561266831E+04  0.90777409574E+02 0.  0.
        -11    1    4    4    0    0 -0.12624560743E+03 -0.81242923483E+03 -0.95455041142E+03  0.12598197105E+04  0.00000000000E+00 0.  1.
         11    1    4    4    0    0  0.12625326625E+02 -0.52659745465E+02 -0.79640349737E+02  0.96306972598E+02  0.00000000000E+00 0. -1.
        -11    1    3    3    0    0 -0.14803625802E+03  0.74524675788E+02  0.34597134928E+02  0.16930925177E+03  0.00000000000E+00 0.  1.
         11    1    3    3    0    0 -0.15120190220E+03  0.29569056888E+01 -0.22159117828E+02  0.15284562481E+03  0.00000000000E+00 0. -1.
         21    1    1    2  502  501  0.25014518078E+02  0.43647404427E+01 -0.22668586403E+02  0.34038829053E+02  0.00000000000E+00 0.  1.
         21    1    1    2  503  502  0.38784392295E+03  0.78324265837E+03  0.19803035668E+04  0.21646002372E+04  0.00000000000E+00 0. -1.
<scales pt_clust_5="13000.00000" pt_clust_6="13000.00000" pt_clust_7="13000.00000" pt_clust_8="13000.00000" pt_clust_9="25.39246" pt_clust_10="870.78290"></scales>
<clustering>
<clus scale="   25.392">  2  9  1 -1</clus>
<clus scale="   89.901">  7  8 -1 -1</clus>
<clus scale="   90.777">  5  6 -1 -1</clus>
<clus scale="  319.533">  2  7  1 -1</clus>
<clus scale="  870.783">  1 10  2 -1</clus>
<clus scale="  870.783">  1  5  2 -1</clus>
</clustering>
</event>
<event>
10    2  0.1133532E-006  0.2027293E+03  0.7546771E-02  0.1148235E+00
          2   -1    0    0  503    0  0.00000000000E+00  0.00000000000E+00  0.68998178301E+03  0.68998178301E+03  0.00000000000E+00 0. -1.
         -2   -1    0    0    0  501 -0.00000000000E+00 -0.00000000000E+00 -0.19448441433E+03  0.19448441433E+03  0.00000000000E+00 0.  1.
         23    2    1    2    0    0 -0.22004011556E+03 -0.40971631173E+02  0.16621058990E+03  0.29157504717E+03  0.85403284006E+02 0.  0.
         23    2    1    2    0    0  0.12232733163E+03  0.87826817007E+02  0.14034567929E+03  0.22619029670E+03  0.93742278494E+02 0.  0.
        -11    1    4    4    0    0  0.10778351750E+03  0.45628771289E+02  0.53807756245E+02  0.12881982008E+03  0.00000000000E+00 0.  1.
         11    1    4    4    0    0  0.14543814127E+02  0.42198045718E+02  0.86537923041E+02  0.97370476614E+02  0.00000000000E+00 0. -1.
        -13    1    3    3    0    0 -0.16712968617E+03 -0.42646193684E+01  0.15128342755E+03  0.22547105009E+03  0.00000000000E+00 0.  1.
         13    1    3    3    0    0 -0.52910429383E+02 -0.36707011804E+02  0.14927162353E+02  0.66103997073E+02  0.00000000000E+00 0. -1.
         21    1    1    2  502  501  0.74314065847E+02 -0.69772947866E+02 -0.58212673593E+02  0.11738637060E+03  0.00000000000E+00 0.  1.
         21    1    1    2  503  502  0.23398718080E+02  0.22917762032E+02  0.24715377308E+03  0.24931448288E+03  0.00000000000E+00 0. -1.
<scales pt_clust_5="13000.00000" pt_clust_6="13000.00000" pt_clust_7="13000.00000" pt_clust_8="13000.00000" pt_clust_9="102.05090" pt_clust_10="32.75246"></scales>
<clustering>
<clus scale="   32.752">  1 10  2 -1</clus>
<clus scale="   85.403">  7  8 -1 -1</clus>
<clus scale="   93.742">  5  6 -1 -1</clus>
<clus scale="  102.051">  2  9  1 -1</clus>
<clus scale="  199.011">  2  7  1 -1</clus>
<clus scale="   32.752">  1  5  2 -1</clus>
</clustering>
</event>
<event>
10    2  0.1133532E-006  0.9359471E+02  0.7546771E-02  0.1296537E+00
         -1   -1    0    0    0  501 -0.00000000000E+00  0.00000000000E+00  0.42905899814E+03  0.42905899814E+03  0.00000000000E+00 0.  1.
          1   -1    0    0  503    0  0.00000000000E+00 -0.00000000000E+00 -0.82720855017E+02  0.82720855017E+02  0.00000000000E+00 0. -1.
         23    2    1    2    0    0 -0.30496137578E+02 -0.17637366390E+02  0.32029151240E+02  0.10280864877E+03  0.91118936734E+02 0.  0.
         23    2    1    2    0    0 -0.76907127198E+01  0.18974904945E+02  0.24681283467E+02  0.93030191940E+02  0.87328441982E+02 0.  0.
        -11    1    3    3    0    0 -0.56660170360E+02 -0.14017137228E+02  0.44695236119E+02  0.73515434931E+02  0.00000000000E+00 0. -1.
         11    1    3    3    0    0  0.26164032782E+02 -0.36202291621E+01 -0.12666084879E+02  0.29293213835E+02  0.00000000000E+00 0.  1.
        -13    1    4    4    0    0 -0.76430961621E+01 -0.25387919958E+02  0.38337936343E+02  0.46612881930E+02  0.00000000000E+00 0. -1.
         13    1    4    4    0    0 -0.47616557793E-01  0.44362824904E+02 -0.13656652876E+02  0.46417310010E+02  0.00000000000E+00 0.  1.
         21    1    1    2  502  501  0.52191957046E+02 -0.27883015853E+02  0.27721835891E+03  0.28346336883E+03  0.00000000000E+00 0.  1.
         21    1    1    2  503  502 -0.14005106748E+02  0.26545477298E+02  0.12409349511E+02  0.32477643623E+02  0.00000000000E+00 0. -1.
<scales pt_clust_5="13000.00000" pt_clust_6="13000.00000" pt_clust_7="13000.00000" pt_clust_8="13000.00000" pt_clust_9="58.10965" pt_clust_10="30.01342"></scales>
<clustering>
<clus scale="   30.013">  2 10  1 -1</clus>
<clus scale="   58.110">  1  9  2 -1</clus>
<clus scale="   87.328">  7  8 -1 -1</clus>
<clus scale="   89.909">  2  7  1 -1</clus>
<clus scale="   91.119">  5  6 -1 -1</clus>
<clus scale="   30.013">  2  5  1 -1</clus>
</clustering>
</event>
<event>
10    2  0.1133532E-006  0.1305432E+03  0.7546771E-02  0.1229452E+00
          1   -1    0    0  503    0  0.00000000000E+00  0.00000000000E+00  0.22504139871E+03  0.22504139871E+03  0.00000000000E+00 0. -1.
         -1   -1    0    0    0  501 -0.00000000000E+00 -0.00000000000E+00 -0.33268743395E+03  0.33268743395E+03  0.00000000000E+00 0.  1.
         23    2    1    2    0    0  0.71143925287E+02 -0.57821351326E+02 -0.52773491398E+02  0.13923180277E+03  0.90530032219E+02 0.  0.
         23    2    1    2    0    0 -0.59816424303E+02  0.37048665682E+02 -0.98004062458E+02  0.15690061527E+03  0.10031150766E+03 0.  0.
        -11    1    3    3    0    0  0.55371295495E+02  0.11039122383E+02 -0.34847989746E+02  0.66349265084E+02  0.00000000000E+00 0.  1.
         11    1    3    3    0    0  0.15772629792E+02 -0.68860473709E+02 -0.17925501651E+02  0.72882537685E+02  0.00000000000E+00 0. -1.
        -13    1    4    4    0    0 -0.81257578610E+02  0.81498602659E+01 -0.46208285918E+02  0.93831870873E+02  0.00000000000E+00 0.  1.
         13    1    4    4    0    0  0.21441154307E+02  0.28898805416E+02 -0.51795776540E+02  0.63068744397E+02  0.00000000000E+00 0. -1.
         21    1    1    2  502  501 -0.53177556036E+02  0.13361058014E+02 -0.99041869285E+02  0.11320628167E+03  0.00000000000E+00 0.  1.
         21    1    1    2  503  502  0.41850055052E+02  0.74116276299E+01  0.14217338790E+03  0.14839013296E+03  0.00000000000E+00 0. -1.
<scales pt_clust_5="13000.00000" pt_clust_6="13000.00000" pt_clust_7="13000.00000" pt_clust_8="13000.00000" pt_clust_9="51.40990" pt_clust_10="42.50129"></scales>
<clustering>
<clus scale="   42.501">  1 10  2 -1</clus>
<clus scale="   51.410">  2  9  1 -1</clus>
<clus scale="   90.530">  5  6 -1 -1</clus>
<clus scale="  100.312">  7  8 -1 -1</clus>
<clus scale="  123.186">  2  5  1 -1</clus>
<clus scale="   42.501">  1  5  2 -1</clus>
</clustering>
</event>
<event>
10    2  0.1133532E-006  0.1040093E+03  0.7546771E-02  0.1274739E+00
         -2   -1    0    0    0  501 -0.00000000000E+00  0.00000000000E+00  0.75402061696E+02  0.75402061696E+02  0.00000000000E+00 0.  1.
          2   -1    0    0  503    0  0.00000000000E+00 -0.00000000000E+00 -0.32668379466E+03  0.32668379466E+03  0.00000000000E+00 0. -1.
         23    2    1    2    0    0  0.17418173160E+02  0.56560275995E+01 -0.31722102594E+02  0.98570309449E+02  0.91511915658E+02 0.  0.
         23    2    1    2    0    0 -0.28061900111E+01 -0.64160259281E+02 -0.19554327245E+03  0.22756622563E+03  0.97081419809E+02 0.  0.
        -11    1    4    4    0    0 -0.27613292940E+02 -0.43075371667E+01 -0.78850937197E+01  0.29038311356E+02  0.00000000000E+00 0.  1.
         11    1    4    4    0    0  0.24807102929E+02 -0.59852722114E+02 -0.18765817873E+03  0.19852791427E+03  0.00000000000E+00 0. -1.
        -11    1    3    3    0    0  0.48797786818E+02 -0.55284623575E+01 -0.41015735595E+02  0.63984986214E+02  0.00000000000E+00 0.  1.
         11    1    3    3    0    0 -0.31379613658E+02  0.11184489957E+02  0.92936330015E+01  0.34585323235E+02  0.00000000000E+00 0. -1.
         21    1    1    2  502  501 -0.57818075373E+01  0.36047597259E+02  0.64612860678E+01  0.37075689936E+02  0.00000000000E+00 0. -1.
         21    1    1    2  503  502 -0.88301756118E+01  0.22456634422E+02 -0.30477643991E+02  0.38873631348E+02  0.00000000000E+00 0. -1.
<scales pt_clust_5="13000.00000" pt_clust_6="13000.00000" pt_clust_7="13000.00000" pt_clust_8="13000.00000" pt_clust_9="37.74494" pt_clust_10="24.13032"></scales>
<clustering>
<clus scale="   24.130">  2 10  1 -1</clus>
<clus scale="   37.745">  1  9  2 -1</clus>
<clus scale="   91.512">  7  8 -1 -1</clus>
<clus scale="   97.081">  5  6 -1 -1</clus>
<clus scale="   98.831">  1  7  2 -1</clus>
<clus scale="   24.130">  2  5  1 -1</clus>
</clustering>
</event>
<event>
10    2  0.1133532E-006  0.1006151E+03  0.7546771E-02  0.1279286E+00
          1   -1    0    0  503    0  0.00000000000E+00  0.00000000000E+00  0.48551362735E+02  0.48551362735E+02  0.00000000000E+00 0. -1.
         -1   -1    0    0    0  501 -0.00000000000E+00 -0.00000000000E+00 -0.60179842953E+03  0.60179842953E+03  0.00000000000E+00 0.  1.
         23    2    1    2    0    0  0.22293012164E+02  0.67456641582E+02 -0.25979159173E+03  0.28463334935E+03  0.92071143914E+02 0.  0.
         23    2    1    2    0    0 -0.29740849631E+02  0.62953632675E+00 -0.19143126789E+03  0.21424556071E+03  0.91489428386E+02 0.  0.
        -11    1    3    3    0    0 -0.18294119489E+02  0.32822461926E+02 -0.20401296451E+03  0.20744463961E+03  0.00000000000E+00 0.  1.
         11    1    3    3    0    0  0.40587131653E+02  0.34634179656E+02 -0.55778627221E+02  0.77188709738E+02  0.00000000000E+00 0. -1.
        -13    1    4    4    0    0 -0.27554435458E+02 -0.42223321554E+02 -0.12888511622E+03  0.13839591388E+03  0.00000000000E+00 0.  1.
         13    1    4    4    0    0 -0.21864141724E+01  0.42852857881E+02 -0.62546151673E+02  0.75849646832E+02  0.00000000000E+00 0. -1.
         21    1    1    2  502  501 -0.24374082407E+01 -0.38007935151E+02 -0.11198150356E+03  0.11828102651E+03  0.00000000000E+00 0.  1.
         21    1    1    2  503  502  0.98852457071E+01 -0.30078242758E+02  0.99572963799E+01  0.33189855698E+02  0.00000000000E+00 0.  1.
<scales pt_clust_5="13000.00000" pt_clust_6="13000.00000" pt_clust_7="13000.00000" pt_clust_8="13000.00000" pt_clust_9="41.53951" pt_clust_10="31.66100"></scales>
<clustering>
<clus scale="   31.661">  1 10  2 -1</clus>
<clus scale="   41.540">  2  9  1 -1</clus>
<clus scale="   91.489">  7  8 -1 -1</clus>
<clus scale="   92.071">  5  6 -1 -1</clus>
<clus scale="  100.083">  1  7  2 -1</clus>
<clus scale="   31.661">  1  5  2 -1</clus>
</clustering>
</event>
<event>
10    2  0.1133532E-006  0.1488554E+03  0.7546771E-02  0.1202292E+00
         -3   -1    0    0    0  501 -0.00000000000E+00  0.00000000000E+00  0.42210972825E+03  0.42210972825E+03  0.00000000000E+00 0.  1.
          3   -1    0    0  503    0  0.00000000000E+00 -0.00000000000E+00 -0.32280986835E+03  0.32280986835E+03  0.00000000000E+00 0. -1.
         23    2    1    2    0    0 -0.36255464024E+02  0.95606694662E+02  0.27905241213E+03  0.31075968254E+03  0.90808770728E+02 0.  0.
         23    2    1    2    0    0  0.52799088194E+02 -0.11048844641E+03 -0.25564134121E+03  0.29829417331E+03  0.92905747905E+02 0.  0.
        -11    1    4    4    0    0  0.47805138433E+02 -0.51750362237E+02 -0.55602383821E+02  0.89749965676E+02  0.00000000000E+00 0.  1.
         11    1    4    4    0    0  0.49939497601E+01 -0.58738084175E+02 -0.20003895739E+03  0.20854420764E+03  0.00000000000E+00 0. -1.
        -11    1    3    3    0    0 -0.34195989943E+02 -0.60017836542E+01  0.61042076891E+02  0.70224798229E+02  0.00000000000E+00 0.  1.
         11    1    3    3    0    0 -0.20594740810E+01  0.10160847832E+03  0.21801033524E+03  0.24053488431E+03  0.00000000000E+00 0. -1.
         21    1    1    2  502  501  0.11339320651E+02  0.19287525080E+02  0.97676741240E+02  0.10020645985E+03  0.00000000000E+00 0.  1.
         21    1    1    2  503  502 -0.27882944821E+02 -0.44057733298E+01 -0.21787952263E+02  0.35659280901E+02  0.00000000000E+00 0. -1.
<scales pt_clust_5="13000.00000" pt_clust_6="13000.00000" pt_clust_7="13000.00000" pt_clust_8="13000.00000" pt_clust_9="22.37384" pt_clust_10="27.92636"></scales>
<clustering>
<clus scale="   22.374">  1  9  2 -1</clus>
<clus scale="   27.926">  2 10  1 -1</clus>
<clus scale="   90.809">  7  8 -1 -1</clus>
<clus scale="   92.906">  5  6 -1 -1</clus>
<clus scale="  147.556">  1  7  2 -1</clus>
<clus scale="   27.926">  2  5  1 -1</clus>
</clustering>
</event>
<event>
10    2  0.1133532E-006  0.9184073E+02  0.7546771E-02  0.1298810E+00
         -1   -1    0    0    0  501 -0.00000000000E+00  0.00000000000E+00  0.79835960942E+02  0.79835960942E+02  0.00000000000E+00 0.  1.
          1   -1    0    0  503    0  0.00000000000E+00 -0.00000000000E+00 -0.28056721291E+03  0.28056721291E+03  0.00000000000E+00 0. -1.
         23    2    1    2    0    0  0.55302082409E+00 -0.37565024337E+02 -0.28268965980E+02  0.10203036781E+03  0.90551778737E+02 0.  0.
         23    2    1    2    0    0  0.24375499913E+02 -0.31723572789E+02 -0.77269274121E+02  0.12514224487E+03  0.89941595837E+02 0.  0.
        -11    1    3    3    0    0  0.31452554368E+02 -0.31986434154E+02  0.16111810554E+02  0.47665349946E+02  0.00000000000E+00 0.  1.
         11    1    3    3    0    0 -0.30899533544E+02 -0.55785901833E+01 -0.44380776534E+02  0.54365017864E+02  0.00000000000E+00 0. -1.
        -13    1    4    4    0    0  0.33411646950E+02  0.20317880425E+02 -0.55771894372E+02  0.68115039592E+02  0.00000000000E+00 0. -1.
         13    1    4    4    0    0 -0.90361470376E+01 -0.52041453213E+02 -0.21497379749E+02  0.57027205279E+02  0.00000000000E+00 0.  1.
         21    1    1    2  502  501 -0.30586241358E+02  0.30777258448E+02 -0.18390053986E+02  0.47126976177E+02  0.00000000000E+00 0. -1.
         21    1    1    2  503  502  0.56577206218E+01  0.38511338678E+02 -0.76802957880E+02  0.86103584992E+02  0.00000000000E+00 0. -1.
<scales pt_clust_5="13000.00000" pt_clust_6="13000.00000" pt_clust_7="13000.00000" pt_clust_8="13000.00000" pt_clust_9="47.50615" pt_clust_10="38.92471"></scales>
<clustering>
<clus scale="   38.925">  2 10  1 -1</clus>
<clus scale="   47.506">  1  9  2 -1</clus>
<clus scale="   89.942">  7  8 -1 -1</clus>
<clus scale="   90.552">  5  6 -1 -1</clus>
<clus scale="   91.239">  2  7  1 -1</clus>
<clus scale="   38.925">  2  5  1 -1</clus>
</clustering>
</event>
<event>
10    2  0.1133532E-006  0.1720396E+03  0.7546771E-02  0.1175875E+00
         -2   -1    0    0    0  501 -0.00000000000E+00  0.00000000000E+00  0.56384514118E+03  0.56384514118E+03  0.00000000000E+00 0.  1.
          2   -1    0    0  503    0  0.00000000000E+00 -0.00000000000E+00 -0.97341128733E+02  0.97341128733E+02  0.00000000000E+00 0. -1.
         23    2    1    2    0    0  0.45519905569E+02 -0.14481433902E+03  0.30238103500E+03  0.35059799863E+03  0.91877155630E+02 0.  0.
         23    2    1    2    0    0 -0.87811197057E+02  0.11881171876E+03  0.79733011812E+02  0.19089866153E+03  0.90873070581E+02 0.  0.
        -11    1    3    3    0    0 -0.73332706800E+01 -0.25023137608E+02  0.62522137189E+01  0.26814631286E+02  0.00000000000E+00 0. -1.
         11    1    3    3    0    0  0.52853176249E+02 -0.11979120141E+03  0.29612882128E+03  0.32378336735E+03  0.00000000000E+00 0.  1.
        -11    1    4    4    0    0 -0.38429119929E+02  0.11761999926E+03  0.62117463748E+02  0.13845519415E+03  0.00000000000E+00 0. -1.
         11    1    4    4    0    0 -0.49382077128E+02  0.11917194991E+01  0.17615548064E+02  0.52443467376E+02  0.00000000000E+00 0.  1.
         21    1    1    2  502  501  0.22611979441E+02  0.20093450173E+02  0.92711113262E+02  0.97521273968E+02  0.00000000000E+00 0.  1.
         21    1    1    2  503  502  0.19679312047E+02  0.59091700874E+01 -0.83211476265E+01  0.22168335787E+02  0.00000000000E+00 0.  1.
<scales pt_clust_5="13000.00000" pt_clust_6="13000.00000" pt_clust_7="13000.00000" pt_clust_8="13000.00000" pt_clust_9="30.79676" pt_clust_10="20.54735"></scales>
<clustering>
<clus scale="   20.547">  2 10  1 -1</clus>
<clus scale="   30.797">  1  9  2 -1</clus>
<clus scale="   90.873">  7  8 -1 -1</clus>
<clus scale="   91.877">  5  6 -1 -1</clus>
<clus scale="  171.505">  2  7  1 -1</clus>
<clus scale="   20.547">  2  5  1 -1</clus>
</clustering>
</event>
<event>
10    2  0.1133532E-006  0.9353413E+02  0.7546771E-02  0.1294720E+00
         -2   -1    0    0    0  501 -0.00000000000E+00  0.00000000000E+00  0.39750221967E+02  0.39750221967E+02  0.00000000000E+00 0.  1.
          2   -1    0    0  503    0  0.00000000000E+00 -0.00000000000E+00 -0.67739232032E+03  0.67739232032E+03  0.00000000000E+00 0. -1.
         23    2    1    2    0    0  0.52271517200E+01  0.27941843675E+02 -0.17695406159E+03  0.20153244813E+03  0.92165709411E+02 0.  0.
         23    2    1    2    0    0  0.22060060081E+02  0.47980729844E+01 -0.22010075635E+03  0.23954388650E+03  0.91800124509E+02 0.  0.
        -11    1    4    4    0    0 -0.20221142717E+02 -0.25935196457E+02 -0.14062753764E+03  0.14442172057E+03  0.00000000000E+00 0.  1.
         11    1    4    4    0    0  0.42281202798E+02  0.30733269442E+02 -0.79473218705E+02  0.95122165933E+02  0.00000000000E+00 0. -1.
        -13    1    3    3    0    0 -0.39265053965E+02  0.24495260432E+02 -0.56236892031E+02  0.72830970553E+02  0.00000000000E+00 0.  1.
         13    1    3    3    0    0  0.44492205685E+02  0.34465832435E+01 -0.12071716956E+03  0.12870147757E+03  0.00000000000E+00 0. -1.
         21    1    1    2  502  501 -0.50227026179E+02 -0.19907001990E+02 -0.26149899657E+02  0.60023829760E+02  0.00000000000E+00 0.  1.
         21    1    1    2  503  502  0.22939814378E+02 -0.12832914669E+02 -0.21443738075E+03  0.21604237789E+03  0.00000000000E+00 0. -1.
<scales pt_clust_5="13000.00000" pt_clust_6="13000.00000" pt_clust_7="13000.00000" pt_clust_8="13000.00000" pt_clust_9="52.51516" pt_clust_10="26.28533"></scales>
<clustering>
<clus scale="   26.285">  2 10  1 -1</clus>
<clus scale="   52.515">  1  9  2 -1</clus>
<clus scale="   91.800">  5  6 -1 -1</clus>
<clus scale="   92.166">  7  8 -1 -1</clus>
<clus scale="   93.174">  2  5  1 -1</clus>
<clus scale="   26.285">  2  5  1 -1</clus>
</clustering>
</event>
<event>
10    2  0.1133532E-006  0.9684672E+02  0.7546771E-02  0.1289417E+00
          2   -1    0    0  503    0  0.00000000000E+00  0.00000000000E+00  0.32328179991E+03  0.32328179991E+03  0.00000000000E+00 0. -1.
         -2   -1    0    0    0  501 -0.00000000000E+00 -0.00000000000E+00 -0.96235719082E+02  0.96235719082E+02  0.00000000000E+00 0.  1.
         23    2    1    2    0    0  0.39224423213E+02  0.29364495292E+02  0.19275162414E+02  0.10625466198E+03  0.92291344916E+02 0.  0.
         23    2    1    2    0    0  0.42922417195E+02  0.28021950980E+02  0.89734304859E+02  0.14138238120E+03  0.96484032926E+02 0.  0.
        -11    1    4    4    0    0  0.68211837730E+02  0.32106328155E+02  0.87750637799E+02  0.11568857138E+03  0.00000000000E+00 0. -1.
         11    1    4    4    0    0 -0.25289420534E+02 -0.40843771746E+01  0.19836670601E+01  0.25693809816E+02  0.00000000000E+00 0.  1.
        -13    1    3    3    0    0  0.50169390340E+02 -0.46995530942E+00  0.43414273166E+02  0.66347476964E+02  0.00000000000E+00 0.  1.
         13    1    3    3    0    0 -0.10944967126E+02  0.29834450601E+02 -0.24139110752E+02  0.39907185017E+02  0.00000000000E+00 0. -1.
         21    1    1    2  502  501 -0.57069862888E+02 -0.46393937104E+02  0.29564004104E+02  0.79267881192E+02  0.00000000000E+00 0.  1.
         21    1    1    2  503  502 -0.25076977520E+02 -0.10992509168E+02  0.88472609454E+02  0.92612594624E+02  0.00000000000E+00 0.  1.
<scales pt_clust_5="13000.00000" pt_clust_6="13000.00000" pt_clust_7="13000.00000" pt_clust_8="13000.00000" pt_clust_9="79.73735" pt_clust_10="27.38047"></scales>
<clustering>
<clus scale="   27.380">  1 10  2 -1</clus>
<clus scale="   79.737">  2  9  1 -1</clus>
<clus scale="   92.291">  7  8 -1 -1</clus>
<clus scale="   92.670">  2  7  1 -1</clus>
<clus scale="   96.484">  5  6 -1 -1</clus>
<clus scale="   27.380">  1  5  2 -1</clus>
</clustering>
</event>
<event>
10    2  0.1133532E-006  0.1291395E+03  0.7546771E-02  0.1229570E+00
          1   -1    0    0  503    0  0.00000000000E+00  0.00000000000E+00  0.17315626000E+03  0.17315626000E+03  0.00000000000E+00 0. -1.
         -1   -1    0    0    0  501 -0.00000000000E+00 -0.00000000000E+00 -0.60736653728E+03  0.60736653728E+03  0.00000000000E+00 0.  1.
         23    2    1    2    0    0 -0.48505799561E+02  0.13631658568E+03 -0.30176296812E+03  0.34640501424E+03  0.89445630634E+02 0.  0.
         23    2    1    2    0    0  0.42024159267E+02 -0.41475089469E+02 -0.14719910269E+02  0.11075884789E+03  0.92545305768E+02 0.  0.
        -13    1    3    3    0    0 -0.58750027215E+02  0.35307024266E+02 -0.11824613883E+03  0.13667589769E+03  0.00000000000E+00 0. -1.
         13    1    3    3    0    0  0.10244227655E+02  0.10100956142E+03 -0.18351682928E+03  0.20972911655E+03  0.00000000000E+00 0.  1.
        -13    1    4    4    0    0  0.52606783644E+02  0.44603207791E+01 -0.30593720027E+02  0.61019208876E+02  0.00000000000E+00 0.  1.
         13    1    4    4    0    0 -0.10582624376E+02 -0.45935410248E+02  0.15873809758E+02  0.49739639017E+02  0.00000000000E+00 0. -1.
         21    1    1    2  502  501  0.10489378076E+02 -0.55229018214E+02 -0.21289837870E+03  0.22019534772E+03  0.00000000000E+00 0. -1.
         21    1    1    2  503  502 -0.40077377830E+01 -0.39612478002E+02  0.95170979801E+02  0.10316358743E+03  0.00000000000E+00 0. -1.
<scales pt_clust_5="13000.00000" pt_clust_6="13000.00000" pt_clust_7="13000.00000" pt_clust_8="13000.00000" pt_clust_9="58.10114" pt_clust_10="39.81470"></scales>
<clustering>
<clus scale="   39.815">  1 10  2 -1</clus>
<clus scale="   58.101">  2  9  1 -1</clus>
<clus scale="   89.446">  5  6 -1 -1</clus>
<clus scale="   92.545">  7  8 -1 -1</clus>
<clus scale="  126.937">  2  5  1 -1</clus>
<clus scale="   39.815">  1  5  2 -1</clus>
</clustering>
</event>
<event>
10    2  0.1133532E-006  0.9987831E+02  0.7546771E-02  0.1283317E+00
         -1   -1    0    0    0  501 -0.00000000000E+00  0.00000000000E+00  0.42558096012E+02  0.42558096012E+02  0.00000000000E+00 0.  1.
          1   -1    0    0  503    0  0.00000000000E+00 -0.00000000000E+00 -0.54536505177E+03  0.54536505177E+03  0.00000000000E+00 0. -1.
         23    2    1    2    0    0  0.64957403530E+02  0.18135243858E+01 -0.12511959488E+03  0.16775394977E+03  0.90905013594E+02 0.  0.
         23    2    1    2    0    0  0.10894432772E+02 -0.70705827398E+01 -0.22361924964E+03  0.24378586885E+03  0.96214859757E+02 0.  0.
        -11    1    4    4    0    0 -0.23603201660E+02  0.39453045382E+01 -0.81286310157E+01  0.25273527627E+02  0.00000000000E+00 0.  1.
         11    1    4    4    0    0  0.34497634432E+02 -0.11015887278E+02 -0.21549061862E+03  0.21851234122E+03  0.00000000000E+00 0. -1.
        -13    1    3    3    0    0 -0.18538534596E+02  0.12370069102E+02 -0.83144448117E+01  0.23787094549E+02  0.00000000000E+00 0.  1.
         13    1    3    3    0    0  0.83495938126E+02 -0.10556544716E+02 -0.11680515007E+03  0.14396685522E+03  0.00000000000E+00 0. -1.
         21    1    1    2  502  501 -0.36470908306E+02  0.39341527052E+00 -0.33755747298E+02  0.49696402323E+02  0.00000000000E+00 0.  1.
         21    1    1    2  503  502 -0.39380927996E+02  0.48636430835E+01 -0.12031236394E+03  0.12668692683E+03  0.00000000000E+00 0.  1.
<scales pt_clust_5="13000.00000" pt_clust_6="13000.00000" pt_clust_7="13000.00000" pt_clust_8="13000.00000" pt_clust_9="36.47303" pt_clust_10="43.02169"></scales>
<clustering>
<clus scale="   36.473">  1  9  2 -1</clus>
<clus scale="   43.022">  2 10  1 -1</clus>
<clus scale="   90.905">  7  8 -1 -1</clus>
<clus scale="   94.774">  1  7  2 -1</clus>
<clus scale="   96.215">  5  6 -1 -1</clus>
<clus scale="   43.022">  2  5  1 -1</clus>
</clustering>
</event>
<event>
10    2  0.1133532E-006  0.1286244E+03  0.7546771E-02  0.1236244E+00
          1   -1    0    0  503    0  0.00000000000E+00  0.00000000000E+00  0.48320660684E+03  0.48320660684E+03  0.00000000000E+00 0. -1.
         -1   -1    0    0    0  501 -0.00000000000E+00 -0.00000000000E+00 -0.99276299158E+02  0.99276299158E+02  0.00000000000E+00 0.  1.
         23    2    1    2    0    0 -0.52576997656E+02  0.53238145779E+02 -0.32176194881E+02  0.11944011808E+03  0.87361281137E+02 0.  0.
         23    2    1    2    0    0  0.79316415439E+02 -0.51111854004E+02  0.30475857202E+03  0.33676823161E+03  0.10784961393E+03 0.  0.
        -11    1    3    3    0    0  0.79231242695E+01 -0.18885263142E+02 -0.19713072456E+01  0.20574623068E+02  0.00000000000E+00 0. -1.
         11    1    3    3    0    0 -0.60500121925E+02  0.72123408921E+02 -0.30204887635E+02  0.98865495014E+02  0.00000000000E+00 0.  1.
        -13    1    4    4    0    0  0.89400963927E+02  0.17541802948E+01  0.18537648039E+03  0.20581557031E+03  0.00000000000E+00 0. -1.
         13    1    4    4    0    0 -0.10084548488E+02 -0.52866034299E+02  0.11938209163E+03  0.13095266130E+03  0.00000000000E+00 0.  1.
         21    1    1    2  502  501 -0.22983734805E+01 -0.20994769177E+02  0.17342567936E+02  0.27328145127E+02  0.00000000000E+00 0.  1.
         21    1    1    2  503  502 -0.24441044303E+02  0.18868477402E+02  0.94005362604E+02  0.98946411175E+02  0.00000000000E+00 0.  1.
<scales pt_clust_5="13000.00000" pt_clust_6="13000.00000" pt_clust_7="13000.00000" pt_clust_8="13000.00000" pt_clust_9="21.12020" pt_clust_10="30.59206"></scales>
<clustering>
<clus scale="   21.120">  2  9  1 -1</clus>
<clus scale="   30.592">  1 10  2 -1</clus>
<clus scale="   87.361">  5  6 -1 -1</clus>
<clus scale="  107.850">  7  8 -1 -1</clus>
<clus scale="  112.003">  2  5  1 -1</clus>
<clus scale="   30.592">  1  5  2 -1</clus>
</clustering>
</event>
<event>
10    2  0.1133532E-006  0.2727198E+03  0.7546771E-02  0.1140281E+00
          1   -1    0    0  503    0  0.00000000000E+00  0.00000000000E+00  0.19060159265E+03  0.19060159265E+03  0.00000000000E+00 0. -1.
         -1   -1    0    0    0  501 -0.00000000000E+00 -0.00000000000E+00 -0.12875982405E+04  0.12875982405E+04  0.00000000000E+00 0.  1.
         23    2    1    2    0    0 -0.19228385525E+03  0.13004634305E+03 -0.14465657646E+03  0.28741084373E+03  0.88285534757E+02 0.  0.
         23    2    1    2    0    0  0.20654531040E+02  0.28546116877E+02  0.57736922796E+02  0.11320522165E+03  0.90776536143E+02 0.  0.
        -13    1    4    4    0    0 -0.29240793670E+02 -0.13411035224E+02  0.19974204432E+02  0.37866194989E+02  0.00000000000E+00 0.  1.
         13    1    4    4    0    0  0.49895324710E+02  0.41957152101E+02  0.37762718364E+02  0.75339026663E+02  0.00000000000E+00 0. -1.
        -13    1    3    3    0    0 -0.17622070857E+02  0.25568153370E+02 -0.58843918679E+02  0.66534762444E+02  0.00000000000E+00 0.  1.
         13    1    3    3    0    0 -0.17466178440E+03  0.10447818968E+03 -0.85812657776E+02  0.22087608128E+03  0.00000000000E+00 0. -1.
         21    1    1    2  502  501  0.19563845798E+03 -0.17827987125E+03 -0.10124191480E+04  0.10464466781E+04  0.00000000000E+00 0.  1.
         21    1    1    2  503  502 -0.24009133762E+02  0.19687411324E+02  0.23421538686E+01  0.31137089675E+02  0.00000000000E+00 0. -1.
<scales pt_clust_5="13000.00000" pt_clust_6="13000.00000" pt_clust_7="13000.00000" pt_clust_8="13000.00000" pt_clust_9="258.03436" pt_clust_10="31.04888"></scales>
<clustering>
<clus scale="   31.049">  1 10  2 -1</clus>
<clus scale="   88.286">  7  8 -1 -1</clus>
<clus scale="   90.777">  5  6 -1 -1</clus>
<clus scale="   98.893">  1  5  2 -1</clus>
<clus scale="  258.034">  2  9  1 -1</clus>
<clus scale="   31.049">  1  5  2 -1</clus>
</clustering>
</event>
<event>
10    2  0.1133532E-006  0.9694077E+02  0.7546771E-02  0.1288055E+00
         -2   -1    0    0    0  501 -0.00000000000E+00  0.00000000000E+00  0.19719622809E+03  0.19719622809E+03  0.00000000000E+00 0.  1.
          2   -1    0    0  503    0  0.00000000000E+00 -0.00000000000E+00 -0.73168867964E+03  0.73168867964E+03  0.00000000000E+00 0. -1.
         23    2    1    2    0    0 -0.10441582451E+02 -0.87382690193E+02 -0.58796967043E+02  0.13996314429E+03  0.91585136544E+02 0.  0.
         23    2    1    2    0    0  0.11829099144E+02 -0.27707759865E+02 -0.93424151086E+02  0.13270959315E+03  0.89309106841E+02 0.  0.
        -11    1    4    4    0    0  0.29432089662E+02  0.23781150930E+02 -0.52055923759E+02  0.64355343522E+02  0.00000000000E+00 0. -1.
         11    1    4    4    0    0 -0.17602990519E+02 -0.51488910795E+02 -0.41368227327E+02  0.68354249628E+02  0.00000000000E+00 0.  1.
        -13    1    3    3    0    0 -0.26358935812E+02 -0.47693815190E+02  0.13341947201E+02  0.56102594055E+02  0.00000000000E+00 0.  1.
         13    1    3    3    0    0  0.15917353361E+02 -0.39688875003E+02 -0.72138914244E+02  0.83860550232E+02  0.00000000000E+00 0. -1.
         21    1    1    2  502  501  0.25779326832E+02  0.29196903536E+02  0.13019067309E+03  0.13589203150E+03  0.00000000000E+00 0. -1.
         21    1    1    2  503  502 -0.27166843524E+02  0.85893546523E+02 -0.51246200650E+03  0.52032013879E+03  0.00000000000E+00 0. -1.
<scales pt_clust_5="13000.00000" pt_clust_6="13000.00000" pt_clust_7="13000.00000" pt_clust_8="13000.00000" pt_clust_9="38.94911" pt_clust_10="91.33905"></scales>
<clustering>
<clus scale="   38.949">  1  9  2 -1</clus>
<clus scale="   89.309">  5  6 -1 -1</clus>
<clus scale="   91.339">  2 10  1 -1</clus>
<clus scale="   91.585">  7  8 -1 -1</clus>
<clus scale="   94.793">  2  5  1 -1</clus>
<clus scale="   91.339">  2  5  1 -1</clus>
</clustering>
</event>
<event>
10    2  0.1133532E-006  0.1919955E+03  0.7546771E-02  0.1156702E+00
          1   -1    0    0  503    0  0.00000000000E+00  0.00000000000E+00  0.19573072278E+03  0.19573072278E+03  0.00000000000E+00 0. -1.
         -1   -1    0    0    0  501 -0.00000000000E+00 -0.00000000000E+00 -0.38965681467E+03  0.38965681467E+03  0.00000000000E+00 0.  1.
         23    2    1    2    0    0 -0.28535836340E+02  0.17606726153E+03 -0.15476203513E+03  0.25270141582E+03  0.89959677090E+02 0.  0.
         23    2    1    2    0    0  0.39321717133E+02 -0.17007824916E+03  0.54433371917E+02  0.20390341614E+03  0.90226397813E+02 0.  0.
        -11    1    4    4    0    0  0.10019028572E+02 -0.23148887068E+02  0.47664997066E+02  0.53927765124E+02  0.00000000000E+00 0. -1.
         11    1    4    4    0    0  0.29302688561E+02 -0.14692936209E+03  0.67683748518E+01  0.14997565102E+03  0.00000000000E+00 0.  1.
        -13    1    3    3    0    0 -0.16767823436E+02  0.14863624058E+03 -0.74574021510E+02  0.16713819612E+03  0.00000000000E+00 0.  1.
         13    1    3    3    0    0 -0.11768012904E+02  0.27431020949E+02 -0.80188013616E+02  0.85563219702E+02  0.00000000000E+00 0. -1.
         21    1    1    2  502  501 -0.23522826629E+02 -0.22413931439E+02 -0.10147901543E+03  0.10655373418E+03  0.00000000000E+00 0. -1.
         21    1    1    2  503  502  0.12736945836E+02  0.16424919063E+02  0.78815867467E+01  0.22228971301E+02  0.00000000000E+00 0.  1.
<scales pt_clust_5="13000.00000" pt_clust_6="13000.00000" pt_clust_7="13000.00000" pt_clust_8="13000.00000" pt_clust_9="32.20306" pt_clust_10="20.78480"></scales>
<clustering>
<clus scale="   20.785">  1 10  2 -1</clus>
<clus scale="   32.203">  2  9  1 -1</clus>
<clus scale="   89.960">  7  8 -1 -1</clus>
<clus scale="   90.226">  5  6 -1 -1</clus>
<clus scale="  191.870">  2  7  1 -1</clus>
<clus scale="   20.785">  1  5  2 -1</clus>
</clustering>
</event>
<event>
10    2  0.1133532E-006  0.1623356E+03  0.7546771E-02  0.1186712E+00
         -2   -1    0    0    0  501 -0.00000000000E+00  0.00000000000E+00  0.12407000676E+03  0.12407000676E+03  0.00000000000E+00 0.  1.
          2   -1    0    0  503    0  0.00000000000E+00 -0.00000000000E+00 -0.13423608917E+04  0.13423608917E+04  0.00000000000E+00 0. -1.
         23    2    1    2    0    0 -0.67280468076E+02  0.12875373489E+03 -0.20430355659E+02  0.17146757755E+03  0.88766801707E+02 0.  0.
         23    2    1    2    0    0  0.70706984984E+02 -0.20323073531E+03 -0.43460741006E+03  0.49375152290E+03  0.92761823961E+02 0.  0.
        -11    1    4    4    0    0  0.85059613540E+02 -0.10868471586E+03 -0.23800459858E+03  0.27512487031E+03  0.00000000000E+00 0.  1.
         11    1    4    4    0    0 -0.14352628557E+02 -0.94546019451E+02 -0.19660281149E+03  0.21862665259E+03  0.00000000000E+00 0. -1.
        -13    1    3    3    0    0  0.12475791580E+02  0.26436500290E+02 -0.29359238367E+02  0.41430650497E+02  0.00000000000E+00 0. -1.
         13    1    3    3    0    0 -0.79756259656E+02  0.10231723460E+03  0.89288827077E+01  0.13003692705E+03  0.00000000000E+00 0.  1.
         21    1    1    2  502  501  0.13917424080E+02 -0.41766817937E+02 -0.19363437999E+02  0.48094745085E+02  0.00000000000E+00 0. -1.
         21    1    1    2  503  502 -0.17343940988E+02  0.11624381836E+03 -0.74388968121E+03  0.75311705293E+03  0.00000000000E+00 0.  1.
<scales pt_clust_5="13000.00000" pt_clust_6="13000.00000" pt_clust_7="13000.00000" pt_clust_8="13000.00000" pt_clust_9="44.02456" pt_clust_10="115.70735"></scales>
<clustering>
<clus scale="   44.025">  1  9  2 -1</clus>
<clus scale="   88.767">  7  8 -1 -1</clus>
<clus scale="   92.762">  5  6 -1 -1</clus>
<clus scale="  115.707">  2 10  1 -1</clus>
<clus scale="  160.086">  1  7  2 -1</clus>
<clus scale="  115.707">  2  5  1 -1</clus>
</clustering>
</event>
<event>
10    2  0.1133532E-006  0.9334098E+02  0.7546771E-02  0.1295410E+00
         -1   -1    0    0    0  501 -0.00000000000E+00  0.00000000000E+00  0.10734697662E+03  0.10734697662E+03  0.00000000000E+00 0.  1.
          1   -1    0    0  503    0  0.00000000000E+00 -0.00000000000E+00 -0.27934863530E+03  0.27934863530E+03  0.00000000000E+00 0. -1.
         23    2    1    2    0    0 -0.15788927440E+02  0.25202845302E+02  0.78356789928E+01  0.97153649541E+02  0.92157257516E+02 0.  0.
         23    2    1    2    0    0 -0.12760722447E+02 -0.31237428450E+01 -0.52847562415E+01  0.92455880327E+02  0.91365022584E+02 0.  0.
        -13    1    4    4    0    0 -0.29891431467E+02 -0.34703026460E+02 -0.24255955807E+02  0.51828072632E+02  0.00000000000E+00 0. -1.
         13    1    4    4    0    0  0.17130709020E+02  0.31579283615E+02  0.18971199566E+02  0.40627807695E+02  0.00000000000E+00 0.  1.
        -13    1    3    3    0    0  0.13583251512E+02  0.34548100754E+02  0.38635553175E+02  0.53579678578E+02  0.00000000000E+00 0.  1.
         13    1    3    3    0    0 -0.29372178952E+02 -0.93452554520E+01 -0.30799874183E+02  0.43573970963E+02  0.00000000000E+00 0. -1.
         21    1    1    2  502  501  0.43612229756E+02  0.13260554921E+00 -0.37765720401E+02  0.57691366824E+02  0.00000000000E+00 0. -1.
         21    1    1    2  503  502 -0.15062579870E+02 -0.22211708007E+02 -0.13678686102E+03  0.13939471523E+03  0.00000000000E+00 0. -1.
<scales pt_clust_5="13000.00000" pt_clust_6="13000.00000" pt_clust_7="13000.00000" pt_clust_8="13000.00000" pt_clust_9="39.22195" pt_clust_10="26.83731"></scales>
<clustering>
<clus scale="   26.837">  2 10  1 -1</clus>
<clus scale="   39.222">  2  9  1 -1</clus>
<clus scale="   91.365">  5  6 -1 -1</clus>
<clus scale="   92.157">  7  8 -1 -1</clus>
<clus scale="   92.559">  2  5  1 -1</clus>
<clus scale="   26.837">  2  5  1 -1</clus>
</clustering>
</event>
<event>
10    2  0.1133532E-006  0.2329180E+03  0.7546771E-02  0.1125106E+00
          1   -1    0    0  503    0  0.00000000000E+00  0.00000000000E+00  0.31716090590E+03  0.31716090590E+03  0.00000000000E+00 0. -1.
         -1   -1    0    0    0  501 -0.00000000000E+00 -0.00000000000E+00 -0.45368261927E+03  0.45368261927E+03  0.00000000000E+00 0.  1.
         23    2    1    2    0    0 -0.31165853358E+01 -0.21381619290E+03 -0.22357527994E+03  0.32275898739E+03  0.91980327756E+02 0.  0.
         23    2    1    2    0    0  0.38245577653E+02  0.18982752447E+03  0.11300177936E+03  0.23956062952E+03  0.84395970416E+02 0.  0.
        -13    1    3    3    0    0 -0.35270656381E+02 -0.18584767887E+03 -0.19347718640E+03  0.27058603179E+03  0.00000000000E+00 0.  1.
         13    1    3    3    0    0  0.32154071045E+02 -0.27968514028E+02 -0.30098093540E+02  0.52172955604E+02  0.00000000000E+00 0. -1.
        -13    1    4    4    0    0  0.59958463342E+02  0.11077613667E+03  0.88688865962E+02  0.15405221429E+03  0.00000000000E+00 0. -1.
         13    1    4    4    0    0 -0.21712885689E+02  0.79051387791E+02  0.24312913399E+02  0.85508415227E+02  0.00000000000E+00 0.  1.
         21    1    1    2  502  501 -0.22781678566E+02 -0.78253393463E+01 -0.11272921017E+03  0.11527408920E+03  0.00000000000E+00 0.  1.
         21    1    1    2  503  502 -0.12347313751E+02  0.31814007777E+02  0.86780997379E+02  0.93249819055E+02  0.00000000000E+00 0.  1.
<scales pt_clust_5="13000.00000" pt_clust_6="13000.00000" pt_clust_7="13000.00000" pt_clust_8="13000.00000" pt_clust_9="24.08819" pt_clust_10="34.13584"></scales>
<clustering>
<clus scale="   24.088">  2  9  1 -1</clus>
<clus scale="   34.136">  1 10  2 -1</clus>
<clus scale="   84.396">  7  8 -1 -1</clus>
<clus scale="   91.980">  5  6 -1 -1</clus>
<clus scale="  230.028">  1  7  2 -1</clus>
<clus scale="   34.136">  1  5  2 -1</clus>
</clustering>
</event>
<event>
10    2  0.1133532E-006  0.1029051E+03  0.7546771E-02  0.1275138E+00
         -1   -1    0    0    0  501 -0.00000000000E+00  0.00000000000E+00  0.24636019997E+03  0.24636019997E+03  0.00000000000E+00 0.  1.
          1   -1    0    0  503    0  0.00000000000E+00 -0.00000000000E+00 -0.17171080302E+03  0.17171080302E+03  0.00000000000E+00 0. -1.
         23    2    1    2    0    0 -0.78129073489E+01 -0.53584188877E+02  0.98065503268E+02  0.14485376595E+03  0.91833892213E+02 0.  0.
         23    2    1    2    0    0 -0.65349152235E+02 -0.15134288264E+02 -0.87615258525E+02  0.14239185003E+03  0.89996928000E+02 0.  0.
        -11    1    4    4    0    0 -0.26326342926E+02 -0.43651815346E+02 -0.11547077494E+02  0.52267507244E+02  0.00000000000E+00 0.  1.
         11    1    4    4    0    0 -0.39022809309E+02  0.28517527082E+02 -0.76068181031E+02  0.90124342786E+02  0.00000000000E+00 0. -1.
        -13    1    3    3    0    0 -0.33091508766E+02 -0.53524093323E+02  0.25301124582E+02  0.67823472512E+02  0.00000000000E+00 0.  1.
         13    1    3    3    0    0  0.25278601417E+02 -0.60095553378E-01  0.72764378686E+02  0.77030293435E+02  0.00000000000E+00 0. -1.
         21    1    1    2  502  501  0.64215017665E+02  0.47030864591E+02  0.70721079840E+02  0.10647507620E+03  0.00000000000E+00 0. -1.
         21    1    1    2  503  502  0.89470419193E+01  0.21687612549E+02 -0.65219276328E+01  0.24350310824E+02  0.00000000000E+00 0. -1.
<scales pt_clust_5="13000.00000" pt_clust_6="13000.00000" pt_clust_7="13000.00000" pt_clust_8="13000.00000" pt_clust_9="81.89923" pt_clust_10="23.46065"></scales>
<clustering>
<clus scale="   23.461">  2 10  1 -1</clus>
<clus scale="   81.899">  1  9  2 -1</clus>
<clus scale="   89.997">  5  6 -1 -1</clus>
<clus scale="   91.834">  7  8 -1 -1</clus>
<clus scale="  101.269">  2  5  1 -1</clus>
<clus scale="   23.461">  2  5  1 -1</clus>
</clustering>
</event>
<event>
10    2  0.1133532E-006  0.1106005E+03  0.7546771E-02  0.1259796E+00
          1   -1    0    0  503    0  0.00000000000E+00  0.00000000000E+00  0.71957164185E+03  0.71957164185E+03  0.00000000000E+00 0. -1.
         -1   -1    0    0    0  501 -0.00000000000E+00 -0.00000000000E+00 -0.28155040366E+02  0.28155040366E+02  0.00000000000E+00 0.  1.
         23    2    1    2    0    0  0.55396146728E+02 -0.29848503215E+02  0.18214306081E+03  0.21319243249E+03  0.91188006087E+02 0.  0.
         23    2    1    2    0    0 -0.52616634077E+02  0.24130481175E+02  0.32343743276E+03  0.34076086248E+03  0.90307265417E+02 0.  0.
        -11    1    4    4    0    0 -0.49551143657E+01  0.43666784140E+02  0.22909756506E+03  0.23327459251E+03  0.00000000000E+00 0. -1.
         11    1    4    4    0    0 -0.47661519711E+02 -0.19536302966E+02  0.94339867704E+02  0.10748626997E+03  0.00000000000E+00 0.  1.
        -11    1    3    3    0    0  0.23097196214E+00 -0.47854209851E+02  0.11432189032E+03  0.12393374583E+03  0.00000000000E+00 0.  1.
         11    1    3    3    0    0  0.55165174765E+02  0.18005706637E+02  0.67821170492E+02  0.89258686666E+02  0.00000000000E+00 0. -1.
         21    1    1    2  502  501 -0.28902573950E+01 -0.21560540479E+02  0.41229624811E+02  0.46616439757E+02  0.00000000000E+00 0.  1.
         21    1    1    2  503  502  0.11074474437E+00  0.27278562519E+02  0.14460648310E+03  0.14715694748E+03  0.00000000000E+00 0. -1.
<scales pt_clust_5="13000.00000" pt_clust_6="13000.00000" pt_clust_7="13000.00000" pt_clust_8="13000.00000" pt_clust_9="21.75340" pt_clust_10="26.19874"></scales>
<clustering>
<clus scale="   21.753">  2  9  1 -1</clus>
<clus scale="   26.199">  1 10  2 -1</clus>
<clus scale="   90.307">  5  6 -1 -1</clus>
<clus scale="   91.188">  7  8 -1 -1</clus>
<clus scale="  109.875">  1  5  2 -1</clus>
<clus scale="   26.199">  1  5  2 -1</clus>
</clustering>
</event>
<event>
10    2  0.1133532E-006  0.1265751E+03  0.7546771E-02  0.1233695E+00
          1   -1    0    0  503    0  0.00000000000E+00  0.00000000000E+00  0.10424764520E+03  0.10424764520E+03  0.00000000000E+00 0. -1.
         -1   -1    0    0    0  501 -0.00000000000E+00 -0.00000000000E+00 -0.38129298136E+03  0.38129298136E+03  0.00000000000E+00 0.  1.
         23    2    1    2    0    0  0.63377394159E+02  0.64237597450E+02 -0.18583801574E+03  0.22674470136E+03  0.93457094344E+02 0.  0.
         23    2    1    2    0    0 -0.84272981944E+02 -0.36393106093E+02 -0.68655063114E+02  0.15020281598E+03  0.97061705020E+02 0.  0.
        -11    1    3    3    0    0  0.19109416475E+00  0.38841209177E+02 -0.12974998127E+02  0.40951515524E+02  0.00000000000E+00 0.  1.
         11    1    3    3    0    0  0.63186299994E+02  0.25396388273E+02 -0.17286301761E+03  0.18579318583E+03  0.00000000000E+00 0. -1.
        -11    1    4    4    0    0 -0.14894006676E+02  0.14758130477E+02 -0.60017111125E+02  0.63574267419E+02  0.00000000000E+00 0.  1.
         11    1    4    4    0    0 -0.69378975268E+02 -0.51151236570E+02 -0.86379519892E+01  0.86628548565E+02  0.00000000000E+00 0. -1.
         21    1    1    2  502  501 -0.13771000899E+02 -0.20676784250E+02 -0.55139696416E+02  0.60477731385E+02  0.00000000000E+00 0.  1.
         21    1    1    2  503  502  0.34666588684E+02 -0.71677071072E+01  0.32587439107E+02  0.48115377830E+02  0.00000000000E+00 0. -1.
<scales pt_clust_5="13000.00000" pt_clust_6="13000.00000" pt_clust_7="13000.00000" pt_clust_8="13000.00000" pt_clust_9="24.84290" pt_clust_10="35.18099"></scales>
<clustering>
<clus scale="   24.843">  2  9  1 -1</clus>
<clus scale="   35.181">  1 10  2 -1</clus>
<clus scale="   93.457">  5  6 -1 -1</clus>
<clus scale="   97.062">  7  8 -1 -1</clus>
<clus scale="  123.833">  2  5  1 -1</clus>
<clus scale="   35.181">  1  5  2 -1</clus>
</clustering>
</event>
<event>
10    2  0.1133532E-006  0.1877438E+03  0.7546771E-02  0.1160770E+00
         -1   -1    0    0    0  501 -0.00000000000E+00  0.00000000000E+00  0.14099356551E+03  0.14099356551E+03  0.00000000000E+00 0.  1.
          1   -1    0    0  503    0  0.00000000000E+00 -0.00000000000E+00 -0.12277766456E+04  0.12277766456E+04  0.00000000000E+00 0. -1.
         23    2    1    2    0    0  0.15565495290E+03 -0.91715510963E+02 -0.41161869956E+03  0.45865662831E+03  0.91081005473E+02 0.  0.
         23    2    1    2    0    0 -0.13819220748E+03  0.42987170773E+02 -0.69511035064E+03  0.71612743870E+03  0.93354838286E+02 0.  0.
        -11    1    3    3    0    0  0.10019275875E+03 -0.75775714316E+02 -0.35979643758E+03  0.38109582034E+03  0.00000000000E+00 0.  1.
         11    1    3    3    0    0  0.55462194151E+02 -0.15939796647E+02 -0.51822261980E+02  0.77560807976E+02  0.00000000000E+00 0. -1.
        -11    1    4    4    0    0 -0.71469002857E+02 -0.24977601405E+02 -0.26529414479E+03  0.27588527000E+03  0.00000000000E+00 0.  1.
         11    1    4    4    0    0 -0.66723204625E+02  0.67964772179E+02 -0.42981620585E+03  0.44024216870E+03  0.00000000000E+00 0. -1.
         21    1    1    2  502  501 -0.32814537326E+01  0.22974089285E+02  0.10315627385E+03  0.10573454285E+03  0.00000000000E+00 0.  1.
         21    1    1    2  503  502 -0.14181291683E+02  0.25754250905E+02 -0.83210303744E+02  0.88251601247E+02  0.00000000000E+00 0.  1.
<scales pt_clust_5="13000.00000" pt_clust_6="13000.00000" pt_clust_7="13000.00000" pt_clust_8="13000.00000" pt_clust_9="23.20726" pt_clust_10="30.90283"></scales>
<clustering>
<clus scale="   23.207">  1  9  2 -1</clus>
<clus scale="   30.903">  2 10  1 -1</clus>
<clus scale="   91.081">  5  6 -1 -1</clus>
<clus scale="   93.355">  7  8 -1 -1</clus>
<clus scale="  186.624">  1  5  2 -1</clus>
<clus scale="   30.903">  2  5  1 -1</clus>
</clustering>
</event>
<event>
10    2  0.1133532E-006  0.9487126E+02  0.7546771E-02  0.1292538E+00
         -1   -1    0    0    0  501 -0.00000000000E+00  0.00000000000E+00  0.65679570335E+02  0.65679570335E+02  0.00000000000E+00 0.  1.
          1   -1    0    0  503    0  0.00000000000E+00 -0.00000000000E+00 -0.37296748474E+03  0.37296748474E+03  0.00000000000E+00 0. -1.
         23    2    1    2    0    0  0.37286103922E+02  0.25054229445E+02 -0.10504301254E+03  0.14583897170E+03  0.90647687360E+02 0.  0.
         23    2    1    2    0    0  0.30740152120E+02 -0.13339693390E+02 -0.12979091951E+03  0.16290670612E+03  0.92574336292E+02 0.  0.
        -11    1    3    3    0    0  0.45473795774E+02  0.96074914596E+00 -0.88498357980E+01  0.46336904672E+02  0.00000000000E+00 0.  1.
         11    1    3    3    0    0 -0.81876918519E+01  0.24093480299E+02 -0.96193176738E+02  0.99502067023E+02  0.00000000000E+00 0. -1.
        -13    1    4    4    0    0 -0.20325641567E+02 -0.25418131352E+02 -0.13329896789E+02  0.35169578544E+02  0.00000000000E+00 0. -1.
         13    1    4    4    0    0  0.51065793687E+02  0.12078437963E+02 -0.11646102272E+03  0.12773712757E+03  0.00000000000E+00 0.  1.
         21    1    1    2  502  501 -0.31938060109E+02  0.14427468552E+02  0.97669369679E+01  0.36381102101E+02  0.00000000000E+00 0.  1.
         21    1    1    2  503  502 -0.36088195932E+02 -0.26142004607E+02 -0.82220919332E+02  0.93520275161E+02  0.00000000000E+00 0. -1.
<scales pt_clust_5="13000.00000" pt_clust_6="13000.00000" pt_clust_7="13000.00000" pt_clust_8="13000.00000" pt_clust_9="35.04556" pt_clust_10="47.04262"></scales>
<clustering>
<clus scale="   35.046">  1  9  2 -1</clus>
<clus scale="   47.043">  2 10  1 -1</clus>
<clus scale="   90.648">  5  6 -1 -1</clus>
<clus scale="   92.574">  7  8 -1 -1</clus>
<clus scale="   92.992">  1  5  2 -1</clus>
<clus scale="   47.043">  2  5  1 -1</clus>
</clustering>
</event>
<event>
10    2  0.1133532E-006  0.3015792E+03  0.7546771E-02  0.1084502E+00
         -2   -1    0    0    0  501 -0.00000000000E+00  0.00000000000E+00  0.54931888351E+03  0.54931888351E+03  0.00000000000E+00 0.  1.
          2   -1    0    0  503    0  0.00000000000E+00 -0.00000000000E+00 -0.44007362086E+03  0.44007362086E+03  0.00000000000E+00 0. -1.
         23    2    1    2    0    0 -0.17152724362E+03 -0.15869009352E+03  0.30497535884E+03  0.39535090371E+03  0.93210656486E+02 0.  0.
         23    2    1    2    0    0  0.21495142267E+03  0.28703965123E+03 -0.12490772585E+03  0.39070725424E+03  0.91947501610E+02 0.  0.
        -13    1    3    3    0    0 -0.10630146176E+03 -0.53168976345E+02  0.20088367953E+03  0.23341206807E+03  0.00000000000E+00 0.  1.
         13    1    3    3    0    0 -0.65225781856E+02 -0.10552111717E+03  0.10409167931E+03  0.16193883564E+03  0.00000000000E+00 0. -1.
        -13    1    4    4    0    0  0.13997086211E+03  0.13661707940E+03 -0.10346198152E+03  0.22127008439E+03  0.00000000000E+00 0.  1.
         13    1    4    4    0    0  0.74980560558E+02  0.15042257183E+03 -0.21445744322E+02  0.16943716985E+03  0.00000000000E+00 0. -1.
         21    1    1    2  502  501 -0.12046360156E+02 -0.59723259281E+02  0.37334672333E+02  0.71455302465E+02  0.00000000000E+00 0.  1.
         21    1    1    2  503  502 -0.31377818892E+02 -0.68626298432E+02 -0.10815704267E+03  0.13187904396E+03  0.00000000000E+00 0.  1.
<scales pt_clust_5="13000.00000" pt_clust_6="13000.00000" pt_clust_7="13000.00000" pt_clust_8="13000.00000" pt_clust_9="60.92604" pt_clust_10="76.88194"></scales>
<clustering>
<clus scale="   60.926">  1  9  2 -1</clus>
<clus scale="   76.882">  2 10  1 -1</clus>
<clus scale="   91.948">  7  8 -1 -1</clus>
<clus scale="   93.211">  5  6 -1 -1</clus>
<clus scale="  301.191">  2  7  1 -1</clus>
<clus scale="   76.882">  2  5  1 -1</clus>
</clustering>
</event>
<event>
10    2  0.1133532E-006  0.2057320E+03  0.7546771E-02  0.1145122E+00
         -1   -1    0    0    0  501 -0.00000000000E+00  0.00000000000E+00  0.26738841807E+03  0.26738841807E+03  0.00000000000E+00 0.  1.
          1   -1    0    0  503    0  0.00000000000E+00 -0.00000000000E+00 -0.42552268669E+03  0.42552268669E+03  0.00000000000E+00 0. -1.
         23    2    1    2    0    0 -0.21140556824E+03  0.61506797408E+02 -0.11135712209E+02  0.23909196693E+03  0.92550333080E+02 0.  0.
         23    2    1    2    0    0  0.13043348221E+03 -0.72560310634E+02 -0.94326063918E+02  0.19868613040E+03  0.91109165943E+02 0.  0.
        -11    1    3    3    0    0 -0.30303948587E+02  0.20862502374E+02 -0.36423141420E+02  0.51770827076E+02  0.00000000000E+00 0. -1.
         11    1    3    3    0    0 -0.18110161965E+03  0.40644295034E+02  0.25287429211E+02  0.18732113985E+03  0.00000000000E+00 0.  1.
        -13    1    4    4    0    0  0.11216118371E+03 -0.22622513297E+02 -0.36438685000E+02  0.12008200116E+03  0.00000000000E+00 0. -1.
         13    1    4    4    0    0  0.18272298504E+02 -0.49937797336E+02 -0.57887378918E+02  0.78604129239E+02  0.00000000000E+00 0.  1.
         21    1    1    2  502  501  0.11298060408E+02 -0.35366564619E+02  0.85704212938E+02  0.93400493453E+02  0.00000000000E+00 0.  1.
         21    1    1    2  503  502  0.69674025614E+02  0.46420077845E+02 -0.13837670543E+03  0.16173251398E+03  0.00000000000E+00 0. -1.
<scales pt_clust_5="13000.00000" pt_clust_6="13000.00000" pt_clust_7="13000.00000" pt_clust_8="13000.00000" pt_clust_9="37.12735" pt_clust_10="83.08434"></scales>
<clustering>
<clus scale="   37.127">  1  9  2 -1</clus>
<clus scale="   83.084">  2 10  1 -1</clus>
<clus scale="   91.109">  7  8 -1 -1</clus>
<clus scale="   92.550">  5  6 -1 -1</clus>
<clus scale="  205.088">  2  7  1 -1</clus>
<clus scale="   83.084">  2  5  1 -1</clus>
</clustering>
</event>
<event>
10    2  0.1133532E-006  0.1946032E+03  0.7546771E-02  0.1154824E+00
          2   -1    0    0  503    0  0.00000000000E+00  0.00000000000E+00  0.19733436938E+03  0.19733436938E+03  0.00000000000E+00 0. -1.
         -2   -1    0    0    0  501 -0.00000000000E+00 -0.00000000000E+00 -0.38253731400E+03  0.38253731400E+03  0.00000000000E+00 0.  1.
         23    2    1    2    0    0 -0.83400068103E+02  0.17507328140E+03 -0.20414640614E+03  0.29615501425E+03  0.91792222455E+02 0.  0.
         23    2    1    2    0    0  0.75212966086E+02 -0.15549223531E+03  0.50232912108E+02  0.20390332432E+03  0.96012471587E+02 0.  0.
        -13    1    4    4    0    0  0.13446465988E+02 -0.28842787593E+02  0.54297897267E+02  0.62936281200E+02  0.00000000000E+00 0. -1.
         13    1    4    4    0    0  0.61766500098E+02 -0.12664944772E+03 -0.40649851584E+01  0.14096704312E+03  0.00000000000E+00 0.  1.
        -13    1    3    3    0    0 -0.35960278908E+02  0.81840234582E+01 -0.60739875620E+02  0.71059498939E+02  0.00000000000E+00 0. -1.
         13    1    3    3    0    0 -0.47439789194E+02  0.16688925794E+03 -0.14340653052E+03  0.22509551531E+03  0.00000000000E+00 0.  1.
         21    1    1    2  502  501  0.49303372658E+01 -0.39952671485E+02 -0.40604664992E+02  0.57177469369E+02  0.00000000000E+00 0.  1.
         21    1    1    2  503  502  0.32567647512E+01  0.20371625391E+02  0.93152144001E+01  0.22635875442E+02  0.00000000000E+00 0. -1.
<scales pt_clust_5="13000.00000" pt_clust_6="13000.00000" pt_clust_7="13000.00000" pt_clust_8="13000.00000" pt_clust_9="39.35104" pt_clust_10="20.63031"></scales>
<clustering>
<clus scale="   20.630">  1 10  2 -1</clus>
<clus scale="   39.351">  2  9  1 -1</clus>
<clus scale="   91.792">  7  8 -1 -1</clus>
<clus scale="   96.012">  5  6 -1 -1</clus>
<clus scale="  192.556">  2  7  1 -1</clus>
<clus scale="   20.630">  1  5  2 -1</clus>
</clustering>
</event>
<event>
10    2  0.1133532E-006  0.1001763E+03  0.7546771E-02  0.1280928E+00
         -1   -1    0    0    0  501 -0.00000000000E+00  0.00000000000E+00  0.32085471667E+03  0.32085471667E+03  0.00000000000E+00 0.  1.
          1   -1    0    0  503    0  0.00000000000E+00 -0.00000000000E+00 -0.16735739855E+03  0.16735739855E+03  0.00000000000E+00 0. -1.
         23    2    1    2    0    0  0.19336992956E+01  0.60935528637E+02  0.23332150236E+03  0.25800637192E+03  0.91714157268E+02 0.  0.
         23    2    1    2    0    0 -0.28637569958E+02 -0.24819660301E+02 -0.11987565303E+03  0.15441006327E+03  0.89644684727E+02 0.  0.
        -11    1    3    3    0    0 -0.18345788291E+02  0.51204791882E+02  0.22865351641E+03  0.23503388952E+03  0.00000000000E+00 0.  1.
         11    1    3    3    0    0  0.20279487587E+02  0.97307367541E+01  0.46679859568E+01  0.22972482397E+02  0.00000000000E+00 0. -1.
        -11    1    4    4    0    0 -0.48033635635E+01 -0.51653397691E+02 -0.10172983822E+03  0.11419328255E+03  0.00000000000E+00 0. -1.
         11    1    4    4    0    0 -0.23834206395E+02  0.26833737390E+02 -0.18145814809E+02  0.40216780725E+02  0.00000000000E+00 0.  1.
         21    1    1    2  502  501  0.99123025801E+01 -0.23587662724E+02  0.47175665855E+02  0.53667262126E+02  0.00000000000E+00 0.  1.
         21    1    1    2  503  502  0.16791568083E+02 -0.12528205612E+02 -0.71241970696E+01  0.22128417892E+02  0.00000000000E+00 0.  1.
<scales pt_clust_5="13000.00000" pt_clust_6="13000.00000" pt_clust_7="13000.00000" pt_clust_8="13000.00000" pt_clust_9="25.97045" pt_clust_10="20.95024"></scales>
<clustering>
<clus scale="   20.950">  2 10  1 -1</clus>
<clus scale="   25.970">  1  9  2 -1</clus>
<clus scale="   89.645">  7  8 -1 -1</clus>
<clus scale="   91.714">  5  6 -1 -1</clus>
<clus scale="   98.285">  2  7  1 -1</clus>
<clus scale="   20.950">  2  5  1 -1</clus>
</clustering>
</event>
<event>
10    2  0.1133532E-006  0.1295878E+03  0.7546771E-02  0.1228812E+00
         -1   -1    0    0    0  501 -0.00000000000E+00  0.00000000000E+00  0.32118234200E+03  0.32118234200E+03  0.00000000000E+00 0.  1.
          1   -1    0    0  503    0  0.00000000000E+00 -0.00000000000E+00 -0.17173039431E+03  0.17173039431E+03  0.00000000000E+00 0. -1.
         23    2    1    2    0    0 -0.90421581518E+02  0.15476114124E+02  0.19722769167E+03  0.23647677249E+03  0.92773536369E+02 0.  0.
         23    2    1    2    0    0  0.69681522762E+02  0.13211818779E+02 -0.57192618896E+02  0.13197308167E+03  0.95476865573E+02 0.  0.
        -11    1    4    4    0    0  0.18964489220E+02  0.33515684346E+02 -0.66218876579E+02  0.76602170752E+02  0.00000000000E+00 0. -1.
         11    1    4    4    0    0  0.50717033542E+02 -0.20303865567E+02  0.90262576828E+01  0.55370910919E+02  0.00000000000E+00 0.  1.
        -13    1    3    3    0    0 -0.70994484319E+02  0.51201528608E+02  0.11291360482E+03  0.14286810522E+03  0.00000000000E+00 0. -1.
         13    1    3    3    0    0 -0.19427097198E+02 -0.35725414484E+02  0.84314086855E+02  0.93608667269E+02  0.00000000000E+00 0.  1.
         21    1    1    2  502  501 -0.59345734330E+00 -0.37343328073E+02  0.58981756123E+02  0.69812061268E+02  0.00000000000E+00 0. -1.
         21    1    1    2  503  502  0.21333516099E+02  0.86553951690E+01 -0.49564881211E+02  0.54650820891E+02  0.00000000000E+00 0. -1.
<scales pt_clust_5="13000.00000" pt_clust_6="13000.00000" pt_clust_7="13000.00000" pt_clust_8="13000.00000" pt_clust_9="36.95339" pt_clust_10="23.02248"></scales>
<clustering>
<clus scale="   23.022">  2 10  1 -1</clus>
<clus scale="   36.953">  1  9  2 -1</clus>
<clus scale="   92.774">  7  8 -1 -1</clus>
<clus scale="   95.477">  5  6 -1 -1</clus>
<clus scale="  127.609">  1  7  2 -1</clus>
<clus scale="   23.022">  2  5  1 -1</clus>
</clustering>
</event>
<event>
10    2  0.1133532E-006  0.9552922E+02  0.7546771E-02  0.1290865E+00
         -3   -1    0    0    0  501 -0.00000000000E+00  0.00000000000E+00  0.36292247956E+03  0.36292247956E+03  0.00000000000E+00 0.  1.
          3   -1    0    0  503    0  0.00000000000E+00 -0.00000000000E+00 -0.10021011380E+03  0.10021011380E+03  0.00000000000E+00 0. -1.
         23    2    1    2    0    0  0.18305054860E+01 -0.15742621550E+01  0.25879270522E+03  0.27464272302E+03  0.91919160039E+02 0.  0.
         23    2    1    2    0    0  0.71457227197E+01 -0.12126324849E+02 -0.38754813212E+02  0.10219403239E+03  0.93507088506E+02 0.  0.
        -11    1    3    3    0    0  0.31956783480E+02 -0.33590236128E+02  0.10701304084E+03  0.11662474388E+03  0.00000000000E+00 0. -1.
         11    1    3    3    0    0 -0.30126277994E+02  0.32015973973E+02  0.15177966437E+03  0.15801797914E+03  0.00000000000E+00 0.  1.
        -13    1    4    4    0    0 -0.26386603510E+02  0.18902195332E+02  0.11352121019E+02  0.34386283382E+02  0.00000000000E+00 0.  1.
         13    1    4    4    0    0  0.33532326230E+02 -0.31028520181E+02 -0.50106934231E+02  0.67807749004E+02  0.00000000000E+00 0. -1.
         21    1    1    2  502  501  0.12685785488E+02  0.22389489470E+02  0.54397631137E+02  0.60177409927E+02  0.00000000000E+00 0.  1.
         21    1    1    2  503  502 -0.21662013694E+02 -0.86889024662E+01 -0.11723157388E+02  0.26118428024E+02  0.00000000000E+00 0. -1.
<scales pt_clust_5="13000.00000" pt_clust_6="13000.00000" pt_clust_7="13000.00000" pt_clust_8="13000.00000" pt_clust_9="25.09056" pt_clust_10="23.33966"></scales>
<clustering>
<clus scale="   23.340">  2 10  1 -1</clus>
<clus scale="   25.091">  1  9  2 -1</clus>
<clus scale="   91.919">  5  6 -1 -1</clus>
<clus scale="   93.507">  7  8 -1 -1</clus>
<clus scale="   93.975">  1  5  2 -1</clus>
<clus scale="   23.340">  2  5  1 -1</clus>
</clustering>
</event>
<event>
10    2  0.1133532E-006  0.2998993E+03  0.7546771E-02  0.1085341E+00
         -1   -1    0    0    0  501 -0.00000000000E+00  0.00000000000E+00  0.81455890509E+02  0.81455890509E+02  0.00000000000E+00 0.  1.
          1   -1    0    0  503    0  0.00000000000E+00 -0.00000000000E+00 -0.19241000207E+04  0.19241000207E+04  0.00000000000E+00 0. -1.
         23    2    1    2    0    0 -0.25709891462E+03 -0.33146962740E+02 -0.50961171753E+03  0.57901160751E+03  0.91387996776E+02 0.  0.
         23    2    1    2    0    0  0.29424803392E+03  0.10343332025E+03 -0.11750324122E+04  0.12190549598E+04  0.90074790875E+02 0.  0.
        -11    1    3    3    0    0 -0.17432257859E+03 -0.59665026068E+02 -0.29958572267E+03  0.35170994011E+03  0.00000000000E+00 0.  1.
         11    1    3    3    0    0 -0.82776336024E+02  0.26518063327E+02 -0.21002599486E+03  0.22730166740E+03  0.00000000000E+00 0. -1.
        -13    1    4    4    0    0  0.12881771134E+03  0.89005229874E+02 -0.63815778523E+03  0.65708545301E+03  0.00000000000E+00 0. -1.
         13    1    4    4    0    0  0.16543032258E+03  0.14428090372E+02 -0.53687462698E+03  0.56196950675E+03  0.00000000000E+00 0.  1.
         21    1    1    2  502  501 -0.35485239404E+02 -0.15071341897E+02  0.16137712993E+01  0.38586938463E+02  0.00000000000E+00 0. -1.
         21    1    1    2  503  502 -0.16638799025E+01 -0.55215015608E+02 -0.15961377178E+03  0.16890240551E+03  0.00000000000E+00 0.  1.
<scales pt_clust_5="13000.00000" pt_clust_6="13000.00000" pt_clust_7="13000.00000" pt_clust_8="13000.00000" pt_clust_9="38.55318" pt_clust_10="56.52347"></scales>
<clustering>
<clus scale="   38.553">  1  9  2 -1</clus>
<clus scale="   56.523">  2 10  1 -1</clus>
<clus scale="   90.075">  7  8 -1 -1</clus>
<clus scale="   91.388">  5  6 -1 -1</clus>
<clus scale="  299.502">  2  7  1 -1</clus>
<clus scale="   56.523">  2  5  1 -1</clus>
</clustering>
</event>
<event>
10    2  0.1133532E-006  0.9957222E+02  0.7546771E-02  0.1282889E+00
         -2   -1    0    0    0  501 -0.00000000000E+00  0.00000000000E+00  0.16136206203E+03  0.16136206203E+03  0.00000000000E+00 0.  1.
          2   -1    0    0  503    0  0.00000000000E+00 -0.00000000000E+00 -0.22423193594E+03  0.22423193594E+03  0.00000000000E+00 0. -1.
         23    2    1    2    0    0 -0.67883149249E+01 -0.11381908111E+02  0.97183445546E+02  0.13237011497E+03  0.88890923025E+02 0.  0.
         23    2    1    2    0    0  0.27174365983E+02  0.58606813302E+02 -0.71576970904E+02  0.13346928761E+03  0.92290753810E+02 0.  0.
        -13    1    4    4    0    0 -0.10377650270E+02  0.54890696464E+02 -0.77226530544E+02  0.95313279260E+02  0.00000000000E+00 0. -1.
         13    1    4    4    0    0  0.37552016252E+02  0.37161168375E+01  0.56495596393E+01  0.38156008348E+02  0.00000000000E+00 0.  1.
        -13    1    3    3    0    0  0.38443174618E+02 -0.89111711681E+01  0.67572557451E+02  0.78251755040E+02  0.00000000000E+00 0.  1.
         13    1    3    3    0    0 -0.45231489543E+02 -0.24707369434E+01  0.29610888095E+02  0.54118359927E+02  0.00000000000E+00 0. -1.
         21    1    1    2  502  501 -0.14788735367E+02 -0.18022878724E+02  0.30567182933E+01  0.23513280885E+02  0.00000000000E+00 0.  1.
         21    1    1    2  503  502 -0.55973156912E+01 -0.29202026466E+02 -0.91533066848E+02  0.96241314513E+02  0.00000000000E+00 0. -1.
<scales pt_clust_5="13000.00000" pt_clust_6="13000.00000" pt_clust_7="13000.00000" pt_clust_8="13000.00000" pt_clust_9="23.31375" pt_clust_10="30.05981"></scales>
<clustering>
<clus scale="   23.314">  1  9  2 -1</clus>
<clus scale="   30.060">  2 10  1 -1</clus>
<clus scale="   88.891">  7  8 -1 -1</clus>
<clus scale="   92.291">  5  6 -1 -1</clus>
<clus scale="   96.429">  1  7  2 -1</clus>
<clus scale="   30.060">  2  5  1 -1</clus>
</clustering>
</event>
<event>
10    2  0.1133532E-006  0.1802249E+03  0.7546771E-02  0.1191748E+00
          2   -1    0    0  502    0  0.00000000000E+00  0.00000000000E+00  0.84902411140E+02  0.84902411140E+02  0.00000000000E+00 0. -1.
         -2   -1    0    0    0  501 -0.00000000000E+00 -0.00000000000E+00 -0.17091205856E+04  0.17091205856E+04  0.00000000000E+00 0.  1.
         23    2    1    2    0    0  0.19752336610E+03  0.52665993900E+02 -0.43383357206E+03  0.48815347847E+03  0.91066257389E+02 0.  0.
         23    2    1    2    0    0 -0.38800811853E+02 -0.28777660113E+02 -0.13651004330E+02  0.10400748076E+03  0.91090885458E+02 0.  0.
        -11    1    3    3    0    0  0.22966518700E+02 -0.23907235267E+02 -0.66931607185E+02  0.74691745994E+02  0.00000000000E+00 0. -1.
         11    1    3    3    0    0  0.17455684740E+03  0.76573229167E+02 -0.36690196487E+03  0.41346173248E+03  0.00000000000E+00 0.  1.
        -13    1    4    4    0    0 -0.57553489028E+02  0.10748048927E+02 -0.14238217656E+02  0.60254887744E+02  0.00000000000E+00 0.  1.
         13    1    4    4    0    0  0.18752677176E+02 -0.39525709040E+02  0.58721332596E+00  0.43752593019E+02  0.00000000000E+00 0. -1.
         21    1    1    2  502  503 -0.11074702392E+03  0.48524403698E+02 -0.97160995948E+03  0.97910440425E+03  0.00000000000E+00 0.  1.
         21    1    1    2  503  501 -0.47975530325E+02 -0.72412737486E+02 -0.20512363856E+03  0.22275763322E+03  0.00000000000E+00 0. -1.
<scales pt_clust_5="13000.00000" pt_clust_6="13000.00000" pt_clust_7="13000.00000" pt_clust_8="13000.00000" pt_clust_9="155.52475" pt_clust_10="86.86343"></scales>
<clustering>
<clus scale="   86.863">  2 10  1 -1</clus>
<clus scale="   91.066">  5  6 -1 -1</clus>
<clus scale="   91.091">  7  8 -1 -1</clus>
<clus scale="  104.658">  1  7  2 -1</clus>
<clus scale="  155.525">  2  9  1 -1</clus>
<clus scale="  104.658">  1  5  2 -1</clus>
</clustering>
</event>
<event>
10    2  0.1133532E-006  0.1913425E+03  0.7546771E-02  0.1157271E+00
          1   -1    0    0  503    0  0.00000000000E+00  0.00000000000E+00  0.62257571360E+03  0.62257571360E+03  0.00000000000E+00 0. -1.
         -1   -1    0    0    0  501 -0.00000000000E+00 -0.00000000000E+00 -0.15682911921E+03  0.15682911921E+03  0.00000000000E+00 0.  1.
         23    2    1    2    0    0 -0.84994858132E+02  0.13246206917E+03 -0.23271395863E+02  0.18313693655E+03  0.90704211514E+02 0.  0.
         23    2    1    2    0    0  0.78573774633E+02 -0.14606692163E+03  0.45359846105E+03  0.49138788767E+03  0.90559972524E+02 0.  0.
        -11    1    4    4    0    0  0.41153465551E+02 -0.24974680716E+02  0.54835465537E+02  0.72967600237E+02  0.00000000000E+00 0.  1.
         11    1    4    4    0    0  0.37420309082E+02 -0.12109224092E+03  0.39876299551E+03  0.41842028743E+03  0.00000000000E+00 0. -1.
        -13    1    3    3    0    0 -0.18917025185E+02  0.78506281988E+02  0.25734404402E+02  0.84754644258E+02  0.00000000000E+00 0.  1.
         13    1    3    3    0    0 -0.66077832947E+02  0.53955787185E+02 -0.49005800265E+02  0.98382292295E+02  0.00000000000E+00 0. -1.
         21    1    1    2  502  501 -0.32980770948E+02 -0.44286102760E+01 -0.16591145712E+02  0.37183463493E+02  0.00000000000E+00 0.  1.
         21    1    1    2  503  502  0.39401854446E+02  0.18033462736E+02  0.52010674920E+02  0.67696545094E+02  0.00000000000E+00 0. -1.
<scales pt_clust_5="13000.00000" pt_clust_6="13000.00000" pt_clust_7="13000.00000" pt_clust_8="13000.00000" pt_clust_9="33.27678" pt_clust_10="41.41541"></scales>
<clustering>
<clus scale="   33.277">  2  9  1 -1</clus>
<clus scale="   41.415">  1 10  2 -1</clus>
<clus scale="   90.560">  5  6 -1 -1</clus>
<clus scale="   90.704">  7  8 -1 -1</clus>
<clus scale="  191.274">  1  5  2 -1</clus>
<clus scale="   41.415">  1  5  2 -1</clus>
</clustering>
</event>
<event>
10    2  0.1133532E-006  0.1036342E+03  0.7546771E-02  0.1273417E+00
         -4   -1    0    0    0  501 -0.00000000000E+00  0.00000000000E+00  0.14357653293E+03  0.14357653293E+03  0.00000000000E+00 0.  1.
          4   -1    0    0  503    0  0.00000000000E+00 -0.00000000000E+00 -0.31293657390E+03  0.31293657390E+03  0.00000000000E+00 0. -1.
         23    2    1    2    0    0 -0.31139043830E+02  0.28181347842E+02 -0.38546960041E+01  0.99236479968E+02  0.89828680600E+02 0.  0.
         23    2    1    2    0    0  0.75895355684E+02 -0.46564908266E+02 -0.15513853937E+03  0.19956827780E+03  0.88493702659E+02 0.  0.
        -11    1    4    4    0    0  0.46296703082E+02 -0.72603297657E+02 -0.10543932381E+03  0.13613256242E+03  0.00000000000E+00 0. -1.
         11    1    4    4    0    0  0.29598652602E+02  0.26038389391E+02 -0.49699215562E+02  0.63435715377E+02  0.00000000000E+00 0.  1.
        -13    1    3    3    0    0 -0.48252906145E+02  0.51201353847E+02 -0.50969067392E+00  0.70357525339E+02  0.00000000000E+00 0.  1.
         13    1    3    3    0    0  0.17113862315E+02 -0.23020006006E+02 -0.33450053302E+01  0.28878954629E+02  0.00000000000E+00 0. -1.
         21    1    1    2  502  501 -0.17344720704E+02 -0.39979766331E+02  0.52105731339E+02  0.67928111195E+02  0.00000000000E+00 0.  1.
         21    1    1    2  503  502 -0.27411591150E+02  0.58363326755E+02 -0.62472536944E+02  0.89780237867E+02  0.00000000000E+00 0.  1.
<scales pt_clust_5="13000.00000" pt_clust_6="13000.00000" pt_clust_7="13000.00000" pt_clust_8="13000.00000" pt_clust_9="43.58005" pt_clust_10="60.01008"></scales>
<clustering>
<clus scale="   43.580">  1  9  2 -1</clus>
<clus scale="   60.010">  2 10  1 -1</clus>
<clus scale="   88.494">  5  6 -1 -1</clus>
<clus scale="   89.829">  7  8 -1 -1</clus>
<clus scale="  102.479">  2  5  1 -1</clus>
<clus scale="   60.010">  2  5  1 -1</clus>
</clustering>
</event>
<event>
10    2  0.1133532E-006  0.1477580E+03  0.7546771E-02  0.1214537E+00
         -2   -1    0    0    0  501 -0.00000000000E+00  0.00000000000E+00  0.79099225683E+02  0.79099225683E+02  0.00000000000E+00 0.  1.
          2   -1    0    0  503    0  0.00000000000E+00 -0.00000000000E+00 -0.14115937357E+04  0.14115937357E+04  0.00000000000E+00 0. -1.
         23    2    1    2    0    0  0.22162116388E+02 -0.85688711147E+02 -0.52350702844E+02  0.13855035968E+03  0.92854140770E+02 0.  0.
         23    2    1    2    0    0  0.56765976251E+02  0.99962777571E+02 -0.34611387240E+03  0.37540386999E+03  0.88984942442E+02 0.  0.
        -11    1    3    3    0    0  0.38557839333E+02  0.24277141346E+01 -0.16787714604E+02  0.42123961489E+02  0.00000000000E+00 0. -1.
         11    1    3    3    0    0 -0.16395722945E+02 -0.88116425282E+02 -0.35562988239E+02  0.96426398190E+02  0.00000000000E+00 0.  1.
        -13    1    4    4    0    0  0.78066553214E+02  0.61919356898E+02 -0.26833693486E+03  0.28623959212E+03  0.00000000000E+00 0.  1.
         13    1    4    4    0    0 -0.21300576962E+02  0.38043420673E+02 -0.77776937537E+02  0.89164277870E+02  0.00000000000E+00 0. -1.
         21    1    1    2  502  501  0.29236064953E+02  0.43826815432E+02 -0.23021643702E+02  0.57493767694E+02  0.00000000000E+00 0. -1.
         21    1    1    2  503  502 -0.10816415759E+03 -0.58100881857E+02 -0.91100829109E+03  0.91924496403E+03  0.00000000000E+00 0. -1.
<scales pt_clust_5="13000.00000" pt_clust_6="13000.00000" pt_clust_7="13000.00000" pt_clust_8="13000.00000" pt_clust_9="52.68337" pt_clust_10="117.95807"></scales>
<clustering>
<clus scale="   52.683">  1  9  2 -1</clus>
<clus scale="   88.985">  7  8 -1 -1</clus>
<clus scale="   92.854">  5  6 -1 -1</clus>
<clus scale="  116.072">  1  5  2 -1</clus>
<clus scale="  117.958">  2 10  1 -1</clus>
<clus scale="  117.958">  2  5  1 -1</clus>
</clustering>
</event>
<event>
10    2  0.1133532E-006  0.1145641E+03  0.7546771E-02  0.1253149E+00
         -1   -1    0    0    0  501 -0.00000000000E+00  0.00000000000E+00  0.55603789164E+03  0.55603789164E+03  0.00000000000E+00 0.  1.
          1   -1    0    0  503    0  0.00000000000E+00 -0.00000000000E+00 -0.69878710309E+02  0.69878710309E+02  0.00000000000E+00 0. -1.
         23    2    1    2    0    0 -0.35765580665E+02  0.42603053540E+02  0.36230417921E+03  0.37830502847E+03  0.93574458909E+02 0.  0.
         23    2    1    2    0    0 -0.13220373365E+02 -0.65230133835E+02  0.18953759759E+02  0.11459223806E+03  0.91336670531E+02 0.  0.
        -11    1    4    4    0    0 -0.47880326413E+02 -0.60896717110E+02  0.74788488276E+01  0.77825888957E+02  0.00000000000E+00 0.  1.
         11    1    4    4    0    0  0.34659953048E+02 -0.43334167251E+01  0.11474910931E+02  0.36766349108E+02  0.00000000000E+00 0. -1.
        -11    1    3    3    0    0 -0.88206084982E+01 -0.29585645666E+02  0.82578973561E+02  0.88161218447E+02  0.00000000000E+00 0.  1.
         11    1    3    3    0    0 -0.26944972166E+02  0.72188699206E+02  0.27972520565E+03  0.29014381002E+03  0.00000000000E+00 0. -1.
         21    1    1    2  502  501  0.41764720618E+01  0.24515271319E+02  0.75254458369E+02  0.79257018309E+02  0.00000000000E+00 0. -1.
         21    1    1    2  503  502  0.44809481967E+02 -0.18881910241E+01  0.29646783989E+02  0.53762317105E+02  0.00000000000E+00 0. -1.
<scales pt_clust_5="13000.00000" pt_clust_6="13000.00000" pt_clust_7="13000.00000" pt_clust_8="13000.00000" pt_clust_9="24.86848" pt_clust_10="45.17395"></scales>
<clustering>
<clus scale="   24.868">  1  9  2 -1</clus>
<clus scale="   45.174">  2 10  1 -1</clus>
<clus scale="   91.337">  5  6 -1 -1</clus>
<clus scale="   93.574">  7  8 -1 -1</clus>
<clus scale="  112.744">  2  5  1 -1</clus>
<clus scale="   45.174">  2  5  1 -1</clus>
</clustering>
</event>
<event>
10    2  0.1133532E-006  0.1342116E+03  0.7546771E-02  0.1221440E+00
         -1   -1    0    0    0  501 -0.00000000000E+00  0.00000000000E+00  0.33186526848E+03  0.33186526848E+03  0.00000000000E+00 0.  1.
          1   -1    0    0  503    0  0.00000000000E+00 -0.00000000000E+00 -0.39312074385E+03  0.39312074385E+03  0.00000000000E+00 0. -1.
         23    2    1    2    0    0 -0.54324542726E+02  0.12211535482E+03 -0.49067738952E+02  0.16838382272E+03  0.89900794892E+02 0.  0.
         23    2    1    2    0    0  0.39039192988E+02 -0.58918759559E+02 -0.98055170057E+02  0.15089665447E+03  0.90329979182E+02 0.  0.
        -11    1    4    4    0    0  0.60280493121E+02 -0.11445987842E+02 -0.64393587778E+02  0.88945391311E+02  0.00000000000E+00 0.  1.
         11    1    4    4    0    0 -0.21241300133E+02 -0.47472771717E+02 -0.33661582279E+02  0.61951263161E+02  0.00000000000E+00 0. -1.
        -13    1    3    3    0    0 -0.32371053810E+02  0.12095974318E+03 -0.65144491655E+02  0.14114867830E+03  0.00000000000E+00 0. -1.
         13    1    3    3    0    0 -0.21953488916E+02  0.11556116444E+01  0.16076752702E+02  0.27235144415E+02  0.00000000000E+00 0.  1.
         21    1    1    2  502  501 -0.66337736337E+01 -0.39948912160E+02  0.24249452788E+03  0.24585263592E+03  0.00000000000E+00 0.  1.
         21    1    1    2  503  502  0.21919123372E+02 -0.23247683101E+02 -0.15662709424E+03  0.15985289922E+03  0.00000000000E+00 0. -1.
<scales pt_clust_5="13000.00000" pt_clust_6="13000.00000" pt_clust_7="13000.00000" pt_clust_8="13000.00000" pt_clust_9="40.63464" pt_clust_10="31.95157"></scales>
<clustering>
<clus scale="   31.952">  2 10  1 -1</clus>
<clus scale="   40.635">  1  9  2 -1</clus>
<clus scale="   89.901">  7  8 -1 -1</clus>
<clus scale="   90.330">  5  6 -1 -1</clus>
<clus scale="  133.923">  1  7  2 -1</clus>
<clus scale="   31.952">  2  5  1 -1</clus>
</clustering>
</event>
<event>
10    2  0.1133532E-006  0.9448418E+02  0.7546771E-02  0.1295124E+00
         -1   -1    0    0    0  501 -0.00000000000E+00  0.00000000000E+00  0.26794311258E+03  0.26794311258E+03  0.00000000000E+00 0.  1.
          1   -1    0    0  503    0  0.00000000000E+00 -0.00000000000E+00 -0.72023314401E+02  0.72023314401E+02  0.00000000000E+00 0. -1.
         23    2    1    2    0    0 -0.32828873998E+01  0.48215945700E-01  0.12673033915E+03  0.15630220844E+03  0.91427686330E+02 0.  0.
         23    2    1    2    0    0  0.25275665755E+02 -0.40000731803E+02  0.24002385432E+02  0.10146657024E+03  0.86489493843E+02 0.  0.
        -11    1    3    3    0    0  0.30779917917E+02  0.19889916045E+02  0.18368572552E+02  0.40992884320E+02  0.00000000000E+00 0.  1.
         11    1    3    3    0    0 -0.34062805317E+02 -0.19841700100E+02  0.10836176660E+03  0.11530932412E+03  0.00000000000E+00 0. -1.
        -11    1    4    4    0    0 -0.17513314739E+02  0.10791873847E+02  0.28216551989E+02  0.34919257444E+02  0.00000000000E+00 0. -1.
         11    1    4    4    0    0  0.42788980494E+02 -0.50792605650E+02 -0.42141665570E+01  0.66547312794E+02  0.00000000000E+00 0.  1.
         21    1    1    2  502  501 -0.17018149601E+02  0.13324524445E+02  0.50194315174E+02  0.54650065355E+02  0.00000000000E+00 0. -1.
         21    1    1    2  503  502 -0.49746287540E+01  0.26627991412E+02 -0.50072415789E+01  0.27547582945E+02  0.00000000000E+00 0. -1.
<scales pt_clust_5="13000.00000" pt_clust_6="13000.00000" pt_clust_7="13000.00000" pt_clust_8="13000.00000" pt_clust_9="21.61389" pt_clust_10="27.94702"></scales>
<clustering>
<clus scale="   21.614">  1  9  2 -1</clus>
<clus scale="   27.947">  2 10  1 -1</clus>
<clus scale="   86.489">  7  8 -1 -1</clus>
<clus scale="   89.714">  2  7  1 -1</clus>
<clus scale="   91.428">  5  6 -1 -1</clus>
<clus scale="   27.947">  2  5  1 -1</clus>
</clustering>
</event>
<event>
10    2  0.1133532E-006  0.1476894E+03  0.7546771E-02  0.1205122E+00
          2   -1    0    0  503    0  0.00000000000E+00  0.00000000000E+00  0.20803106018E+03  0.20803106018E+03  0.00000000000E+00 0. -1.
         -2   -1    0    0    0  501 -0.00000000000E+00 -0.00000000000E+00 -0.31044543744E+03  0.31044543744E+03  0.00000000000E+00 0.  1.
         23    2    1    2    0    0 -0.90967417508E+02 -0.10816360554E+01 -0.10195053937E+03  0.16870817112E+03  0.98956018209E+02 0.  0.
         23    2    1    2    0    0  0.99852478782E+02  0.39994026834E+02  0.10844206885E+03  0.17750903154E+03  0.90441883438E+02 0.  0.
        -11    1    4    4    0    0  0.54001486372E+02 -0.93894890271E+01  0.93659747461E+02  0.10851945139E+03  0.00000000000E+00 0.  1.
         11    1    4    4    0    0  0.45850992410E+02  0.49383515861E+02  0.14782321386E+02  0.68989580150E+02  0.00000000000E+00 0. -1.
        -11    1    3    3    0    0 -0.65039430803E+02 -0.21826231133E+02 -0.11427739698E+03  0.13328854184E+03  0.00000000000E+00 0.  1.
         11    1    3    3    0    0 -0.25927986705E+02  0.20744595078E+02  0.12326857615E+02  0.35419629278E+02  0.00000000000E+00 0. -1.
         21    1    1    2  502  501 -0.26391302291E+02 -0.22717639603E+02 -0.13352047811E+03  0.13798663001E+03  0.00000000000E+00 0.  1.
         21    1    1    2  503  502  0.17506241018E+02 -0.16194751175E+02  0.24614571367E+02  0.34272664965E+02  0.00000000000E+00 0.  1.
<scales pt_clust_5="13000.00000" pt_clust_6="13000.00000" pt_clust_7="13000.00000" pt_clust_8="13000.00000" pt_clust_9="34.78976" pt_clust_10="23.84824"></scales>
<clustering>
<clus scale="   23.848">  1 10  2 -1</clus>
<clus scale="   34.790">  2  9  1 -1</clus>
<clus scale="   90.442">  5  6 -1 -1</clus>
<clus scale="   98.956">  7  8 -1 -1</clus>
<clus scale="  142.125">  1  5  2 -1</clus>
<clus scale="   23.848">  1  5  2 -1</clus>
</clustering>
</event>
<event>
10    2  0.1133532E-006  0.2774764E+03  0.7546771E-02  0.1097254E+00
         -3   -1    0    0    0  501 -0.00000000000E+00  0.00000000000E+00  0.10831149733E+04  0.10831149733E+04  0.00000000000E+00 0.  1.
          3   -1    0    0  503    0  0.00000000000E+00 -0.00000000000E+00 -0.12053379832E+03  0.12053379832E+03  0.00000000000E+00 0. -1.
         23    2    1    2    0    0 -0.14863751254E+03 -0.25057699229E+03  0.54735153499E+03  0.62631153386E+03  0.88263782993E+02 0.  0.
         23    2    1    2    0    0  0.11417624895E+03  0.20525070759E+03  0.25031393433E+03  0.35542473296E+03  0.92225843926E+02 0.  0.
        -11    1    3    3    0    0 -0.12017898825E+03 -0.12031352947E+03  0.28100184911E+03  0.32845147860E+03  0.00000000000E+00 0.  1.
         11    1    3    3    0    0 -0.28458524289E+02 -0.13026346282E+03  0.26634968588E+03  0.29786005526E+03  0.00000000000E+00 0. -1.
        -13    1    4    4    0    0  0.47070222540E+02  0.83961041663E+02  0.16962959345E+03  0.19503656412E+03  0.00000000000E+00 0.  1.
         13    1    4    4    0    0  0.67106026407E+02  0.12128966593E+03  0.80684340872E+02  0.16038816884E+03  0.00000000000E+00 0. -1.
         21    1    1    2  502  501  0.16474731741E+02  0.23770633753E+02  0.18509343020E+03  0.18733936511E+03  0.00000000000E+00 0.  1.
         21    1    1    2  503  502  0.17986531852E+02  0.21555650946E+02 -0.20177724582E+02  0.34573139647E+02  0.00000000000E+00 0. -1.
<scales pt_clust_5="13000.00000" pt_clust_6="13000.00000" pt_clust_7="13000.00000" pt_clust_8="13000.00000" pt_clust_9="29.25870" pt_clust_10="28.07421"></scales>
<clustering>
<clus scale="   28.074">  2 10  1 -1</clus>
<clus scale="   29.259">  1  9  2 -1</clus>
<clus scale="   88.264">  5  6 -1 -1</clus>
<clus scale="   92.226">  7  8 -1 -1</clus>
<clus scale="  276.185">  1  5  2 -1</clus>
<clus scale="   28.074">  2  5  1 -1</clus>
</clustering>
</event>
<event>
10    2  0.1133532E-006  0.1133930E+03  0.7546771E-02  0.1254680E+00
          2   -1    0    0  503    0  0.00000000000E+00  0.00000000000E+00  0.47873101956E+03  0.47873101956E+03  0.00000000000E+00 0. -1.
         -2   -1    0    0    0  501 -0.00000000000E+00 -0.00000000000E+00 -0.97300129448E+02  0.97300129448E+02  0.00000000000E+00 0.  1.
         23    2    1    2    0    0 -0.35681431246E+02  0.19026652203E+02  0.13255351625E+02  0.10131450700E+03  0.91944260030E+02 0.  0.
         23    2    1    2    0    0  0.88780867655E+02 -0.18535799980E+02  0.30223371231E+03  0.32846465646E+03  0.91204141046E+02 0.  0.
        -11    1    3    3    0    0 -0.50207058932E+02  0.42120424552E+02 -0.89425051130E+01  0.66142628680E+02  0.00000000000E+00 0.  1.
         11    1    3    3    0    0  0.14525627685E+02 -0.23093772349E+02  0.22197856738E+02  0.35171878322E+02  0.00000000000E+00 0. -1.
        -13    1    4    4    0    0  0.20429422840E+02 -0.43874759520E+02  0.70331428468E+02  0.85374853855E+02  0.00000000000E+00 0.  1.
         13    1    4    4    0    0  0.68351444815E+02  0.25338959539E+02  0.23190228385E+03  0.24308980261E+03  0.00000000000E+00 0. -1.
         21    1    1    2  502  501 -0.30072965719E+02  0.21175148342E+01 -0.32962060124E+02  0.44669503510E+02  0.00000000000E+00 0.  1.
         21    1    1    2  503  502 -0.23026470690E+02 -0.26083670573E+01  0.98903886292E+02  0.10158248203E+03  0.00000000000E+00 0.  1.
<scales pt_clust_5="13000.00000" pt_clust_6="13000.00000" pt_clust_7="13000.00000" pt_clust_8="13000.00000" pt_clust_9="30.49991" pt_clust_10="23.17373"></scales>
<clustering>
<clus scale="   23.174">  1 10  2 -1</clus>
<clus scale="   30.500">  2  9  1 -1</clus>
<clus scale="   91.204">  7  8 -1 -1</clus>
<clus scale="   91.944">  5  6 -1 -1</clus>
<clus scale="  112.794">  1  7  2 -1</clus>
<clus scale="   23.174">  1  5  2 -1</clus>
</clustering>
</event>
<event>
10    2  0.1133532E-006  0.1564758E+03  0.7546771E-02  0.1192994E+00
          1   -1    0    0  503    0  0.00000000000E+00  0.00000000000E+00  0.95955255974E+03  0.95955255974E+03  0.00000000000E+00 0. -1.
         -1   -1    0    0    0  501 -0.00000000000E+00 -0.00000000000E+00 -0.24117160883E+03  0.24117160883E+03  0.00000000000E+00 0.  1.
         23    2    1    2    0    0 -0.41983213855E+02 -0.10465375004E+03  0.50508559975E+02  0.15339564090E+03  0.90907152481E+02 0.  0.
         23    2    1    2    0    0  0.93263287560E+02  0.65860963093E+02  0.75558912719E+03  0.76973575776E+03  0.92425647903E+02 0.  0.
        -13    1    4    4    0    0 -0.13983542620E+02  0.22174364685E+02  0.77098178060E+02  0.81433230155E+02  0.00000000000E+00 0.  1.
         13    1    4    4    0    0  0.10724683018E+03  0.43686598408E+02  0.67849094913E+03  0.68830252761E+03  0.00000000000E+00 0. -1.
        -13    1    3    3    0    0 -0.37947716721E+02 -0.48420588923E+02 -0.18542314675E+02  0.64252626946E+02  0.00000000000E+00 0.  1.
         13    1    3    3    0    0 -0.40354971349E+01 -0.56233161115E+02  0.69050874649E+02  0.89143013949E+02  0.00000000000E+00 0. -1.
         21    1    1    2  502  501 -0.67561611355E+02  0.26060021578E+02 -0.17421188376E+03  0.18866233460E+03  0.00000000000E+00 0.  1.
         21    1    1    2  503  502  0.16281537650E+02  0.12732765367E+02  0.86495147512E+02  0.88930435314E+02  0.00000000000E+00 0.  1.
<scales pt_clust_5="13000.00000" pt_clust_6="13000.00000" pt_clust_7="13000.00000" pt_clust_8="13000.00000" pt_clust_9="72.32560" pt_clust_10="20.66910"></scales>
<clustering>
<clus scale="   20.669">  1 10  2 -1</clus>
<clus scale="   72.326">  2  9  1 -1</clus>
<clus scale="   90.907">  7  8 -1 -1</clus>
<clus scale="   92.426">  5  6 -1 -1</clus>
<clus scale="  155.584">  2  7  1 -1</clus>
<clus scale="   20.669">  1  5  2 -1</clus>
</clustering>
</event>
<event>
10    2  0.1133532E-006  0.2081346E+03  0.7546771E-02  0.1143136E+00
         -1   -1    0    0    0  501 -0.00000000000E+00  0.00000000000E+00  0.65474979251E+03  0.65474979251E+03  0.00000000000E+00 0.  1.
          1   -1    0    0  502    0  0.00000000000E+00 -0.00000000000E+00 -0.38052982517E+03  0.38052982517E+03  0.00000000000E+00 0. -1.
         23    2    1    2    0    0 -0.35190484578E+02  0.19664329069E+03  0.55464801104E+03  0.59688425796E+03  0.93431511145E+02 0.  0.
         23    2    1    2    0    0  0.63846327840E+02 -0.10143675178E+03 -0.62934003888E+02  0.16395311495E+03  0.92488739141E+02 0.  0.
        -13    1    4    4    0    0 -0.10039766368E+02 -0.21202219424E+02 -0.48570749499E+02  0.53939305930E+02  0.00000000000E+00 0. -1.
         13    1    4    4    0    0  0.73886094209E+02 -0.80234532353E+02 -0.14363254388E+02  0.11001380902E+03  0.00000000000E+00 0.  1.
        -13    1    3    3    0    0 -0.15307356255E+02  0.18750943373E+03  0.53625845680E+03  0.56830206351E+03  0.00000000000E+00 0.  1.
         13    1    3    3    0    0 -0.19883128323E+02  0.91338569573E+01  0.18389554237E+02  0.28582194455E+02  0.00000000000E+00 0. -1.
         21    1    1    2  502  503  0.76530861770E+01 -0.46367375609E+02  0.16312716281E+01  0.47023018789E+02  0.00000000000E+00 0. -1.
         21    1    1    2  503  501 -0.36308929440E+02 -0.48839163302E+02 -0.21912531144E+03  0.22741922597E+03  0.00000000000E+00 0. -1.
<scales pt_clust_5="13000.00000" pt_clust_6="13000.00000" pt_clust_7="13000.00000" pt_clust_8="13000.00000" pt_clust_9="46.99472" pt_clust_10="83.92020"></scales>
<clustering>
<clus scale="   46.995">  2  9  1 -1</clus>
<clus scale="   83.920">  2 10  1 -1</clus>
<clus scale="   92.489">  5  6 -1 -1</clus>
<clus scale="   93.432">  7  8 -1 -1</clus>
<clus scale="  207.713">  2  5  1 -1</clus>
<clus scale="   46.995">  2  5  1 -1</clus>
</clustering>
</event>
<event>
10    2  0.1133532E-006  0.9472671E+02  0.7546771E-02  0.1292252E+00
          1   -1    0    0  503    0  0.00000000000E+00  0.00000000000E+00  0.37506801887E+03  0.37506801887E+03  0.00000000000E+00 0. -1.
         -1   -1    0    0    0  501 -0.00000000000E+00 -0.00000000000E+00 -0.25973201355E+03  0.25973201355E+03  0.00000000000E+00 0.  1.
         23    2    1    2    0    0 -0.18673317138E+00 -0.27431816758E+02 -0.16394109967E+03  0.18922536901E+03  0.90426858164E+02 0.  0.
         23    2    1    2    0    0  0.77980597801E+02 -0.30538059101E+02  0.13808385508E+03  0.18467561440E+03  0.89578930738E+02 0.  0.
        -11    1    4    4    0    0  0.71434949841E+02  0.25694788260E+01  0.42159819346E+02  0.82987978933E+02  0.00000000000E+00 0.  1.
         11    1    4    4    0    0  0.65456479604E+01 -0.33107537927E+02  0.95924035732E+02  0.10168763546E+03  0.00000000000E+00 0. -1.
        -13    1    3    3    0    0  0.21612204938E+02  0.27637858015E+02 -0.55357658429E+02  0.65539369425E+02  0.00000000000E+00 0. -1.
         13    1    3    3    0    0 -0.21798938110E+02 -0.55069674773E+02 -0.10858344124E+03  0.12368599959E+03  0.00000000000E+00 0.  1.
         21    1    1    2  502  501 -0.22006643389E+02  0.97811048500E+01 -0.50266500463E+02  0.55737630324E+02  0.00000000000E+00 0.  1.
         21    1    1    2  503  502 -0.55787221241E+02  0.48188771009E+02  0.19145975037E+03  0.20516141868E+03  0.00000000000E+00 0. -1.
<scales pt_clust_5="13000.00000" pt_clust_6="13000.00000" pt_clust_7="13000.00000" pt_clust_8="13000.00000" pt_clust_9="24.08241" pt_clust_10="74.48233"></scales>
<clustering>
<clus scale="   24.082">  2  9  1 -1</clus>
<clus scale="   74.482">  1 10  2 -1</clus>
<clus scale="   89.579">  5  6 -1 -1</clus>
<clus scale="   90.427">  7  8 -1 -1</clus>
<clus scale="   93.918">  1  5  2 -1</clus>
<clus scale="   74.482">  1  5  2 -1</clus>
</clustering>
</event>
<event>
10    2  0.1514575E-006  0.2026331E+03  0.7546771E-02  0.1147725E+00
          1   -1    0    0  503    0  0.00000000000E+00  0.00000000000E+00  0.48663302792E+03  0.48663302792E+03  0.00000000000E+00 0. -1.
         -1   -1    0    0    0  501 -0.00000000000E+00 -0.00000000000E+00 -0.42301663356E+03  0.42301663356E+03  0.00000000000E+00 0.  1.
         23    2    1    2    0    0  0.12824922104E+03 -0.13358140267E+03 -0.27241098607E+03  0.34180931404E+03  0.91290788122E+02 0.  0.
         23    2    1    2    0    0 -0.18574043357E+03  0.34170276183E+02  0.35466956015E+03  0.41161142655E+03  0.89254429218E+02 0.  0.
        -11    1    4    4    0    0 -0.55721505776E+02  0.59663475422E+00  0.37448470752E+02  0.67138886948E+02  0.00000000000E+00 0.  1.
         11    1    4    4    0    0 -0.13001892780E+03  0.33573641429E+02  0.31722108940E+03  0.34447253961E+03  0.00000000000E+00 0. -1.
        -11    1    3    3    0    0  0.92763588050E+02 -0.11713749383E+03 -0.26154464286E+03  0.30121732343E+03  0.00000000000E+00 0.  1.
         11    1    3    3    0    0  0.35485632989E+02 -0.16443908839E+02 -0.10866343212E+02  0.40591990606E+02  0.00000000000E+00 0. -1.
         21    1    1    2  502  501  0.20737421570E+02  0.29307887915E+02 -0.57704148008E+02  0.67961471767E+02  0.00000000000E+00 0.  1.
         21    1    1    2  503  502  0.36753790965E+02  0.70103238571E+02  0.39061968289E+02  0.88267449125E+02  0.00000000000E+00 0.  1.
<scales pt_clust_5="13000.00000" pt_clust_6="13000.00000" pt_clust_7="13000.00000" pt_clust_8="13000.00000" pt_clust_9="35.90255" pt_clust_10="81.58506"></scales>
<clustering>
<clus scale="   35.903">  2  9  1 -1</clus>
<clus scale="   81.585">  1 10  2 -1</clus>
<clus scale="   89.254">  5  6 -1 -1</clus>
<clus scale="   91.291">  7  8 -1 -1</clus>
<clus scale="  201.724">  1  5  2 -1</clus>
<clus scale="   81.585">  1  5  2 -1</clus>
</clustering>
</event>
<event>
10    2  0.1133532E-006  0.1111743E+03  0.7546771E-02  0.1260438E+00
          1   -1    0    0  503    0  0.00000000000E+00  0.00000000000E+00  0.38060637852E+03  0.38060637852E+03  0.00000000000E+00 0. -1.
         -1   -1    0    0    0  501 -0.00000000000E+00 -0.00000000000E+00 -0.11193187163E+03  0.11193187163E+03  0.00000000000E+00 0.  1.
         23    2    1    2    0    0 -0.74940609296E+02 -0.13105544469E+02 -0.35540097164E+02  0.12342134196E+03  0.90453739156E+02 0.  0.
         23    2    1    2    0    0  0.36288244414E+02 -0.27904757779E+02  0.18642884557E+03  0.21443071461E+03  0.95547395152E+02 0.  0.
        -11    1    3    3    0    0 -0.25936076520E+02 -0.18280147365E+02 -0.60400779200E+02  0.68228278455E+02  0.00000000000E+00 0.  1.
         11    1    3    3    0    0 -0.49004532777E+02  0.51746028955E+01  0.24860682036E+02  0.55193063505E+02  0.00000000000E+00 0. -1.
        -11    1    4    4    0    0  0.29915164717E+02  0.12022200604E+02  0.10487544388E+02  0.33903377040E+02  0.00000000000E+00 0.  1.
         11    1    4    4    0    0  0.63730796966E+01 -0.39926958382E+02  0.17594130118E+03  0.18052733757E+03  0.00000000000E+00 0. -1.
         21    1    1    2  502  501  0.17248894674E+02  0.10995165729E+02 -0.92208975311E+01  0.22437535251E+02  0.00000000000E+00 0.  1.
         21    1    1    2  503  502  0.21403470209E+02  0.30015136519E+02  0.12700665601E+03  0.13224865832E+03  0.00000000000E+00 0. -1.
<scales pt_clust_5="13000.00000" pt_clust_6="13000.00000" pt_clust_7="13000.00000" pt_clust_8="13000.00000" pt_clust_9="20.45527" pt_clust_10="37.38271"></scales>
<clustering>
<clus scale="   20.455">  2  9  1 -1</clus>
<clus scale="   37.383">  1 10  2 -1</clus>
<clus scale="   90.454">  5  6 -1 -1</clus>
<clus scale="   95.547">  7  8 -1 -1</clus>
<clus scale="  106.828">  2  5  1 -1</clus>
<clus scale="   37.383">  1  5  2 -1</clus>
</clustering>
</event>
<event>
10    2  0.1133532E-006  0.1353605E+03  0.7546771E-02  0.1219846E+00
         -2   -1    0    0    0  501 -0.00000000000E+00  0.00000000000E+00  0.10367070052E+03  0.10367070052E+03  0.00000000000E+00 0.  1.
          2   -1    0    0  503    0  0.00000000000E+00 -0.00000000000E+00 -0.30409814182E+03  0.30409814182E+03  0.00000000000E+00 0. -1.
         23    2    1    2    0    0 -0.12600332985E+03 -0.35224990715E+02 -0.81218397901E+02  0.17850633050E+03  0.90279802663E+02 0.  0.
         23    2    1    2    0    0  0.77698652760E+02  0.12886970249E+01 -0.10267384664E+03  0.15693196846E+03  0.89704975126E+02 0.  0.
        -11    1    3    3    0    0 -0.36342040566E+02  0.22677493682E+02  0.24221902353E+01  0.42905473285E+02  0.00000000000E+00 0.  1.
         11    1    3    3    0    0 -0.89661289282E+02 -0.57902484397E+02 -0.83640588136E+02  0.13560085722E+03  0.00000000000E+00 0. -1.
        -13    1    4    4    0    0  0.54097349033E+01 -0.35438337191E+02 -0.19644775783E+02  0.40878578622E+02  0.00000000000E+00 0. -1.
         13    1    4    4    0    0  0.72288917857E+02  0.36727034216E+02 -0.83029070854E+02  0.11605338984E+03  0.00000000000E+00 0.  1.
         21    1    1    2  502  501  0.30388537809E+02  0.13962628434E+02  0.96827952266E+01  0.34816300009E+02  0.00000000000E+00 0. -1.
         21    1    1    2  503  502  0.17916139280E+02  0.19973665256E+02 -0.26217991988E+02  0.37514243353E+02  0.00000000000E+00 0. -1.
<scales pt_clust_5="13000.00000" pt_clust_6="13000.00000" pt_clust_7="13000.00000" pt_clust_8="13000.00000" pt_clust_9="34.58273" pt_clust_10="26.83161"></scales>
<clustering>
<clus scale="   26.832">  2 10  1 -1</clus>
<clus scale="   34.583">  1  9  2 -1</clus>
<clus scale="   89.705">  7  8 -1 -1</clus>
<clus scale="   90.280">  5  6 -1 -1</clus>
<clus scale="  134.978">  2  7  1 -1</clus>
<clus scale="   26.832">  2  5  1 -1</clus>
</clustering>
</event>
<event>
10    2  0.1133532E-006  0.1755284E+03  0.7546771E-02  0.1200067E+00
         -2   -1    0    0    0  501 -0.00000000000E+00  0.00000000000E+00  0.82829357037E+02  0.82829357037E+02  0.00000000000E+00 0.  1.
          2   -1    0    0  503    0  0.00000000000E+00 -0.00000000000E+00 -0.82769604728E+03  0.82769604728E+03  0.00000000000E+00 0. -1.
         23    2    1    2    0    0  0.70727799464E+02  0.10537242310E+03 -0.70677760739E+02  0.18256548464E+03  0.11058499515E+03 0.  0.
         23    2    1    2    0    0  0.97922744514E+01 -0.22047794153E+02 -0.19162899649E+03  0.21349382137E+03  0.90972224346E+02 0.  0.
        -11    1    4    4    0    0  0.31049922549E+02  0.37274396272E+01 -0.16797434179E+02  0.35498525201E+02  0.00000000000E+00 0.  1.
         11    1    4    4    0    0 -0.21257648097E+02 -0.25775233780E+02 -0.17483156231E+03  0.17799529617E+03  0.00000000000E+00 0. -1.
        -13    1    3    3    0    0  0.30155441808E+02  0.10263575942E+03 -0.87850235280E+02  0.13842367435E+03  0.00000000000E+00 0.  1.
         13    1    3    3    0    0  0.40572357656E+02  0.27366636816E+01  0.17172474541E+02  0.44141810291E+02  0.00000000000E+00 0. -1.
         21    1    1    2  502  501  0.22980537661E+02  0.23217731956E+01 -0.13958010811E+02  0.26987437962E+02  0.00000000000E+00 0. -1.
         21    1    1    2  503  502 -0.10350061158E+03 -0.85646402140E+02 -0.46860192220E+03  0.48747866034E+03  0.00000000000E+00 0. -1.
<scales pt_clust_5="13000.00000" pt_clust_6="13000.00000" pt_clust_7="13000.00000" pt_clust_8="13000.00000" pt_clust_9="23.09753" pt_clust_10="136.31285"></scales>
<clustering>
<clus scale="   23.098">  1  9  2 -1</clus>
<clus scale="   90.972">  5  6 -1 -1</clus>
<clus scale="   94.439">  2  5  1 -1</clus>
<clus scale="  110.585">  7  8 -1 -1</clus>
<clus scale="  136.313">  2 10  1 -1</clus>
<clus scale="   94.439">  2  5  1 -1</clus>
</clustering>
</event>
<event>
10    2  0.1133532E-006  0.1766721E+03  0.7546771E-02  0.1171821E+00
         -2   -1    0    0    0  501 -0.00000000000E+00  0.00000000000E+00  0.70430761315E+02  0.70430761315E+02  0.00000000000E+00 0.  1.
          2   -1    0    0  503    0  0.00000000000E+00 -0.00000000000E+00 -0.13789115908E+04  0.13789115908E+04  0.00000000000E+00 0. -1.
         23    2    1    2    0    0 -0.60268829761E+02  0.14661493243E+03 -0.25422047084E+03  0.31150642100E+03  0.85322519181E+02 0.  0.
         23    2    1    2    0    0  0.48459476728E+02 -0.14126925385E+03 -0.99271020824E+03  0.10080272789E+04  0.91324227686E+02 0.  0.
        -11    1    3    3    0    0 -0.73781928552E+02  0.10391119825E+03 -0.14267812675E+03  0.19130697310E+03  0.00000000000E+00 0. -1.
         11    1    3    3    0    0  0.13513098791E+02  0.42703734181E+02 -0.11154234409E+03  0.12019944790E+03  0.00000000000E+00 0.  1.
        -13    1    4    4    0    0  0.30985479792E+02 -0.15133000283E+03 -0.89876149239E+03  0.91193919201E+03  0.00000000000E+00 0.  1.
         13    1    4    4    0    0  0.17473996937E+02  0.10060748990E+02 -0.93948715855E+02  0.96088086931E+02  0.00000000000E+00 0. -1.
         21    1    1    2  502  501 -0.18797688180E+02 -0.10325720558E+02  0.27868501315E+02  0.35165707038E+02  0.00000000000E+00 0.  1.
         21    1    1    2  503  502  0.30607041212E+02  0.49800419737E+01 -0.89418651723E+02  0.94642945146E+02  0.00000000000E+00 0.  1.
<scales pt_clust_5="13000.00000" pt_clust_6="13000.00000" pt_clust_7="13000.00000" pt_clust_8="13000.00000" pt_clust_9="21.44699" pt_clust_10="29.65669"></scales>
<clustering>
<clus scale="   21.447">  1  9  2 -1</clus>
<clus scale="   29.657">  1 10  2 -1</clus>
<clus scale="   85.323">  5  6 -1 -1</clus>
<clus scale="   91.324">  7  8 -1 -1</clus>
<clus scale="  173.646">  1  5  2 -1</clus>
<clus scale="  176.672">  2  5  1 -1</clus>
</clustering>
</event>
<event>
10    2  0.1133532E-006  0.1671937E+03  0.7546771E-02  0.1204045E+00
          2   -1    0    0  503    0  0.00000000000E+00  0.00000000000E+00  0.46039364397E+03  0.46039364397E+03  0.00000000000E+00 0. -1.
         -2   -1    0    0    0  501 -0.00000000000E+00 -0.00000000000E+00 -0.52936343273E+03  0.52936343273E+03  0.00000000000E+00 0.  1.
         23    2    1    2    0    0  0.10470349211E+03  0.15483827763E+03 -0.13950338533E+03  0.25579357508E+03  0.10503068626E+03 0.  0.
         23    2    1    2    0    0  0.23616396425E+02 -0.33328351772E+02  0.32009457353E+03  0.33539303414E+03  0.91429962994E+02 0.  0.
        -13    1    3    3    0    0  0.19853558908E+02  0.33570560368E+02 -0.92690957713E+02  0.10056221938E+03  0.00000000000E+00 0.  1.
         13    1    3    3    0    0  0.84849933197E+02  0.12126771727E+03 -0.46812427616E+02  0.15523135570E+03  0.00000000000E+00 0. -1.
        -13    1    4    4    0    0  0.46609585663E+02 -0.25676749993E+02  0.29762842978E+03  0.30234819527E+03  0.00000000000E+00 0. -1.
         13    1    4    4    0    0 -0.22993189239E+02 -0.76516017796E+01  0.22466143746E+02  0.33044838871E+02  0.00000000000E+00 0.  1.
         21    1    1    2  502  501 -0.48976117481E+02 -0.44847647583E+02 -0.27702581280E+03  0.28487413455E+03  0.00000000000E+00 0.  1.
         21    1    1    2  503  502 -0.79343771049E+02 -0.76662278278E+02  0.27464835829E+02  0.11369633293E+03  0.00000000000E+00 0. -1.
<scales pt_clust_5="13000.00000" pt_clust_6="13000.00000" pt_clust_7="13000.00000" pt_clust_8="13000.00000" pt_clust_9="66.40762" pt_clust_10="130.08564"></scales>
<clustering>
<clus scale="   66.408">  2  9  1 -1</clus>
<clus scale="   91.430">  7  8 -1 -1</clus>
<clus scale="  100.264">  1  7  2 -1</clus>
<clus scale="  105.031">  5  6 -1 -1</clus>
<clus scale="  130.086">  1 10  2 -1</clus>
<clus scale="  100.264">  1  5  2 -1</clus>
</clustering>
</event>
<event>
10    2  0.1133532E-006  0.1098555E+03  0.7546771E-02  0.1261365E+00
         -1   -1    0    0    0  501 -0.00000000000E+00  0.00000000000E+00  0.75129425752E+03  0.75129425752E+03  0.00000000000E+00 0.  1.
          1   -1    0    0  503    0  0.00000000000E+00 -0.00000000000E+00 -0.43709500253E+02  0.43709500253E+02  0.00000000000E+00 0. -1.
         23    2    1    2    0    0 -0.47669804816E+02 -0.36662629815E+02  0.38808184652E+03  0.40286424500E+03  0.89863905927E+02 0.  0.
         23    2    1    2    0    0  0.43442138271E+02  0.27571709217E+02  0.20030344332E+03  0.22603430742E+03  0.91228395798E+02 0.  0.
        -11    1    3    3    0    0  0.25355658139E+02 -0.16542057266E+02  0.78115557357E+02  0.83777021668E+02  0.00000000000E+00 0. -1.
         11    1    3    3    0    0 -0.73025462955E+02 -0.20120572550E+02  0.30996628916E+03  0.31908722334E+03  0.00000000000E+00 0.  1.
        -11    1    4    4    0    0  0.57762904988E+02 -0.96400125458E+01  0.15494437414E+03  0.16564190928E+03  0.00000000000E+00 0. -1.
         11    1    4    4    0    0 -0.14320766716E+02  0.37211721763E+02  0.45359069183E+02  0.60392398139E+02  0.00000000000E+00 0.  1.
         21    1    1    2  502  501 -0.21476383807E+02 -0.71538738872E+01  0.13140454843E+03  0.13334004771E+03  0.00000000000E+00 0.  1.
         21    1    1    2  503  502  0.25704050351E+02  0.16244794485E+02 -0.12205081011E+02  0.32765157634E+02  0.00000000000E+00 0. -1.
<scales pt_clust_5="13000.00000" pt_clust_6="13000.00000" pt_clust_7="13000.00000" pt_clust_8="13000.00000" pt_clust_9="22.63654" pt_clust_10="30.04221"></scales>
<clustering>
<clus scale="   22.637">  1  9  2 -1</clus>
<clus scale="   30.042">  2 10  1 -1</clus>
<clus scale="   89.864">  5  6 -1 -1</clus>
<clus scale="   91.228">  7  8 -1 -1</clus>
<clus scale="  108.725">  1  5  2 -1</clus>
<clus scale="   30.042">  2  5  1 -1</clus>
</clustering>
</event>
<event>
10    2  0.1133532E-006  0.1318169E+03  0.7546771E-02  0.1226790E+00
          1   -1    0    0  503    0  0.00000000000E+00  0.00000000000E+00  0.32033286810E+03  0.32033286810E+03  0.00000000000E+00 0. -1.
         -1   -1    0    0    0  501 -0.00000000000E+00 -0.00000000000E+00 -0.19045545057E+03  0.19045545057E+03  0.00000000000E+00 0.  1.
         23    2    1    2    0    0 -0.68507467657E+02 -0.52969737535E+02 -0.11185717366E+03  0.16679460029E+03  0.88370499421E+02 0.  0.
         23    2    1    2    0    0  0.65211911493E+02  0.11449710177E+03  0.20666065187E+03  0.26319333991E+03  0.95916262598E+02 0.  0.
        -13    1    3    3    0    0 -0.48519145634E+02  0.89806138909E+01 -0.17897453571E+02  0.52488834653E+02  0.00000000000E+00 0. -1.
         13    1    3    3    0    0 -0.19988322023E+02 -0.61950351426E+02 -0.93959720085E+02  0.11430576564E+03  0.00000000000E+00 0.  1.
        -13    1    4    4    0    0  0.50401903548E+01  0.43511167929E+02  0.89919821050E+01  0.44715556527E+02  0.00000000000E+00 0.  1.
         13    1    4    4    0    0  0.60171721138E+02  0.70985933837E+02  0.19766866976E+03  0.21847778338E+03  0.00000000000E+00 0. -1.
         21    1    1    2  502  501  0.20324142967E+02 -0.42981649112E+02  0.24589268622E+02  0.53526863153E+02  0.00000000000E+00 0.  1.
         21    1    1    2  503  502 -0.17028586803E+02 -0.18545715120E+02  0.10484670699E+02  0.27273515312E+02  0.00000000000E+00 0.  1.
<scales pt_clust_5="13000.00000" pt_clust_6="13000.00000" pt_clust_7="13000.00000" pt_clust_8="13000.00000" pt_clust_9="48.86729" pt_clust_10="25.17769"></scales>
<clustering>
<clus scale="   25.178">  1 10  2 -1</clus>
<clus scale="   48.867">  1  9  2 -1</clus>
<clus scale="   88.370">  5  6 -1 -1</clus>
<clus scale="   95.916">  7  8 -1 -1</clus>
<clus scale="  126.432">  2  5  1 -1</clus>
<clus scale="   25.178">  1  5  2 -1</clus>
</clustering>
</event>
<event>
10    2  0.1133532E-006  0.9683830E+02  0.7546771E-02  0.1287487E+00
          2   -1    0    0  503    0  0.00000000000E+00  0.00000000000E+00  0.35657751271E+03  0.35657751271E+03  0.00000000000E+00 0. -1.
         -2   -1    0    0    0  501 -0.00000000000E+00 -0.00000000000E+00 -0.72525128097E+02  0.72525128097E+02  0.00000000000E+00 0.  1.
         23    2    1    2    0    0 -0.21084616018E+02 -0.40812540012E+02  0.74138227157E+02  0.12561407744E+03  0.90400195080E+02 0.  0.
         23    2    1    2    0    0 -0.71304759000E+01  0.16286332607E+02  0.20538062722E+03  0.22540877381E+03  0.91169210572E+02 0.  0.
        -11    1    4    4    0    0  0.34146962596E+02  0.50361022720E+01  0.32839458019E+02  0.47642495565E+02  0.00000000000E+00 0.  1.
         11    1    4    4    0    0 -0.41277438496E+02  0.11250230335E+02  0.17254116921E+03  0.17776627825E+03  0.00000000000E+00 0. -1.
        -11    1    3    3    0    0  0.17187975210E+02 -0.29586620977E+02 -0.72515488949E+01  0.34976843683E+02  0.00000000000E+00 0.  1.
         11    1    3    3    0    0 -0.38272591228E+02 -0.11225919036E+02  0.81389776052E+02  0.90637233758E+02  0.00000000000E+00 0. -1.
         21    1    1    2  502  501  0.22721651845E+02  0.18325393569E+01 -0.29205972134E+02  0.37048892984E+02  0.00000000000E+00 0.  1.
         21    1    1    2  503  502  0.54934400734E+01  0.22693668049E+02  0.33739502363E+02  0.41030896567E+02  0.00000000000E+00 0. -1.
<scales pt_clust_5="13000.00000" pt_clust_6="13000.00000" pt_clust_7="13000.00000" pt_clust_8="13000.00000" pt_clust_9="22.79543" pt_clust_10="24.09206"></scales>
<clustering>
<clus scale="   22.795">  2  9  1 -1</clus>
<clus scale="   24.092">  1 10  2 -1</clus>
<clus scale="   90.400">  7  8 -1 -1</clus>
<clus scale="   91.169">  5  6 -1 -1</clus>
<clus scale="   96.115">  2  7  1 -1</clus>
<clus scale="   24.092">  1  5  2 -1</clus>
</clustering>
</event>
<event>
10    2  0.1133532E-006  0.1360000E+03  0.7546771E-02  0.1219232E+00
          2   -1    0    0  503    0  0.00000000000E+00  0.00000000000E+00  0.26323247068E+03  0.26323247068E+03  0.00000000000E+00 0. -1.
         -2   -1    0    0    0  501 -0.00000000000E+00 -0.00000000000E+00 -0.16637307317E+03  0.16637307317E+03  0.00000000000E+00 0.  1.
         23    2    1    2    0    0 -0.29683723317E+01 -0.11339746396E+03 -0.58294260384E+02  0.15611815310E+03  0.90038107860E+02 0.  0.
         23    2    1    2    0    0  0.29786534546E+02  0.10380125123E+03  0.11868403315E+03  0.18486897909E+03  0.91807964295E+02 0.  0.
        -11    1    4    4    0    0  0.35605590688E+02  0.27980136360E+02  0.16683463552E+01  0.45314782340E+02  0.00000000000E+00 0.  1.
         11    1    4    4    0    0 -0.58190561418E+01  0.75821114866E+02  0.11701568680E+03  0.13955419675E+03  0.00000000000E+00 0. -1.
        -11    1    3    3    0    0  0.22476020826E+02 -0.27317722088E+02  0.16729818360E+02  0.39132036423E+02  0.00000000000E+00 0. -1.
         11    1    3    3    0    0 -0.25444393158E+02 -0.86079741873E+02 -0.75024078744E+02  0.11698611668E+03  0.00000000000E+00 0.  1.
         21    1    1    2  502  501  0.87245128113E+01  0.21315141587E+02 -0.13108557050E+02  0.26500691549E+02  0.00000000000E+00 0.  1.
         21    1    1    2  503  502 -0.35542675026E+02 -0.11718928852E+02  0.49578181793E+02  0.62117720107E+02  0.00000000000E+00 0. -1.
<scales pt_clust_5="13000.00000" pt_clust_6="13000.00000" pt_clust_7="13000.00000" pt_clust_8="13000.00000" pt_clust_9="23.03155" pt_clust_10="36.79246"></scales>
<clustering>
<clus scale="   23.032">  2  9  1 -1</clus>
<clus scale="   36.792">  1 10  2 -1</clus>
<clus scale="   90.038">  7  8 -1 -1</clus>
<clus scale="   91.808">  5  6 -1 -1</clus>
<clus scale="  134.812">  2  7  1 -1</clus>
<clus scale="   36.792">  1  5  2 -1</clus>
</clustering>
</event>
<event>
10    2  0.1133532E-006  0.1407109E+03  0.7546771E-02  0.1212841E+00
         -3   -1    0    0    0  501 -0.00000000000E+00  0.00000000000E+00  0.47731639153E+03  0.47731639153E+03  0.00000000000E+00 0.  1.
          3   -1    0    0  503    0  0.00000000000E+00 -0.00000000000E+00 -0.15958795954E+03  0.15958795954E+03  0.00000000000E+00 0. -1.
         23    2    1    2    0    0 -0.26901496224E+02  0.84424448412E+02  0.29990715731E+03  0.32546585364E+03  0.90180601530E+02 0.  0.
         23    2    1    2    0    0  0.81367092808E+02 -0.70733508666E+02 -0.38354657899E+02  0.14702287624E+03  0.92308251609E+02 0.  0.
        -11    1    3    3    0    0  0.60069486061E+00  0.86463731322E+02  0.15080388148E+03  0.17383368011E+03  0.00000000000E+00 0.  1.
         11    1    3    3    0    0 -0.27502191084E+02 -0.20392829105E+01  0.14910327583E+03  0.15163217354E+03  0.00000000000E+00 0. -1.
        -13    1    4    4    0    0  0.10033317761E+03 -0.48744339541E+02 -0.38438540474E+02  0.11798423013E+03  0.00000000000E+00 0.  1.
         13    1    4    4    0    0 -0.18966084800E+02 -0.21989169126E+02  0.83882575100E-01  0.29038646108E+02  0.00000000000E+00 0. -1.
         21    1    1    2  502  501 -0.12461459019E+02  0.21819384322E+02  0.94235976580E+02  0.97528420346E+02  0.00000000000E+00 0. -1.
         21    1    1    2  503  502 -0.42004137565E+02 -0.35510324067E+02 -0.38060044001E+02  0.66887200848E+02  0.00000000000E+00 0. -1.
<scales pt_clust_5="13000.00000" pt_clust_6="13000.00000" pt_clust_7="13000.00000" pt_clust_8="13000.00000" pt_clust_9="25.12715" pt_clust_10="54.83825"></scales>
<clustering>
<clus scale="   25.127">  1  9  2 -1</clus>
<clus scale="   54.838">  2 10  1 -1</clus>
<clus scale="   90.181">  5  6 -1 -1</clus>
<clus scale="   92.308">  7  8 -1 -1</clus>
<clus scale="  139.324">  1  5  2 -1</clus>
<clus scale="   54.838">  2  5  1 -1</clus>
</clustering>
</event>
<event>
10    2  0.1133532E-006  0.1581848E+03  0.7546771E-02  0.1194387E+00
         -2   -1    0    0    0  501 -0.00000000000E+00  0.00000000000E+00  0.14987139585E+03  0.14987139585E+03  0.00000000000E+00 0.  1.
          2   -1    0    0  503    0  0.00000000000E+00 -0.00000000000E+00 -0.55921479039E+03  0.55921479039E+03  0.00000000000E+00 0. -1.
         23    2    1    2    0    0  0.17347219755E+03 -0.44983002841E+02 -0.14335610375E+03  0.25031870131E+03  0.99962022157E+02 0.  0.
         23    2    1    2    0    0 -0.97367692627E+02  0.30734051559E+02 -0.16117920928E+03  0.20665763019E+03  0.79395145453E+02 0.  0.
        -11    1    3    3    0    0  0.62328579518E+02  0.29570827002E+02 -0.67335913812E+02  0.96402338785E+02  0.00000000000E+00 0.  1.
         11    1    3    3    0    0  0.11114361803E+03 -0.74553829842E+02 -0.76020189936E+02  0.15391636252E+03  0.00000000000E+00 0. -1.
        -11    1    4    4    0    0 -0.41587101037E+02  0.44834524219E+02 -0.12370454848E+03  0.13799433629E+03  0.00000000000E+00 0.  1.
         11    1    4    4    0    0 -0.55780591590E+02 -0.14100472661E+02 -0.37474660798E+02  0.68663293901E+02  0.00000000000E+00 0. -1.
         21    1    1    2  502  501 -0.99814580384E+02 -0.20437506921E+02  0.33743424065E+02  0.10732781939E+03  0.00000000000E+00 0.  1.
         21    1    1    2  503  502  0.23710075460E+02  0.34686458203E+02 -0.13855150559E+03  0.14478203536E+03  0.00000000000E+00 0.  1.
<scales pt_clust_5="13000.00000" pt_clust_6="13000.00000" pt_clust_7="13000.00000" pt_clust_8="13000.00000" pt_clust_9="99.25901" pt_clust_10="42.01569"></scales>
<clustering>
<clus scale="   42.016">  2 10  1 -1</clus>
<clus scale="   79.395">  7  8 -1 -1</clus>
<clus scale="   99.259">  1  9  2 -1</clus>
<clus scale="   99.962">  5  6 -1 -1</clus>
<clus scale="  146.060">  2  7  1 -1</clus>
<clus scale="   42.016">  2  5  1 -1</clus>
</clustering>
</event>
<event>
10    2  0.1133532E-006  0.3154861E+03  0.7546771E-02  0.1106914E+00
         -1   -1    0    0    0  501 -0.00000000000E+00  0.00000000000E+00  0.25616306146E+03  0.25616306146E+03  0.00000000000E+00 0.  1.
          1   -1    0    0  503    0  0.00000000000E+00 -0.00000000000E+00 -0.10967185565E+04  0.10967185565E+04  0.00000000000E+00 0. -1.
         23    2    1    2    0    0 -0.62955568833E+02  0.99784459152E+02 -0.13866864495E+03  0.20242845769E+03  0.88475677195E+02 0.  0.
         23    2    1    2    0    0  0.99997350261E+02 -0.38101187982E+03 -0.17742904136E+03  0.44117183596E+03  0.89342047819E+02 0.  0.
        -11    1    3    3    0    0 -0.47034335491E+02  0.10649785006E+02 -0.83425561441E+02  0.96361148486E+02  0.00000000000E+00 0.  1.
         11    1    3    3    0    0 -0.15921233342E+02  0.89134674146E+02 -0.55243083510E+02  0.10606730920E+03  0.00000000000E+00 0. -1.
        -13    1    4    4    0    0  0.91744119241E+02 -0.18251853857E+03 -0.74619907122E+02  0.21748133455E+03  0.00000000000E+00 0.  1.
         13    1    4    4    0    0  0.82532310196E+01 -0.19849334125E+03 -0.10280913424E+03  0.22369050141E+03  0.00000000000E+00 0. -1.
         21    1    1    2  502  501  0.32252593655E+02  0.95847658944E+01  0.55624401553E+02  0.65009011551E+02  0.00000000000E+00 0.  1.
         21    1    1    2  503  502 -0.69294375082E+02  0.27164265477E+03 -0.58008221032E+03  0.64427231280E+03  0.00000000000E+00 0. -1.
<scales pt_clust_5="13000.00000" pt_clust_6="13000.00000" pt_clust_7="13000.00000" pt_clust_8="13000.00000" pt_clust_9="33.64666" pt_clust_10="302.57144"></scales>
<clustering>
<clus scale="   33.647">  1  9  2 -1</clus>
<clus scale="   88.476">  5  6 -1 -1</clus>
<clus scale="   89.342">  7  8 -1 -1</clus>
<clus scale="  146.385">  1  5  2 -1</clus>
<clus scale="  302.571">  2 10  1 -1</clus>
<clus scale="  302.571">  2  5  1 -1</clus>
</clustering>
</event>
<event>
10    2  0.1133532E-006  0.1225122E+03  0.7546771E-02  0.1239152E+00
          1   -1    0    0  503    0  0.00000000000E+00  0.00000000000E+00  0.25983816158E+03  0.25983816158E+03  0.00000000000E+00 0. -1.
         -1   -1    0    0    0  501 -0.00000000000E+00 -0.00000000000E+00 -0.44746723782E+03  0.44746723782E+03  0.00000000000E+00 0.  1.
         23    2    1    2    0    0 -0.92977409150E+02  0.16640177761E+02 -0.35410366302E+03  0.37755706054E+03  0.90764727007E+02 0.  0.
         23    2    1    2    0    0  0.10973171740E+02 -0.10162001511E+02  0.35905805117E+02  0.98307087821E+02  0.90284992674E+02 0.  0.
        -11    1    4    4    0    0 -0.65019699360E+01 -0.40146853128E+02  0.46733142397E+02  0.61951852494E+02  0.00000000000E+00 0.  1.
         11    1    4    4    0    0  0.17475141676E+02  0.29984851617E+02 -0.10827337280E+02  0.36355235327E+02  0.00000000000E+00 0. -1.
        -13    1    3    3    0    0 -0.81357905546E+02  0.49318633660E+02 -0.23565900070E+03  0.25413894041E+03  0.00000000000E+00 0.  1.
         13    1    3    3    0    0 -0.11619503604E+02 -0.32678455898E+02 -0.11844466232E+03  0.12341812013E+03  0.00000000000E+00 0. -1.
         21    1    1    2  502  501  0.62259236640E+02  0.11499520476E+02 -0.29011085893E+02  0.69642620735E+02  0.00000000000E+00 0. -1.
         21    1    1    2  503  502  0.19745000769E+02 -0.17977696727E+02  0.15957986757E+03  0.16179863030E+03  0.00000000000E+00 0.  1.
<scales pt_clust_5="13000.00000" pt_clust_6="13000.00000" pt_clust_7="13000.00000" pt_clust_8="13000.00000" pt_clust_9="66.76409" pt_clust_10="26.70323"></scales>
<clustering>
<clus scale="   26.703">  1 10  2 -1</clus>
<clus scale="   66.764">  1  9  2 -1</clus>
<clus scale="   90.285">  5  6 -1 -1</clus>
<clus scale="   90.765">  7  8 -1 -1</clus>
<clus scale="  122.157">  1  5  2 -1</clus>
<clus scale="   26.703">  1  5  2 -1</clus>
</clustering>
</event>
<event>
10    2  0.1133532E-006  0.9162870E+02  0.7546771E-02  0.1299398E+00
          1   -1    0    0  503    0  0.00000000000E+00  0.00000000000E+00  0.25816409895E+03  0.25816409895E+03  0.00000000000E+00 0. -1.
         -1   -1    0    0    0  501 -0.00000000000E+00 -0.00000000000E+00 -0.17423848320E+03  0.17423848320E+03  0.00000000000E+00 0.  1.
         23    2    1    2    0    0 -0.82045398901E+02 -0.26829160531E+02  0.16054794990E+01  0.12299267106E+03  0.87597763862E+02 0.  0.
         23    2    1    2    0    0 -0.32442845625E+02 -0.15935251526E+02  0.76033748985E+02  0.12384315113E+03  0.90826893722E+02 0.  0.
        -11    1    4    4    0    0  0.86399907658E+01 -0.33605484987E+02 -0.10626340333E+01  0.34714654725E+02  0.00000000000E+00 0.  1.
         11    1    4    4    0    0 -0.41082836391E+02  0.17670233461E+02  0.77096383018E+02  0.89128496403E+02  0.00000000000E+00 0. -1.
        -13    1    3    3    0    0 -0.31686585696E+02 -0.45172328107E+02 -0.27880534998E+02  0.61821542940E+02  0.00000000000E+00 0.  1.
         13    1    3    3    0    0 -0.50358813205E+02  0.18343167576E+02  0.29486014497E+02  0.61171128117E+02  0.00000000000E+00 0. -1.
         21    1    1    2  502  501  0.81744623912E+02  0.28708648608E+02 -0.63359300599E+02  0.10733485462E+03  0.00000000000E+00 0. -1.
         21    1    1    2  503  502  0.32743620615E+02  0.14055763449E+02  0.69645687866E+02  0.78231905355E+02  0.00000000000E+00 0. -1.
<scales pt_clust_5="13000.00000" pt_clust_6="13000.00000" pt_clust_7="13000.00000" pt_clust_8="13000.00000" pt_clust_9="90.88290" pt_clust_10="35.63298"></scales>
<clustering>
<clus scale="   35.633">  1 10  2 -1</clus>
<clus scale="   87.598">  7  8 -1 -1</clus>
<clus scale="   90.827">  5  6 -1 -1</clus>
<clus scale="   90.883">  2  9  1 -1</clus>
<clus scale="   90.883">  2  7  1 -1</clus>
<clus scale="   35.633">  1  5  2 -1</clus>
</clustering>
</event>
<event>
10    2  0.1133532E-006  0.1075996E+03  0.7546771E-02  0.1266878E+00
         -2   -1    0    0    0  501 -0.00000000000E+00  0.00000000000E+00  0.61416380442E+02  0.61416380442E+02  0.00000000000E+00 0.  1.
          2   -1    0    0  503    0  0.00000000000E+00 -0.00000000000E+00 -0.57866599166E+03  0.57866599166E+03  0.00000000000E+00 0. -1.
         23    2    1    2    0    0 -0.72503789857E+02  0.27897213648E+02 -0.56327809290E+02  0.13006963591E+03  0.87807938219E+02 0.  0.
         23    2    1    2    0    0  0.70386303723E+01 -0.81622543907E+01 -0.33397803775E+03  0.34662703680E+03  0.92156433450E+02 0.  0.
        -13    1    3    3    0    0  0.18939079626E+02  0.13048062937E+02 -0.20279000349E+02  0.30662330940E+02  0.00000000000E+00 0. -1.
         13    1    3    3    0    0 -0.91442869482E+02  0.14849150711E+02 -0.36048808940E+02  0.99407304973E+02  0.00000000000E+00 0.  1.
        -13    1    4    4    0    0  0.42087479408E+01  0.40752073658E+02 -0.11073865950E+03  0.11807411137E+03  0.00000000000E+00 0.  1.
         13    1    4    4    0    0  0.28298824315E+01 -0.48914328049E+02 -0.22323937825E+03  0.22855292544E+03  0.00000000000E+00 0. -1.
         21    1    1    2  502  501  0.30524895899E+01 -0.34690175665E+02 -0.24799232626E+02  0.42751934684E+02  0.00000000000E+00 0. -1.
         21    1    1    2  503  502  0.62412669894E+02  0.14955216408E+02 -0.10214453155E+03  0.12063376470E+03  0.00000000000E+00 0.  1.
<scales pt_clust_5="13000.00000" pt_clust_6="13000.00000" pt_clust_7="13000.00000" pt_clust_8="13000.00000" pt_clust_9="34.82422" pt_clust_10="63.56841"></scales>
<clustering>
<clus scale="   34.824">  1  9  2 -1</clus>
<clus scale="   63.568">  2 10  1 -1</clus>
<clus scale="   87.808">  5  6 -1 -1</clus>
<clus scale="   92.156">  7  8 -1 -1</clus>
<clus scale="  103.899">  1  5  2 -1</clus>
<clus scale="   63.568">  2  5  1 -1</clus>
</clustering>
</event>
<event>
10    2  0.1133532E-006  0.9979005E+02  0.7546771E-02  0.1280956E+00
         -4   -1    0    0    0  501 -0.00000000000E+00  0.00000000000E+00  0.33088145226E+03  0.33088145226E+03  0.00000000000E+00 0.  1.
          4   -1    0    0  503    0  0.00000000000E+00 -0.00000000000E+00 -0.79350215261E+02  0.79350215261E+02  0.00000000000E+00 0. -1.
         23    2    1    2    0    0 -0.20867529447E+01  0.47851487977E+02  0.10382413043E+03  0.14688661332E+03  0.92206874322E+02 0.  0.
         23    2    1    2    0    0  0.21096372907E+02 -0.29690407648E+02 -0.28698066341E+01  0.98767152625E+02  0.91761306614E+02 0.  0.
        -11    1    3    3    0    0  0.24663206458E+02  0.45865330958E+02  0.10784821901E+03  0.11976285184E+03  0.00000000000E+00 0.  1.
         11    1    3    3    0    0 -0.26749959403E+02  0.19861570184E+01 -0.40240885804E+01  0.27123761477E+02  0.00000000000E+00 0. -1.
        -13    1    4    4    0    0 -0.16959846787E+02  0.26074358850E+02 -0.30508377325E+01  0.31254058990E+02  0.00000000000E+00 0.  1.
         13    1    4    4    0    0  0.38056219694E+02 -0.55764766498E+02  0.18103109842E+00  0.67513093636E+02  0.00000000000E+00 0. -1.
         21    1    1    2  502  501  0.22103987067E+01 -0.20683176941E+02  0.13845702676E+03  0.14001081362E+03  0.00000000000E+00 0. -1.
         21    1    1    2  503  502 -0.21220018669E+02  0.25220966128E+01  0.12119886445E+02  0.24567087965E+02  0.00000000000E+00 0.  1.
<scales pt_clust_5="13000.00000" pt_clust_6="13000.00000" pt_clust_7="13000.00000" pt_clust_8="13000.00000" pt_clust_9="20.80095" pt_clust_10="21.01545"></scales>
<clustering>
<clus scale="   20.801">  1  9  2 -1</clus>
<clus scale="   21.015">  1 10  2 -1</clus>
<clus scale="   91.761">  7  8 -1 -1</clus>
<clus scale="   92.207">  5  6 -1 -1</clus>
<clus scale="   99.378">  2  7  1 -1</clus>
<clus scale="   99.378">  2  5  1 -1</clus>
</clustering>
</event>
<event>
10    2  0.1133532E-006  0.9914938E+02  0.7546771E-02  0.1282443E+00
          1   -1    0    0  503    0  0.00000000000E+00  0.00000000000E+00  0.17011303951E+03  0.17011303951E+03  0.00000000000E+00 0. -1.
         -1   -1    0    0    0  501 -0.00000000000E+00 -0.00000000000E+00 -0.27358236207E+03  0.27358236207E+03  0.00000000000E+00 0.  1.
         23    2    1    2    0    0  0.96539235903E+01 -0.57274947357E+01 -0.72971024801E+02  0.11653424846E+03  0.90163507963E+02 0.  0.
         23    2    1    2    0    0  0.44233800374E+02  0.93386865801E+01  0.72644567989E+02  0.12378119634E+03  0.89446694448E+02 0.  0.
        -11    1    4    4    0    0  0.54491287082E+01  0.45870891181E+02  0.26243321208E+02  0.53127615883E+02  0.00000000000E+00 0.  1.
         11    1    4    4    0    0  0.38784671666E+02 -0.36532204601E+02  0.46401246781E+02  0.70653580462E+02  0.00000000000E+00 0. -1.
        -13    1    3    3    0    0 -0.34482300474E+02  0.67673089339E+01 -0.64440624732E+01  0.35726061318E+02  0.00000000000E+00 0.  1.
         13    1    3    3    0    0  0.44136224064E+02 -0.12494803670E+02 -0.66526962327E+02  0.80808187146E+02  0.00000000000E+00 0. -1.
         21    1    1    2  502  501 -0.65055926378E+02 -0.22037622834E+02 -0.14268015726E+03  0.15835263702E+03  0.00000000000E+00 0.  1.
         21    1    1    2  503  502  0.11168202414E+02  0.18426430989E+02  0.39537291508E+02  0.45027319750E+02  0.00000000000E+00 0.  1.
<scales pt_clust_5="13000.00000" pt_clust_6="13000.00000" pt_clust_7="13000.00000" pt_clust_8="13000.00000" pt_clust_9="67.68168" pt_clust_10="21.54674"></scales>
<clustering>
<clus scale="   21.547">  1 10  2 -1</clus>
<clus scale="   67.682">  2  9  1 -1</clus>
<clus scale="   89.447">  5  6 -1 -1</clus>
<clus scale="   90.164">  7  8 -1 -1</clus>
<clus scale="   98.498">  1  5  2 -1</clus>
<clus scale="   21.547">  1  5  2 -1</clus>
</clustering>
</event>
<event>
10    2  0.1133532E-006  0.1011958E+03  0.7546771E-02  0.1278341E+00
         -2   -1    0    0    0  501 -0.00000000000E+00  0.00000000000E+00  0.28230016477E+03  0.28230016477E+03  0.00000000000E+00 0.  1.
          2   -1    0    0  502    0  0.00000000000E+00 -0.00000000000E+00 -0.22226053627E+03  0.22226053627E+03  0.00000000000E+00 0. -1.
         23    2    1    2    0    0 -0.16620255863E+02  0.56292465310E+02 -0.21159893114E+02  0.11094280204E+03  0.91735978172E+02 0.  0.
         23    2    1    2    0    0  0.50852467210E+02  0.20560890839E+02 -0.11931252011E+03  0.16083727835E+03  0.92867803889E+02 0.  0.
        -11    1    4    4    0    0  0.44303510679E+02 -0.28969080288E+02 -0.37122635631E+02  0.64653683170E+02  0.00000000000E+00 0. -1.
         11    1    4    4    0    0  0.65489565309E+01  0.49529971126E+02 -0.82189884480E+02  0.96183595183E+02  0.00000000000E+00 0.  1.
        -11    1    3    3    0    0  0.82152901048E+01  0.22095893804E+02  0.34049589644E+02  0.41413694226E+02  0.00000000000E+00 0.  1.
         11    1    3    3    0    0 -0.24835545968E+02  0.34196571506E+02 -0.55209482758E+02  0.69529107809E+02  0.00000000000E+00 0. -1.
         21    1    1    2  502  503 -0.36436478942E+02 -0.51326263781E+02  0.19713114289E+03  0.20693643916E+03  0.00000000000E+00 0. -1.
         21    1    1    2  503  501  0.22042675949E+01 -0.25527092368E+02  0.33808988366E+01  0.25844181499E+02  0.00000000000E+00 0. -1.
<scales pt_clust_5="13000.00000" pt_clust_6="13000.00000" pt_clust_7="13000.00000" pt_clust_8="13000.00000" pt_clust_9="78.69214" pt_clust_10="25.62209"></scales>
<clustering>
<clus scale="   25.622">  1 10  2 -1</clus>
<clus scale="   78.692">  1  9  2 -1</clus>
<clus scale="   91.736">  7  8 -1 -1</clus>
<clus scale="   92.868">  5  6 -1 -1</clus>
<clus scale="  100.158">  1  7  2 -1</clus>
<clus scale="  101.196">  2  5  1 -1</clus>
</clustering>
</event>
<event>
10    2  0.1133532E-006  0.1071212E+03  0.7546771E-02  0.1269434E+00
         -1   -1    0    0    0  501 -0.00000000000E+00  0.00000000000E+00  0.33419093168E+03  0.33419093168E+03  0.00000000000E+00 0.  1.
          1   -1    0    0  503    0  0.00000000000E+00 -0.00000000000E+00 -0.33338701104E+03  0.33338701104E+03  0.00000000000E+00 0. -1.
         23    2    1    2    0    0 -0.66730597074E+02 -0.52450442271E+00  0.22433439055E+03  0.24869235776E+03  0.84075694073E+02 0.  0.
         23    2    1    2    0    0  0.50021817348E+01  0.63697462970E+02  0.12081962737E+02  0.11283176949E+03  0.92209792167E+02 0.  0.
        -13    1    4    4    0    0  0.35486623537E+02  0.68592873351E+02  0.22174313597E+02  0.80349131347E+02  0.00000000000E+00 0.  1.
         13    1    4    4    0    0 -0.30484441802E+02 -0.48954103818E+01 -0.10092350860E+02  0.32482638142E+02  0.00000000000E+00 0. -1.
        -13    1    3    3    0    0 -0.60502037782E+02  0.22628782129E+02  0.21221249596E+03  0.22182583663E+03  0.00000000000E+00 0.  1.
         13    1    3    3    0    0 -0.62285592925E+01 -0.23153286551E+02  0.12121894589E+02  0.26866521126E+02  0.00000000000E+00 0. -1.
         21    1    1    2  502  501  0.19267907269E+02 -0.39362888212E+02  0.18317519472E+02  0.47499691984E+02  0.00000000000E+00 0.  1.
         21    1    1    2  503  502  0.42460508071E+02 -0.23810070335E+02 -0.25392995212E+03  0.25855412350E+03  0.00000000000E+00 0. -1.
<scales pt_clust_5="13000.00000" pt_clust_6="13000.00000" pt_clust_7="13000.00000" pt_clust_8="13000.00000" pt_clust_9="43.82567" pt_clust_10="48.95783"></scales>
<clustering>
<clus scale="   43.826">  1  9  2 -1</clus>
<clus scale="   48.958">  2 10  1 -1</clus>
<clus scale="   84.076">  7  8 -1 -1</clus>
<clus scale="   92.210">  5  6 -1 -1</clus>
<clus scale="  100.205">  1  7  2 -1</clus>
<clus scale="   48.958">  2  5  1 -1</clus>
</clustering>
</event>
<event>
10    2  0.1133532E-006  0.2157876E+03  0.7546771E-02  0.1137111E+00
         -1   -1    0    0    0  501 -0.00000000000E+00  0.00000000000E+00  0.15937328574E+04  0.15937328574E+04  0.00000000000E+00 0.  1.
          1   -1    0    0  503    0  0.00000000000E+00 -0.00000000000E+00 -0.10372742341E+03  0.10372742341E+03  0.00000000000E+00 0. -1.
         23    2    1    2    0    0 -0.21347987489E+03  0.34125228243E+02  0.12086562793E+04  0.12312359982E+04  0.91399637011E+02 0.  0.
         23    2    1    2    0    0  0.19495009108E+03  0.92791842675E+01  0.54914305528E+02  0.22215624376E+03  0.90808449061E+02 0.  0.
        -11    1    3    3    0    0 -0.16239133029E+03 -0.15779709640E+02  0.86014321145E+03  0.87548060378E+03  0.00000000000E+00 0.  1.
         11    1    3    3    0    0 -0.51088544595E+02  0.49904937883E+02  0.34851306783E+03  0.35575539442E+03  0.00000000000E+00 0. -1.
        -11    1    4    4    0    0  0.18259641116E+03 -0.19483807667E+02  0.42543199283E+02  0.18849666293E+03  0.00000000000E+00 0. -1.
         11    1    4    4    0    0  0.12353679919E+02  0.28762991935E+02  0.12371106245E+02  0.33659580840E+02  0.00000000000E+00 0.  1.
         21    1    1    2  502  501  0.22692801869E+02 -0.77819707243E+01  0.19471905042E+03  0.19619131204E+03  0.00000000000E+00 0.  1.
         21    1    1    2  503  502 -0.41630180590E+01 -0.35622441786E+02  0.31715798768E+02  0.47876726806E+02  0.00000000000E+00 0. -1.
<scales pt_clust_5="13000.00000" pt_clust_6="13000.00000" pt_clust_7="13000.00000" pt_clust_8="13000.00000" pt_clust_9="23.99005" pt_clust_10="36.01607"></scales>
<clustering>
<clus scale="   23.990">  1  9  2 -1</clus>
<clus scale="   36.016">  2 10  1 -1</clus>
<clus scale="   90.808">  7  8 -1 -1</clus>
<clus scale="   91.400">  5  6 -1 -1</clus>
<clus scale="  215.538">  2  7  1 -1</clus>
<clus scale="   36.016">  2  5  1 -1</clus>
</clustering>
</event>
<event>
10    2  0.1133532E-006  0.1122825E+03  0.7546771E-02  0.1256751E+00
          1   -1    0    0  502    0  0.00000000000E+00  0.00000000000E+00  0.54024780189E+03  0.54024780189E+03  0.00000000000E+00 0. -1.
         -1   -1    0    0    0  501 -0.00000000000E+00 -0.00000000000E+00 -0.49991371737E+02  0.49991371737E+02  0.00000000000E+00 0.  1.
         23    2    1    2    0    0  0.29142580110E+02 -0.38945302552E+02  0.88578005359E+02  0.13617443899E+03  0.91276438553E+02 0.  0.
         23    2    1    2    0    0 -0.68811187959E+02  0.72740254430E+02  0.21116243831E+03  0.25054631888E+03  0.90320309735E+02 0.  0.
        -11    1    4    4    0    0 -0.11752786546E+02  0.75996752312E+02  0.13439936429E+03  0.15484451387E+03  0.00000000000E+00 0. -1.
         11    1    4    4    0    0 -0.57058401413E+02 -0.32564978815E+01  0.76763074012E+02  0.95701805010E+02  0.00000000000E+00 0.  1.
        -13    1    3    3    0    0  0.13260428468E+02 -0.58078838318E+02  0.19383555990E+02  0.62647527217E+02  0.00000000000E+00 0.  1.
         13    1    3    3    0    0  0.15882151642E+02  0.19133535766E+02  0.69194449369E+02  0.73526911775E+02  0.00000000000E+00 0. -1.
         21    1    1    2  502  503 -0.13009110719E+01 -0.30125624947E+02  0.71650935127E+02  0.77737392242E+02  0.00000000000E+00 0.  1.
         21    1    1    2  503  501  0.40969518921E+02 -0.36693269310E+01  0.11886505136E+03  0.12578102351E+03  0.00000000000E+00 0. -1.
<scales pt_clust_5="13000.00000" pt_clust_6="13000.00000" pt_clust_7="13000.00000" pt_clust_8="13000.00000" pt_clust_9="30.15370" pt_clust_10="42.24710"></scales>
<clustering>
<clus scale="   30.154">  1  9  2 -1</clus>
<clus scale="   42.247">  1 10  2 -1</clus>
<clus scale="   90.320">  5  6 -1 -1</clus>
<clus scale="   91.276">  7  8 -1 -1</clus>
<clus scale="  111.507">  1  5  2 -1</clus>
<clus scale="   30.154">  1  5  2 -1</clus>
</clustering>
</event>
<event>
10    2  0.1133532E-006  0.9541486E+02  0.7546771E-02  0.1291149E+00
          2   -1    0    0  503    0  0.00000000000E+00  0.00000000000E+00  0.18142456134E+03  0.18142456134E+03  0.00000000000E+00 0. -1.
         -2   -1    0    0    0  501 -0.00000000000E+00 -0.00000000000E+00 -0.23499123500E+03  0.23499123500E+03  0.00000000000E+00 0.  1.
         23    2    1    2    0    0 -0.59708475198E+02 -0.31747538229E+02 -0.87094425659E+02  0.14402375402E+03  0.92652007781E+02 0.  0.
         23    2    1    2    0    0 -0.34221569365E+02 -0.10024748017E+02  0.69180429441E+02  0.11974600401E+03  0.91003089382E+02 0.  0.
        -11    1    3    3    0    0 -0.72193307189E+02 -0.36497303259E+01 -0.28209513860E+02  0.77594914824E+02  0.00000000000E+00 0. -1.
         11    1    3    3    0    0  0.12484831991E+02 -0.28097807903E+02 -0.58884911799E+02  0.66428839191E+02  0.00000000000E+00 0.  1.
        -13    1    4    4    0    0 -0.76480079858E+01 -0.44091716043E+02  0.61190484343E+02  0.75807960162E+02  0.00000000000E+00 0. -1.
         13    1    4    4    0    0 -0.26573561379E+02  0.34066968026E+02  0.79899450980E+01  0.43938043852E+02  0.00000000000E+00 0.  1.
         21    1    1    2  502  501  0.30835534967E+02  0.30588077891E+02 -0.68138069792E+02  0.80803819716E+02  0.00000000000E+00 0. -1.
         21    1    1    2  503  502  0.63094509595E+02  0.11184208355E+02  0.32485392350E+02  0.71842218602E+02  0.00000000000E+00 0. -1.
<scales pt_clust_5="13000.00000" pt_clust_6="13000.00000" pt_clust_7="13000.00000" pt_clust_8="13000.00000" pt_clust_9="43.43341" pt_clust_10="68.52189"></scales>
<clustering>
<clus scale="   43.433">  2  9  1 -1</clus>
<clus scale="   68.522">  1 10  2 -1</clus>
<clus scale="   91.003">  7  8 -1 -1</clus>
<clus scale="   92.652">  5  6 -1 -1</clus>
<clus scale="   93.815">  1  7  2 -1</clus>
<clus scale="   68.522">  1  5  2 -1</clus>
</clustering>
</event>
<event>
10    2  0.1133532E-006  0.1644743E+03  0.7546771E-02  0.1184055E+00
          1   -1    0    0  503    0  0.00000000000E+00  0.00000000000E+00  0.23241185306E+03  0.23241185306E+03  0.00000000000E+00 0. -1.
         -1   -1    0    0    0  501 -0.00000000000E+00 -0.00000000000E+00 -0.47038592260E+03  0.47038592260E+03  0.00000000000E+00 0.  1.
         23    2    1    2    0    0 -0.52821901785E+02  0.10821621721E+03 -0.69997231155E+01  0.14899022552E+03  0.87453920440E+02 0.  0.
         23    2    1    2    0    0  0.11088400096E+03 -0.12451966096E+03  0.65825139895E+02  0.19849282951E+03  0.85241109161E+02 0.  0.
        -11    1    4    4    0    0  0.10993865709E+03 -0.89335851715E+02  0.77420814893E+02  0.16143539049E+03  0.00000000000E+00 0. -1.
         11    1    4    4    0    0  0.94534386968E+00 -0.35183809245E+02 -0.11595674999E+02  0.37057439020E+02  0.00000000000E+00 0.  1.
        -13    1    3    3    0    0 -0.67466866550E+02  0.75327128879E+02 -0.30944664022E+02  0.10575219458E+03  0.00000000000E+00 0.  1.
         13    1    3    3    0    0  0.14644964765E+02  0.32889088335E+02  0.23944940906E+02  0.43238030939E+02  0.00000000000E+00 0. -1.
         21    1    1    2  502  501 -0.44261077088E+02 -0.12124127470E+02 -0.31534994089E+03  0.31867165333E+03  0.00000000000E+00 0.  1.
         21    1    1    2  503  502 -0.13801022088E+02  0.28427571217E+02  0.18550454578E+02  0.36643067298E+02  0.00000000000E+00 0. -1.
<scales pt_clust_5="13000.00000" pt_clust_6="13000.00000" pt_clust_7="13000.00000" pt_clust_8="13000.00000" pt_clust_9="45.93931" pt_clust_10="31.60055"></scales>
<clustering>
<clus scale="   31.601">  1 10  2 -1</clus>
<clus scale="   45.939">  2  9  1 -1</clus>
<clus scale="   85.241">  5  6 -1 -1</clus>
<clus scale="   87.454">  7  8 -1 -1</clus>
<clus scale="  163.308">  1  5  2 -1</clus>
<clus scale="   31.601">  1  5  2 -1</clus>
</clustering>
</event>
<event>
10    2  0.1133532E-006  0.1286052E+03  0.7546771E-02  0.1230431E+00
         -1   -1    0    0    0  501 -0.00000000000E+00  0.00000000000E+00  0.20267143897E+02  0.20267143897E+02  0.00000000000E+00 0.  1.
          1   -1    0    0  502    0  0.00000000000E+00 -0.00000000000E+00 -0.11835422254E+04  0.11835422254E+04  0.00000000000E+00 0. -1.
         23    2    1    2    0    0 -0.44852766106E+02 -0.72826433620E+02 -0.40021214075E+03  0.41987194473E+03  0.93846855611E+02 0.  0.
         23    2    1    2    0    0  0.42509621275E+02  0.79016579519E+02 -0.56669493661E+03  0.58086458762E+03  0.90608113533E+02 0.  0.
        -11    1    4    4    0    0  0.62989278326E+01  0.87817506224E+02 -0.44359516396E+03  0.45224800760E+03  0.00000000000E+00 0.  1.
         11    1    4    4    0    0  0.36210693442E+02 -0.88009267049E+01 -0.12309977265E+03  0.12861658002E+03  0.00000000000E+00 0. -1.
        -11    1    3    3    0    0 -0.45227199647E+02 -0.44128436952E+01 -0.76243812685E+02  0.88758615075E+02  0.00000000000E+00 0.  1.
         11    1    3    3    0    0  0.37443354110E+00 -0.68413589925E+02 -0.32396832806E+03  0.33111332966E+03  0.00000000000E+00 0. -1.
         21    1    1    2  502  503  0.26852581752E+02 -0.33578203820E+01 -0.10530864504E+03  0.10873015600E+03  0.00000000000E+00 0. -1.
         21    1    1    2  503  501 -0.24509436921E+02 -0.28323255173E+01 -0.91059359119E+02  0.94342680952E+02  0.00000000000E+00 0. -1.
<scales pt_clust_5="13000.00000" pt_clust_6="13000.00000" pt_clust_7="13000.00000" pt_clust_8="13000.00000" pt_clust_9="24.86600" pt_clust_10="24.67255"></scales>
<clustering>
<clus scale="   24.673">  1 10  2 -1</clus>
<clus scale="   24.866">  1  9  2 -1</clus>
<clus scale="   90.608">  5  6 -1 -1</clus>
<clus scale="   93.847">  7  8 -1 -1</clus>
<clus scale="  126.261">  2  5  1 -1</clus>
<clus scale="  126.261">  2  5  1 -1</clus>
</clustering>
</event>
<event>
10    2  0.1133532E-006  0.1128663E+03  0.7546771E-02  0.1259038E+00
         -2   -1    0    0    0  501 -0.00000000000E+00  0.00000000000E+00  0.17806557446E+03  0.17806557446E+03  0.00000000000E+00 0.  1.
          2   -1    0    0  503    0  0.00000000000E+00 -0.00000000000E+00 -0.43028451686E+03  0.43028451686E+03  0.00000000000E+00 0. -1.
         23    2    1    2    0    0 -0.70928282855E+01  0.18306456792E+02 -0.50690525309E+02  0.10602232377E+03  0.91026200673E+02 0.  0.
         23    2    1    2    0    0  0.11648132177E+03 -0.71683591172E+01 -0.10295455932E+03  0.18501362136E+03  0.10005556012E+03 0.  0.
        -11    1    3    3    0    0 -0.38809705441E+02  0.24206536739E+02 -0.57068820502E+02  0.73136857540E+02  0.00000000000E+00 0. -1.
         11    1    3    3    0    0  0.31716877155E+02 -0.59000799469E+01  0.63782951928E+01  0.32885466234E+02  0.00000000000E+00 0.  1.
        -13    1    4    4    0    0  0.88593064054E+02  0.40007440507E+02 -0.78751831639E+02  0.12510466530E+03  0.00000000000E+00 0. -1.
         13    1    4    4    0    0  0.27888257718E+02 -0.47175799624E+02 -0.24202727682E+02  0.59908956058E+02  0.00000000000E+00 0.  1.
         21    1    1    2  502  501 -0.30053565733E+02 -0.19902955402E+02  0.98393709037E+02  0.10478867508E+03  0.00000000000E+00 0.  1.
         21    1    1    2  503  502 -0.79334927753E+02  0.87648577269E+01 -0.19696756681E+03  0.21252547110E+03  0.00000000000E+00 0. -1.
<scales pt_clust_5="13000.00000" pt_clust_6="13000.00000" pt_clust_7="13000.00000" pt_clust_8="13000.00000" pt_clust_9="36.04642" pt_clust_10="82.66722"></scales>
<clustering>
<clus scale="   36.046">  1  9  2 -1</clus>
<clus scale="   82.667">  2 10  1 -1</clus>
<clus scale="   91.026">  5  6 -1 -1</clus>
<clus scale="  100.056">  7  8 -1 -1</clus>
<clus scale="  104.945">  1  5  2 -1</clus>
<clus scale="   82.667">  2  5  1 -1</clus>
</clustering>
</event>
<event>
10    2  0.1133532E-006  0.1323263E+03  0.7546771E-02  0.1224101E+00
          1   -1    0    0  503    0  0.00000000000E+00  0.00000000000E+00  0.30404409222E+03  0.30404409222E+03  0.00000000000E+00 0. -1.
         -1   -1    0    0    0  501 -0.00000000000E+00 -0.00000000000E+00 -0.11007613722E+03  0.11007613722E+03  0.00000000000E+00 0.  1.
         23    2    1    2    0    0  0.71641204767E+02 -0.71789733818E+02  0.57121337766E+02  0.14778972578E+03  0.91064415195E+02 0.  0.
         23    2    1    2    0    0 -0.10405540749E+03  0.18842193603E+02  0.12572531305E+03  0.18772437274E+03  0.90835178703E+02 0.  0.
        -11    1    4    4    0    0 -0.24348074281E+02  0.44385601259E+02  0.24102914724E+02  0.56070141952E+02  0.00000000000E+00 0.  1.
         11    1    4    4    0    0 -0.79707333213E+02 -0.25543407656E+02  0.10162239832E+03  0.13165423078E+03  0.00000000000E+00 0. -1.
        -13    1    3    3    0    0 -0.83645031317E+01 -0.49970150403E+02  0.76858035077E+01  0.51245023363E+02  0.00000000000E+00 0. -1.
         13    1    3    3    0    0  0.80005707899E+02 -0.21819583415E+02  0.49435534259E+02  0.96544702414E+02  0.00000000000E+00 0.  1.
         21    1    1    2  502  501  0.73234736216E+01  0.40233960865E+02 -0.11532460763E+02  0.42490028524E+02  0.00000000000E+00 0. -1.
         21    1    1    2  503  502  0.25090729105E+02  0.12713579350E+02  0.22653764951E+02  0.36116102411E+02  0.00000000000E+00 0. -1.
<scales pt_clust_5="13000.00000" pt_clust_6="13000.00000" pt_clust_7="13000.00000" pt_clust_8="13000.00000" pt_clust_9="41.87223" pt_clust_10="28.12792"></scales>
<clustering>
<clus scale="   28.128">  1 10  2 -1</clus>
<clus scale="   41.872">  2  9  1 -1</clus>
<clus scale="   90.835">  5  6 -1 -1</clus>
<clus scale="   91.064">  7  8 -1 -1</clus>
<clus scale="  132.169">  1  5  2 -1</clus>
<clus scale="   28.128">  1  5  2 -1</clus>
</clustering>
</event>
<event>
10    2  0.1133532E-006  0.1221784E+03  0.7546771E-02  0.1239556E+00
          2   -1    0    0  503    0  0.00000000000E+00  0.00000000000E+00  0.11995969308E+03  0.11995969308E+03  0.00000000000E+00 0. -1.
         -2   -1    0    0    0  501 -0.00000000000E+00 -0.00000000000E+00 -0.36164122298E+03  0.36164122298E+03  0.00000000000E+00 0.  1.
         23    2    1    2    0    0 -0.31937765566E+02  0.81905258264E+02 -0.15582550909E+03  0.20224281205E+03  0.94297791810E+02 0.  0.
         23    2    1    2    0    0  0.21556926904E+01 -0.89944238683E+02  0.32689026516E+02  0.13434832795E+03  0.94267108182E+02 0.  0.
        -13    1    3    3    0    0 -0.13437474746E+01  0.95348404098E+02 -0.11951857465E+03  0.15289804940E+03  0.00000000000E+00 0.  1.
         13    1    3    3    0    0 -0.30594018091E+02 -0.13443145835E+02 -0.36306934436E+02  0.49344762650E+02  0.00000000000E+00 0. -1.
        -13    1    4    4    0    0 -0.15303365757E+02 -0.52657580716E+02  0.62776818367E+02  0.83354320432E+02  0.00000000000E+00 0. -1.
         13    1    4    4    0    0  0.17459058448E+02 -0.37286657967E+02 -0.30087791851E+02  0.50994007518E+02  0.00000000000E+00 0.  1.
         21    1    1    2  502  501  0.23961379459E+02 -0.12396641916E+02 -0.12067593177E+03  0.12365478133E+03  0.00000000000E+00 0.  1.
         21    1    1    2  503  502  0.58206934159E+01  0.20435622335E+02  0.21308844450E+01  0.21354994746E+02  0.00000000000E+00 0.  1.
<scales pt_clust_5="13000.00000" pt_clust_6="13000.00000" pt_clust_7="13000.00000" pt_clust_8="13000.00000" pt_clust_9="26.92166" pt_clust_10="21.24841"></scales>
<clustering>
<clus scale="   21.248">  1 10  2 -1</clus>
<clus scale="   26.922">  2  9  1 -1</clus>
<clus scale="   94.267">  7  8 -1 -1</clus>
<clus scale="   94.298">  5  6 -1 -1</clus>
<clus scale="  122.155">  1  7  2 -1</clus>
<clus scale="   21.248">  1  5  2 -1</clus>
</clustering>
</event>
<event>
10    2  0.1133532E-006  0.9482906E+02  0.7546771E-02  0.1293841E+00
          1   -1    0    0  503    0  0.00000000000E+00  0.00000000000E+00  0.34228966295E+03  0.34228966295E+03  0.00000000000E+00 0. -1.
         -1   -1    0    0    0  501 -0.00000000000E+00 -0.00000000000E+00 -0.74437370327E+02  0.74437370327E+02  0.00000000000E+00 0.  1.
         23    2    1    2    0    0 -0.43783325171E+02 -0.26529741728E+02  0.87805701151E+02  0.13821007452E+03  0.93655628689E+02 0.  0.
         23    2    1    2    0    0 -0.13151879656E+02 -0.32116515310E+01  0.10521986058E+03  0.13889942066E+03  0.89657924104E+02 0.  0.
        -11    1    4    4    0    0  0.22150889545E+02 -0.35752453230E+02  0.41195312696E+02  0.58872350112E+02  0.00000000000E+00 0. -1.
         11    1    4    4    0    0 -0.35302769201E+02  0.32540801699E+02  0.64024547888E+02  0.80027070549E+02  0.00000000000E+00 0.  1.
        -13    1    3    3    0    0 -0.71908961301E+01  0.31712196418E+02  0.92719451851E+01  0.33813331045E+02  0.00000000000E+00 0.  1.
         13    1    3    3    0    0 -0.36592429041E+02 -0.58241938147E+02  0.78533755966E+02  0.10439674348E+03  0.00000000000E+00 0. -1.
         21    1    1    2  502  501  0.37529070364E+02  0.36476510045E+02 -0.91814321936E+01  0.53134410739E+02  0.00000000000E+00 0.  1.
         21    1    1    2  503  502  0.19406134463E+02 -0.67351167857E+01  0.84008163083E+02  0.86483127357E+02  0.00000000000E+00 0.  1.
<scales pt_clust_5="13000.00000" pt_clust_6="13000.00000" pt_clust_7="13000.00000" pt_clust_8="13000.00000" pt_clust_9="53.14675" pt_clust_10="20.54166"></scales>
<clustering>
<clus scale="   20.542">  1 10  2 -1</clus>
<clus scale="   53.147">  2  9  1 -1</clus>
<clus scale="   89.658">  5  6 -1 -1</clus>
<clus scale="   90.883">  1  5  2 -1</clus>
<clus scale="   93.656">  7  8 -1 -1</clus>
<clus scale="   20.542">  1  5  2 -1</clus>
</clustering>
</event>
<event>
10    2  0.1133532E-006  0.2204014E+03  0.7546771E-02  0.1133634E+00
         -1   -1    0    0    0  501 -0.00000000000E+00  0.00000000000E+00  0.10817784975E+03  0.10817784975E+03  0.00000000000E+00 0.  1.
          1   -1    0    0  503    0  0.00000000000E+00 -0.00000000000E+00 -0.10557892966E+04  0.10557892966E+04  0.00000000000E+00 0. -1.
         23    2    1    2    0    0 -0.14095106835E+03  0.43846597698E+02 -0.11888961198E+03  0.21087593594E+03  0.92434802561E+02 0.  0.
         23    2    1    2    0    0  0.24361146016E+03 -0.15553219780E+01 -0.68238203410E+03  0.73035687748E+03  0.91798504700E+02 0.  0.
        -11    1    3    3    0    0 -0.39843064472E+02 -0.75596160541E+01 -0.82207205271E+02  0.91665927039E+02  0.00000000000E+00 0. -1.
         11    1    3    3    0    0 -0.10110800388E+03  0.51406213752E+02 -0.36682406704E+02  0.11921000890E+03  0.00000000000E+00 0.  1.
        -13    1    4    4    0    0  0.12883167301E+03  0.36185175751E+02 -0.28196914835E+03  0.31211146652E+03  0.00000000000E+00 0.  1.
         13    1    4    4    0    0  0.11477978715E+03 -0.37740497729E+02 -0.40041288576E+03  0.41824541096E+03  0.00000000000E+00 0. -1.
         21    1    1    2  502  501 -0.76283946826E+02 -0.36871595561E+02 -0.11822544887E+02  0.85548393732E+02  0.00000000000E+00 0.  1.
         21    1    1    2  503  502 -0.26376444983E+02 -0.54196801589E+01 -0.13451725592E+03  0.13718593923E+03  0.00000000000E+00 0.  1.
<scales pt_clust_5="13000.00000" pt_clust_6="13000.00000" pt_clust_7="13000.00000" pt_clust_8="13000.00000" pt_clust_9="86.10986" pt_clust_10="26.92749"></scales>
<clustering>
<clus scale="   26.927">  2 10  1 -1</clus>
<clus scale="   86.110">  1  9  2 -1</clus>
<clus scale="   91.799">  7  8 -1 -1</clus>
<clus scale="   92.435">  5  6 -1 -1</clus>
<clus scale="  220.135">  2  7  1 -1</clus>
<clus scale="   26.927">  2  5  1 -1</clus>
</clustering>
</event>
<event>
10    2  0.1133532E-006  0.2702565E+03  0.7546771E-02  0.1101196E+00
         -1   -1    0    0    0  501 -0.00000000000E+00  0.00000000000E+00  0.21723289443E+03  0.21723289443E+03  0.00000000000E+00 0.  1.
          1   -1    0    0  503    0  0.00000000000E+00 -0.00000000000E+00 -0.87316959453E+03  0.87316959453E+03  0.00000000000E+00 0. -1.
         23    2    1    2    0    0 -0.17883710979E+03  0.16332676553E+03  0.20452277702E+01  0.25846954439E+03  0.90243992831E+02 0.  0.
         23    2    1    2    0    0  0.17757607745E+03 -0.15709694883E+03 -0.56727602527E+03  0.62160881908E+03  0.91557197986E+02 0.  0.
        -13    1    3    3    0    0 -0.10238977312E+03  0.14747663578E+03  0.11069724610E+02  0.17987652026E+03  0.00000000000E+00 0.  1.
         13    1    3    3    0    0 -0.76447336672E+02  0.15850129753E+02 -0.90244968396E+01  0.78593024122E+02  0.00000000000E+00 0. -1.
        -13    1    4    4    0    0  0.93963188363E+02 -0.13572520785E+03 -0.41416400194E+03  0.44585001213E+03  0.00000000000E+00 0. -1.
         13    1    4    4    0    0  0.83612889083E+02 -0.21371740981E+02 -0.15311202332E+03  0.17575880695E+03  0.00000000000E+00 0.  1.
         21    1    1    2  502  501 -0.18048954918E+02  0.11552536023E+02  0.56691978455E+02  0.60606982133E+02  0.00000000000E+00 0.  1.
         21    1    1    2  503  502  0.19309987260E+02 -0.17782352725E+02 -0.14739788106E+03  0.14971714337E+03  0.00000000000E+00 0. -1.
<scales pt_clust_5="13000.00000" pt_clust_6="13000.00000" pt_clust_7="13000.00000" pt_clust_8="13000.00000" pt_clust_9="21.42956" pt_clust_10="26.09618"></scales>
<clustering>
<clus scale="   21.430">  1  9  2 -1</clus>
<clus scale="   26.096">  2 10  1 -1</clus>
<clus scale="   90.244">  5  6 -1 -1</clus>
<clus scale="   91.557">  7  8 -1 -1</clus>
<clus scale="  269.814">  1  5  2 -1</clus>
<clus scale="   26.096">  2  5  1 -1</clus>
</clustering>
</event>
<event>
10    2  0.1133532E-006  0.1015886E+03  0.7546771E-02  0.1278142E+00
          1   -1    0    0  503    0  0.00000000000E+00  0.00000000000E+00  0.70810959050E+02  0.70810959050E+02  0.00000000000E+00 0. -1.
         -1   -1    0    0    0  501 -0.00000000000E+00 -0.00000000000E+00 -0.84867357517E+03  0.84867357517E+03  0.00000000000E+00 0.  1.
         23    2    1    2    0    0  0.10621185427E+02 -0.27154528801E+02 -0.15171306148E+03  0.17979538431E+03  0.91974720325E+02 0.  0.
         23    2    1    2    0    0 -0.67266660347E+02 -0.49718275892E+02 -0.25087918452E+02  0.12506437768E+03  0.89526445032E+02 0.  0.
        -11    1    3    3    0    0  0.92298784264E+01 -0.58201464831E+02 -0.12729063005E+03  0.14026940388E+03  0.00000000000E+00 0.  1.
         11    1    3    3    0    0  0.13913070007E+01  0.31046936030E+02 -0.24422431431E+02  0.39525980431E+02  0.00000000000E+00 0. -1.
        -11    1    4    4    0    0 -0.71808226106E+02 -0.70842435964E+02 -0.19381231532E+02  0.10271662088E+03  0.00000000000E+00 0. -1.
         11    1    4    4    0    0  0.45415657592E+01  0.21124160071E+02 -0.57066869201E+01  0.22347756797E+02  0.00000000000E+00 0.  1.
         21    1    1    2  502  501  0.33167757273E+02  0.66833476994E+02 -0.56785663825E+03  0.57273726557E+03  0.00000000000E+00 0.  1.
         21    1    1    2  503  502  0.23477717647E+02  0.10039327700E+02 -0.33204997932E+02  0.41887506661E+02  0.00000000000E+00 0.  1.
<scales pt_clust_5="13000.00000" pt_clust_6="13000.00000" pt_clust_7="13000.00000" pt_clust_8="13000.00000" pt_clust_9="75.32686" pt_clust_10="25.53412"></scales>
<clustering>
<clus scale="   25.534">  1 10  2 -1</clus>
<clus scale="   75.327">  2  9  1 -1</clus>
<clus scale="   89.526">  7  8 -1 -1</clus>
<clus scale="   91.975">  5  6 -1 -1</clus>
<clus scale="   99.378">  1  7  2 -1</clus>
<clus scale="   25.534">  1  5  2 -1</clus>
</clustering>
</event>
<event>
10    2  0.1133532E-006  0.1649426E+03  0.7546771E-02  0.1184110E+00
         -1   -1    0    0    0  501 -0.00000000000E+00  0.00000000000E+00  0.74463808078E+03  0.74463808078E+03  0.00000000000E+00 0.  1.
          1   -1    0    0  503    0  0.00000000000E+00 -0.00000000000E+00 -0.61241992174E+03  0.61241992174E+03  0.00000000000E+00 0. -1.
         23    2    1    2    0    0 -0.92460793901E+02 -0.77526348078E+02  0.51537127881E+03  0.53623848585E+03  0.85935008166E+02 0.  0.
         23    2    1    2    0    0  0.98936703894E+02  0.12769601591E+03 -0.56455872676E+03  0.59435531647E+03  0.91852830070E+02 0.  0.
        -13    1    4    4    0    0  0.98483293110E+02  0.56252709733E+02 -0.37518045302E+03  0.39194859192E+03  0.00000000000E+00 0. -1.
         13    1    4    4    0    0  0.45341078453E+00  0.71443306180E+02 -0.18937827374E+03  0.20240672455E+03  0.00000000000E+00 0.  1.
        -13    1    3    3    0    0  0.52878038165E+01 -0.44686389884E+02  0.15256739323E+03  0.15906490432E+03  0.00000000000E+00 0. -1.
         13    1    3    3    0    0 -0.97748597717E+02 -0.32839958194E+02  0.36280388557E+03  0.37717358152E+03  0.00000000000E+00 0.  1.
         21    1    1    2  502  501  0.22335421303E+02 -0.40732464081E+02  0.18947870037E+03  0.19509019086E+03  0.00000000000E+00 0.  1.
         21    1    1    2  503  502 -0.28811331296E+02 -0.94372037543E+01 -0.80730933702E+01  0.31374009344E+02  0.00000000000E+00 0. -1.
<scales pt_clust_5="13000.00000" pt_clust_6="13000.00000" pt_clust_7="13000.00000" pt_clust_8="13000.00000" pt_clust_9="46.42814" pt_clust_10="30.31755"></scales>
<clustering>
<clus scale="   30.318">  2 10  1 -1</clus>
<clus scale="   46.428">  1  9  2 -1</clus>
<clus scale="   85.935">  7  8 -1 -1</clus>
<clus scale="   91.853">  5  6 -1 -1</clus>
<clus scale="  161.722">  1  7  2 -1</clus>
<clus scale="   30.318">  2  5  1 -1</clus>
</clustering>
</event>
<event>
10    2  0.1133532E-006  0.1670162E+03  0.7546771E-02  0.1184023E+00
         -1   -1    0    0    0  501 -0.00000000000E+00  0.00000000000E+00  0.45487122803E+03  0.45487122803E+03  0.00000000000E+00 0.  1.
          1   -1    0    0  503    0  0.00000000000E+00 -0.00000000000E+00 -0.16801272480E+03  0.16801272480E+03  0.00000000000E+00 0. -1.
         23    2    1    2    0    0  0.15432526208E+03 -0.59321877053E+02  0.29357877571E+03  0.34433448359E+03  0.71009629126E+02 0.  0.
         23    2    1    2    0    0 -0.11101840959E+03  0.18343894179E+02 -0.75165210408E+02  0.16397775044E+03  0.92613757419E+02 0.  0.
        -13    1    3    3    0    0  0.38852134556E+01 -0.22979827654E+02  0.23776792151E+02  0.33294191800E+02  0.00000000000E+00 0. -1.
         13    1    3    3    0    0  0.15044004862E+03 -0.36342049399E+02  0.26980198356E+03  0.31104029179E+03  0.00000000000E+00 0.  1.
        -13    1    4    4    0    0 -0.39660535186E+02  0.36448164222E+02  0.62353172680E+01  0.54224587668E+02  0.00000000000E+00 0.  1.
         13    1    4    4    0    0 -0.71357874405E+02 -0.18104270043E+02 -0.81400527676E+02  0.10975316278E+03  0.00000000000E+00 0. -1.
         21    1    1    2  502  501 -0.12332568561E+02  0.53025042401E+02  0.58429440508E+02  0.79860796935E+02  0.00000000000E+00 0. -1.
         21    1    1    2  503  502 -0.30974283928E+02 -0.12047059527E+02  0.10015497422E+02  0.34710921864E+02  0.00000000000E+00 0. -1.
<scales pt_clust_5="13000.00000" pt_clust_6="13000.00000" pt_clust_7="13000.00000" pt_clust_8="13000.00000" pt_clust_9="54.16296" pt_clust_10="33.23459"></scales>
<clustering>
<clus scale="   33.235">  2 10  1 -1</clus>
<clus scale="   54.163">  1  9  2 -1</clus>
<clus scale="   71.010">  5  6 -1 -1</clus>
<clus scale="   92.614">  7  8 -1 -1</clus>
<clus scale="  156.075">  1  5  2 -1</clus>
<clus scale="   33.235">  2  5  1 -1</clus>
</clustering>
</event>
<event>
10    2  0.1133532E-006  0.9989481E+02  0.7546771E-02  0.1281462E+00
          1   -1    0    0  503    0  0.00000000000E+00  0.00000000000E+00  0.37047362765E+03  0.37047362765E+03  0.00000000000E+00 0. -1.
         -1   -1    0    0    0  501 -0.00000000000E+00 -0.00000000000E+00 -0.26589795066E+03  0.26589795066E+03  0.00000000000E+00 0.  1.
         23    2    1    2    0    0 -0.35377225937E+02 -0.25648972190E+02 -0.21336221683E+03  0.23715233861E+03  0.93852960777E+02 0.  0.
         23    2    1    2    0    0  0.22886117236E+02  0.18487478650E+02  0.28068322538E+03  0.29682503228E+03  0.91959042770E+02 0.  0.
        -11    1    4    4    0    0 -0.31265452638E+02 -0.57189371703E+00  0.48941986680E+02  0.58079029359E+02  0.00000000000E+00 0.  1.
         11    1    4    4    0    0  0.54151569874E+02  0.19059372367E+02  0.23174123870E+03  0.23874600292E+03  0.00000000000E+00 0. -1.
        -11    1    3    3    0    0 -0.16593428648E+02 -0.60961365182E+02 -0.13998316070E+03  0.15358032165E+03  0.00000000000E+00 0.  1.
         11    1    3    3    0    0 -0.18783797289E+02  0.35312392991E+02 -0.73379056128E+02  0.83572016953E+02  0.00000000000E+00 0. -1.
         21    1    1    2  502  501  0.26368739145E+02 -0.79872343198E+01 -0.24773829662E+02  0.37051976362E+02  0.00000000000E+00 0. -1.
         21    1    1    2  503  502 -0.13877630444E+02  0.15148727860E+02  0.62028498101E+02  0.65342231055E+02  0.00000000000E+00 0. -1.
<scales pt_clust_5="13000.00000" pt_clust_6="13000.00000" pt_clust_7="13000.00000" pt_clust_8="13000.00000" pt_clust_9="27.19904" pt_clust_10="20.54441"></scales>
<clustering>
<clus scale="   20.544">  1 10  2 -1</clus>
<clus scale="   27.199">  2  9  1 -1</clus>
<clus scale="   91.959">  5  6 -1 -1</clus>
<clus scale="   93.853">  7  8 -1 -1</clus>
<clus scale="   98.118">  1  5  2 -1</clus>
<clus scale="   20.544">  1  5  2 -1</clus>
</clustering>
</event>
<event>
10    2  0.1133532E-006  0.1474973E+03  0.7546771E-02  0.1219214E+00
          1   -1    0    0  503    0  0.00000000000E+00  0.00000000000E+00  0.96975834085E+03  0.96975834085E+03  0.00000000000E+00 0. -1.
         -1   -1    0    0    0  501 -0.00000000000E+00 -0.00000000000E+00 -0.19154058969E+03  0.19154058969E+03  0.00000000000E+00 0.  1.
         23    2    1    2    0    0 -0.53395107796E+02 -0.12649407784E+02 -0.85903843027E+02  0.13689992659E+03  0.91384214175E+02 0.  0.
         23    2    1    2    0    0  0.14833168612E+03  0.57553510397E+02  0.13737771148E+03  0.23055963435E+03  0.94712268010E+02 0.  0.
        -11    1    3    3    0    0 -0.72658749661E+02 -0.22282956863E+02 -0.39297905485E+02  0.85557871902E+02  0.00000000000E+00 0. -1.
         11    1    3    3    0    0  0.19263641865E+02  0.96335490791E+01 -0.46605937542E+02  0.51342054691E+02  0.00000000000E+00 0.  1.
        -13    1    4    4    0    0  0.15510621919E+03  0.32001445814E+02  0.11253755367E+03  0.19428518407E+03  0.00000000000E+00 0.  1.
         13    1    4    4    0    0 -0.67745330621E+01  0.25552064583E+02  0.24840157812E+02  0.36274450275E+02  0.00000000000E+00 0. -1.
         21    1    1    2  502  501  0.12073676585E+02 -0.22543834924E+02 -0.24063519082E+02  0.35114827494E+02  0.00000000000E+00 0. -1.
         21    1    1    2  503  502 -0.10701025491E+03 -0.22360267689E+02  0.75080740178E+03  0.75872454211E+03  0.00000000000E+00 0. -1.
<scales pt_clust_5="13000.00000" pt_clust_6="13000.00000" pt_clust_7="13000.00000" pt_clust_8="13000.00000" pt_clust_9="25.57339" pt_clust_10="113.07097"></scales>
<clustering>
<clus scale="   25.573">  2  9  1 -1</clus>
<clus scale="   91.384">  5  6 -1 -1</clus>
<clus scale="   94.712">  7  8 -1 -1</clus>
<clus scale="  105.721">  2  5  1 -1</clus>
<clus scale="  113.071">  1 10  2 -1</clus>
<clus scale="  113.071">  1  5  2 -1</clus>
</clustering>
</event>
<event>
10    2  0.1133532E-006  0.1805769E+03  0.7546771E-02  0.1169938E+00
         -2   -1    0    0    0  501 -0.00000000000E+00  0.00000000000E+00  0.48669615481E+02  0.48669615481E+02  0.00000000000E+00 0.  1.
          2   -1    0    0  503    0  0.00000000000E+00 -0.00000000000E+00 -0.11467907985E+04  0.11467907985E+04  0.00000000000E+00 0. -1.
         23    2    1    2    0    0  0.11613219634E+03 -0.11807247539E+03 -0.37727914399E+03  0.42909104809E+03  0.11979890898E+03 0.  0.
         23    2    1    2    0    0 -0.70721791638E+02  0.86756484005E+02 -0.55736592634E+03  0.57771019206E+03  0.10278147123E+03 0.  0.
        -11    1    3    3    0    0 -0.11687421061E+02 -0.56373354905E+02 -0.70131616987E+02  0.90735850994E+02  0.00000000000E+00 0.  1.
         11    1    3    3    0    0  0.12781961740E+03 -0.61699120481E+02 -0.30714752700E+03  0.33835519710E+03  0.00000000000E+00 0. -1.
        -13    1    4    4    0    0 -0.63752692291E+01 -0.22903338014E+02 -0.65650611254E+02  0.69822701953E+02  0.00000000000E+00 0.  1.
         13    1    4    4    0    0 -0.64346522409E+02  0.10965982202E+03 -0.49171531509E+03  0.50788749011E+03  0.00000000000E+00 0. -1.
         21    1    1    2  502  501 -0.39428470952E+02  0.69099601845E+01 -0.23442029104E+02  0.46388367075E+02  0.00000000000E+00 0. -1.
         21    1    1    2  503  502 -0.59819337497E+01  0.24406031197E+02 -0.14003408360E+03  0.14227080677E+03  0.00000000000E+00 0. -1.
<scales pt_clust_5="13000.00000" pt_clust_6="13000.00000" pt_clust_7="13000.00000" pt_clust_8="13000.00000" pt_clust_9="40.38813" pt_clust_10="25.12843"></scales>
<clustering>
<clus scale="   25.128">  2 10  1 -1</clus>
<clus scale="   40.388">  1  9  2 -1</clus>
<clus scale="  102.781">  7  8 -1 -1</clus>
<clus scale="  119.799">  5  6 -1 -1</clus>
<clus scale="  169.765">  2  7  1 -1</clus>
<clus scale="   25.128">  2  5  1 -1</clus>
</clustering>
</event>
<event>
10    2  0.1133532E-006  0.1064065E+03  0.7546771E-02  0.1268126E+00
          1   -1    0    0  503    0  0.00000000000E+00  0.00000000000E+00  0.31347262951E+03  0.31347262951E+03  0.00000000000E+00 0. -1.
         -1   -1    0    0    0  501 -0.00000000000E+00 -0.00000000000E+00 -0.18293467029E+03  0.18293467029E+03  0.00000000000E+00 0.  1.
         23    2    1    2    0    0 -0.12891595129E+03  0.22122378263E+02 -0.61080458413E+02  0.17107827879E+03  0.91805408103E+02 0.  0.
         23    2    1    2    0    0  0.19533846771E+02  0.71227052717E+01  0.14834460507E+03  0.17475805234E+03  0.90010837711E+02 0.  0.
        -11    1    3    3    0    0 -0.77687680478E+02  0.44529657881E+02 -0.71017133259E+02  0.11428779176E+03  0.00000000000E+00 0.  1.
         11    1    3    3    0    0 -0.51228270807E+02 -0.22407279618E+02  0.99366748460E+01  0.56790487027E+02  0.00000000000E+00 0. -1.
        -11    1    4    4    0    0  0.42801248382E+01  0.38537579773E+02  0.23996849096E+02  0.45599487826E+02  0.00000000000E+00 0.  1.
         11    1    4    4    0    0  0.15253721932E+02 -0.31414874501E+02  0.12434775597E+03  0.12915856452E+03  0.00000000000E+00 0. -1.
         21    1    1    2  502  501  0.76197453061E+02 -0.41683689289E+02 -0.91047750650E+01  0.87329712783E+02  0.00000000000E+00 0.  1.
         21    1    1    2  503  502  0.33184651454E+02  0.12438605754E+02  0.52378587630E+02  0.63241255896E+02  0.00000000000E+00 0.  1.
<scales pt_clust_5="13000.00000" pt_clust_6="13000.00000" pt_clust_7="13000.00000" pt_clust_8="13000.00000" pt_clust_9="90.48759" pt_clust_10="35.43924"></scales>
<clustering>
<clus scale="   35.439">  1 10  2 -1</clus>
<clus scale="   90.011">  7  8 -1 -1</clus>
<clus scale="   90.488">  2  9  1 -1</clus>
<clus scale="   91.805">  5  6 -1 -1</clus>
<clus scale="  104.862">  1  7  2 -1</clus>
<clus scale="   35.439">  1  5  2 -1</clus>
</clustering>
</event>
<event>
10    2  0.1133532E-006  0.1113003E+03  0.7546771E-02  0.1258255E+00
         -1   -1    0    0    0  501 -0.00000000000E+00  0.00000000000E+00  0.47996272610E+02  0.47996272610E+02  0.00000000000E+00 0.  1.
          1   -1    0    0  503    0  0.00000000000E+00 -0.00000000000E+00 -0.43796260207E+03  0.43796260207E+03  0.00000000000E+00 0. -1.
         23    2    1    2    0    0 -0.77532590205E+02 -0.32063568646E+02 -0.19498813508E+03  0.23101653957E+03  0.91153133540E+02 0.  0.
         23    2    1    2    0    0  0.44349345796E+02  0.98918252962E+01 -0.13547065232E+03  0.16937987095E+03  0.90953451632E+02 0.  0.
        -11    1    3    3    0    0 -0.90936845672E+02 -0.47991978044E+02 -0.15644344745E+03  0.18720922015E+03  0.00000000000E+00 0.  1.
         11    1    3    3    0    0  0.13404255467E+02  0.15928409398E+02 -0.38544687631E+02  0.43807319424E+02  0.00000000000E+00 0. -1.
        -13    1    4    4    0    0  0.92661076599E+01  0.47455851826E+02 -0.49366304010E+02  0.69101017324E+02  0.00000000000E+00 0. -1.
         13    1    4    4    0    0  0.35083238136E+02 -0.37564026529E+02 -0.86104348307E+02  0.10027885363E+03  0.00000000000E+00 0.  1.
         21    1    1    2  502  501  0.23244503678E+02 -0.91929495635E+01 -0.11880946091E+02  0.27676238056E+02  0.00000000000E+00 0.  1.
         21    1    1    2  503  502  0.99387407310E+01  0.31364692913E+02 -0.47626595973E+02  0.57886226107E+02  0.00000000000E+00 0. -1.
<scales pt_clust_5="13000.00000" pt_clust_6="13000.00000" pt_clust_7="13000.00000" pt_clust_8="13000.00000" pt_clust_9="24.99635" pt_clust_10="32.83419"></scales>
<clustering>
<clus scale="   24.996">  1  9  2 -1</clus>
<clus scale="   32.834">  1 10  2 -1</clus>
<clus scale="   90.953">  7  8 -1 -1</clus>
<clus scale="   91.153">  5  6 -1 -1</clus>
<clus scale="  111.137">  2  7  1 -1</clus>
<clus scale="  111.137">  2  5  1 -1</clus>
</clustering>
</event>
<event>
10    2  0.1133532E-006  0.1197776E+03  0.7546771E-02  0.1244656E+00
         -1   -1    0    0    0  501 -0.00000000000E+00  0.00000000000E+00  0.13729575946E+03  0.13729575946E+03  0.00000000000E+00 0.  1.
          1   -1    0    0  503    0  0.00000000000E+00 -0.00000000000E+00 -0.88744044640E+03  0.88744044640E+03  0.00000000000E+00 0. -1.
         23    2    1    2    0    0  0.94028863743E+02  0.48862574416E+01  0.56087799366E+02  0.14236408818E+03  0.90864677601E+02 0.  0.
         23    2    1    2    0    0 -0.11196335516E+03  0.18296361041E+02 -0.27177111880E+03  0.30928933007E+03  0.94497613476E+02 0.  0.
        -11    1    3    3    0    0  0.74155482527E+02 -0.35078955779E+02  0.52911260441E+02  0.97617468768E+02  0.00000000000E+00 0.  1.
         11    1    3    3    0    0  0.19873381216E+02  0.39965213221E+02  0.31765389255E+01  0.44746619407E+02  0.00000000000E+00 0. -1.
        -13    1    4    4    0    0 -0.39375800657E+02 -0.39858173529E+01 -0.20307291457E+03  0.20689356937E+03  0.00000000000E+00 0. -1.
         13    1    4    4    0    0 -0.72587554507E+02  0.22282178394E+02 -0.68698204234E+02  0.10239576069E+03  0.00000000000E+00 0.  1.
         21    1    1    2  502  501 -0.35319232764E+02  0.15832855240E+02 -0.44326566588E+01  0.38958644139E+02  0.00000000000E+00 0.  1.
         21    1    1    2  503  502  0.53253724184E+02 -0.39015473723E+02 -0.53002871085E+03  0.53412414348E+03  0.00000000000E+00 0. -1.
<scales pt_clust_5="13000.00000" pt_clust_6="13000.00000" pt_clust_7="13000.00000" pt_clust_8="13000.00000" pt_clust_9="38.70565" pt_clust_10="65.37088"></scales>
<clustering>
<clus scale="   38.706">  1  9  2 -1</clus>
<clus scale="   65.371">  2 10  1 -1</clus>
<clus scale="   90.865">  5  6 -1 -1</clus>
<clus scale="   94.498">  7  8 -1 -1</clus>
<clus scale="  116.933">  1  5  2 -1</clus>
<clus scale="   65.371">  2  5  1 -1</clus>
</clustering>
</event>
<event>
10    2  0.1133532E-006  0.9465292E+02  0.7546771E-02  0.1292578E+00
          1   -1    0    0  503    0  0.00000000000E+00  0.00000000000E+00  0.41751779750E+03  0.41751779750E+03  0.00000000000E+00 0. -1.
         -1   -1    0    0    0  501 -0.00000000000E+00 -0.00000000000E+00 -0.55056430661E+02  0.55056430661E+02  0.00000000000E+00 0.  1.
         23    2    1    2    0    0 -0.48441604371E+02 -0.49794406574E+01  0.55096418993E+02  0.11817414865E+03  0.92510162473E+02 0.  0.
         23    2    1    2    0    0 -0.59286633887E+01  0.33623509510E+01  0.20448507512E+03  0.22408555216E+03  0.91398765229E+02 0.  0.
        -11    1    4    4    0    0  0.32915552730E+02  0.22609061429E+02  0.52034418167E+02  0.65591035547E+02  0.00000000000E+00 0.  1.
         11    1    4    4    0    0 -0.38844216118E+02 -0.19246710478E+02  0.15245065696E+03  0.15849451661E+03  0.00000000000E+00 0. -1.
        -11    1    3    3    0    0 -0.58593904005E+02  0.31589203667E+02  0.36351230943E+02  0.75845470306E+02  0.00000000000E+00 0.  1.
         11    1    3    3    0    0  0.10152299634E+02 -0.36568644324E+02  0.18745188050E+02  0.42328678347E+02  0.00000000000E+00 0. -1.
         21    1    1    2  502  501  0.28489017369E+02  0.20238225163E+02  0.17310947667E+02  0.38998445835E+02  0.00000000000E+00 0.  1.
         21    1    1    2  503  502  0.25881250391E+02 -0.18621135456E+02  0.85568925055E+02  0.91316081511E+02  0.00000000000E+00 0. -1.
<scales pt_clust_5="13000.00000" pt_clust_6="13000.00000" pt_clust_7="13000.00000" pt_clust_8="13000.00000" pt_clust_9="35.92121" pt_clust_10="31.88394"></scales>
<clustering>
<clus scale="   31.884">  1 10  2 -1</clus>
<clus scale="   35.921">  2  9  1 -1</clus>
<clus scale="   91.399">  5  6 -1 -1</clus>
<clus scale="   92.510">  7  8 -1 -1</clus>
<clus scale="   93.567">  1  5  2 -1</clus>
<clus scale="   31.884">  1  5  2 -1</clus>
</clustering>
</event>
<event>
10    2  0.1562439E-006  0.1057008E+03  0.7546771E-02  0.1270226E+00
         -2   -1    0    0    0  501 -0.00000000000E+00  0.00000000000E+00  0.60221102970E+03  0.60221102970E+03  0.00000000000E+00 0.  1.
          2   -1    0    0  503    0  0.00000000000E+00 -0.00000000000E+00 -0.55124853384E+03  0.55124853384E+03  0.00000000000E+00 0. -1.
         23    2    1    2    0    0 -0.70048223961E+02  0.93116388938E+00  0.48882919390E+03  0.50208121082E+03  0.90685945418E+02 0.  0.
         23    2    1    2    0    0 -0.84062260434E+01  0.41736034840E+02 -0.16258110822E+02  0.10451550181E+03  0.94056380492E+02 0.  0.
        -13    1    4    4    0    0 -0.19693281846E+02 -0.21815248880E+02  0.14778067803E+02  0.32895618577E+02  0.00000000000E+00 0. -1.
         13    1    4    4    0    0  0.11287055802E+02  0.63551283720E+02 -0.31036178625E+02  0.71619883236E+02  0.00000000000E+00 0.  1.
        -13    1    3    3    0    0 -0.90917458358E+02  0.10522939717E+02  0.39893944709E+03  0.40930355354E+03  0.00000000000E+00 0.  1.
         13    1    3    3    0    0  0.20869234397E+02 -0.95917758278E+01  0.89889746810E+02  0.92777657274E+02  0.00000000000E+00 0. -1.
         21    1    1    2  502  501  0.17242977156E+02  0.23604199793E+02  0.54735006328E+02  0.62051586819E+02  0.00000000000E+00 0. -1.
         21    1    1    2  503  502  0.61211472848E+02 -0.66271398523E+02 -0.47634359355E+03  0.48481126409E+03  0.00000000000E+00 0. -1.
<scales pt_clust_5="13000.00000" pt_clust_6="13000.00000" pt_clust_7="13000.00000" pt_clust_8="13000.00000" pt_clust_9="29.23146" pt_clust_10="90.17135"></scales>
<clustering>
<clus scale="   29.231">  1  9  2 -1</clus>
<clus scale="   90.171">  2 10  1 -1</clus>
<clus scale="   90.686">  7  8 -1 -1</clus>
<clus scale="   94.056">  5  6 -1 -1</clus>
<clus scale="  102.713">  1  7  2 -1</clus>
<clus scale="   90.171">  2  5  1 -1</clus>
</clustering>
</event>
<event>
10    2  0.1133532E-006  0.1004168E+03  0.7546771E-02  0.1282218E+00
         -2   -1    0    0    0  501 -0.00000000000E+00  0.00000000000E+00  0.24596272433E+03  0.24596272433E+03  0.00000000000E+00 0.  1.
          2   -1    0    0  503    0  0.00000000000E+00 -0.00000000000E+00 -0.72860894908E+02  0.72860894908E+02  0.00000000000E+00 0. -1.
         23    2    1    2    0    0 -0.13034258615E+01  0.11399719751E+02  0.63482270125E+02  0.11543202015E+03  0.95723038638E+02 0.  0.
         23    2    1    2    0    0 -0.35022723099E+02 -0.39937376275E+02  0.71299104812E+02  0.12669373455E+03  0.90256051712E+02 0.  0.
        -11    1    3    3    0    0  0.29578092789E+02 -0.16604538279E+02  0.65428444142E+02  0.73698409530E+02  0.00000000000E+00 0.  1.
         11    1    3    3    0    0 -0.30881518651E+02  0.28004258029E+02 -0.19461740171E+01  0.41733610618E+02  0.00000000000E+00 0. -1.
        -13    1    4    4    0    0  0.12643569695E+02  0.18472812700E+02 -0.76796603372E+00  0.22398536459E+02  0.00000000000E+00 0.  1.
         13    1    4    4    0    0 -0.47666292795E+02 -0.58410188975E+02  0.72067070846E+02  0.10429519809E+03  0.00000000000E+00 0. -1.
         21    1    1    2  502  501  0.20561676138E+02 -0.67090265542E+01  0.30356748614E+02  0.37273660262E+02  0.00000000000E+00 0.  1.
         21    1    1    2  503  502  0.15764472823E+02  0.35246683079E+02  0.79637058687E+01  0.39424204273E+02  0.00000000000E+00 0.  1.
<scales pt_clust_5="13000.00000" pt_clust_6="13000.00000" pt_clust_7="13000.00000" pt_clust_8="13000.00000" pt_clust_9="21.62854" pt_clust_10="38.93926"></scales>
<clustering>
<clus scale="   21.629">  1  9  2 -1</clus>
<clus scale="   38.939">  2 10  1 -1</clus>
<clus scale="   90.256">  7  8 -1 -1</clus>
<clus scale="   95.220">  2  7  1 -1</clus>
<clus scale="   95.723">  5  6 -1 -1</clus>
<clus scale="   38.939">  2  5  1 -1</clus>
</clustering>
</event>
<event>
10    2  0.1452364E-006  0.9376441E+02  0.7546771E-02  0.1294366E+00
          1   -1    0    0  503    0  0.00000000000E+00  0.00000000000E+00  0.70837235934E+03  0.70837235934E+03  0.00000000000E+00 0. -1.
         -1   -1    0    0    0  501 -0.00000000000E+00 -0.00000000000E+00 -0.95056809958E+02  0.95056809958E+02  0.00000000000E+00 0.  1.
         23    2    1    2    0    0  0.95219859939E+01  0.75823735570E+01  0.54139222412E+02  0.10657113486E+03  0.90984563391E+02 0.  0.
         23    2    1    2    0    0  0.67585232326E+00  0.27271497509E+02  0.53809424029E+03  0.54652716664E+03  0.91664284673E+02 0.  0.
        -11    1    3    3    0    0 -0.30487085727E+02 -0.16362289028E+02 -0.67650342152E+00  0.34607001535E+02  0.00000000000E+00 0.  1.
         11    1    3    3    0    0  0.40009071721E+02  0.23944662585E+02  0.54815725833E+02  0.71964133323E+02  0.00000000000E+00 0. -1.
        -11    1    4    4    0    0 -0.48507673029E+01 -0.33884860131E+02  0.19106699112E+03  0.19410901263E+03  0.00000000000E+00 0.  1.
         11    1    4    4    0    0  0.55266196262E+01  0.61156357640E+02  0.34702724917E+03  0.35241815400E+03  0.00000000000E+00 0. -1.
         21    1    1    2  502  501  0.16557289452E+02 -0.13433225120E+02 -0.59262562170E+02  0.62981319818E+02  0.00000000000E+00 0.  1.
         21    1    1    2  503  502 -0.26755127769E+02 -0.21420645947E+02  0.80344648851E+02  0.87349547988E+02  0.00000000000E+00 0.  1.
<scales pt_clust_5="13000.00000" pt_clust_6="13000.00000" pt_clust_7="13000.00000" pt_clust_8="13000.00000" pt_clust_9="21.32124" pt_clust_10="33.87444"></scales>
<clustering>
<clus scale="   21.321">  2  9  1 -1</clus>
<clus scale="   33.874">  1 10  2 -1</clus>
<clus scale="   90.985">  5  6 -1 -1</clus>
<clus scale="   91.664">  7  8 -1 -1</clus>
<clus scale="   93.100">  2  5  1 -1</clus>
<clus scale="   33.874">  1  5  2 -1</clus>
</clustering>
</event>
<event>
10    2  0.1133532E-006  0.9375675E+02  0.7546771E-02  0.1296318E+00
          2   -1    0    0  503    0  0.00000000000E+00  0.00000000000E+00  0.19375161418E+03  0.19375161418E+03  0.00000000000E+00 0. -1.
         -2   -1    0    0    0  501 -0.00000000000E+00 -0.00000000000E+00 -0.42416081101E+03  0.42416081101E+03  0.00000000000E+00 0.  1.
         23    2    1    2    0    0 -0.83302050329E+02  0.22285724754E+02 -0.59366338191E+02  0.13288681723E+03  0.81845335643E+02 0.  0.
         23    2    1    2    0    0  0.93275255329E+01  0.43292200405E+02  0.69332874326E+02  0.11287959815E+03  0.77288672314E+02 0.  0.
        -13    1    4    4    0    0 -0.69490271891E+00 -0.22502622263E+02  0.16790164905E+02  0.28084880915E+02  0.00000000000E+00 0.  1.
         13    1    4    4    0    0  0.10022428252E+02  0.65794822668E+02  0.52542709421E+02  0.84794717237E+02  0.00000000000E+00 0. -1.
        -13    1    3    3    0    0 -0.37855951555E+02  0.45565642791E+02 -0.68421174126E+01  0.59633174004E+02  0.00000000000E+00 0. -1.
         13    1    3    3    0    0 -0.45446098774E+02 -0.23279918036E+02 -0.52524220778E+02  0.73253643226E+02  0.00000000000E+00 0.  1.
         21    1    1    2  502  501  0.47216124446E+02 -0.57186458174E+02 -0.29851927437E+03  0.30759292999E+03  0.00000000000E+00 0.  1.
         21    1    1    2  503  502  0.26758400350E+02 -0.83914669861E+01  0.58143541408E+02  0.64553079825E+02  0.00000000000E+00 0. -1.
<scales pt_clust_5="13000.00000" pt_clust_6="13000.00000" pt_clust_7="13000.00000" pt_clust_8="13000.00000" pt_clust_9="74.96697" pt_clust_10="28.04334"></scales>
<clustering>
<clus scale="   28.043">  1 10  2 -1</clus>
<clus scale="   74.967">  2  9  1 -1</clus>
<clus scale="   77.289">  5  6 -1 -1</clus>
<clus scale="   81.845">  7  8 -1 -1</clus>
<clus scale="   89.807">  1  5  2 -1</clus>
<clus scale="   28.043">  1  5  2 -1</clus>
</clustering>
</event>
<event>
10    2  0.1133532E-006  0.9759845E+02  0.7546771E-02  0.1285783E+00
          1   -1    0    0  503    0  0.00000000000E+00  0.00000000000E+00  0.31942767640E+03  0.31942767640E+03  0.00000000000E+00 0. -1.
         -1   -1    0    0    0  501 -0.00000000000E+00 -0.00000000000E+00 -0.66688749734E+02  0.66688749734E+02  0.00000000000E+00 0.  1.
         23    2    1    2    0    0  0.74524486375E+01 -0.35960854001E+02  0.47949127763E+02  0.10925554357E+03  0.91043577132E+02 0.  0.
         23    2    1    2    0    0 -0.53467800132E+02 -0.11281981038E+02  0.10057614469E+03  0.14668644532E+03  0.91734745943E+02 0.  0.
        -11    1    4    4    0    0  0.24349168105E+02 -0.72260976618E+01  0.42466031922E+02  0.49481939554E+02  0.00000000000E+00 0. -1.
         11    1    4    4    0    0 -0.77816968237E+02 -0.40558833766E+01  0.58110112768E+02  0.97204505768E+02  0.00000000000E+00 0.  1.
        -13    1    3    3    0    0  0.38084198385E+02 -0.30102517611E+02 -0.39520515892E+01  0.48705096704E+02  0.00000000000E+00 0. -1.
         13    1    3    3    0    0 -0.30631749748E+02 -0.58583363897E+01  0.51901179353E+02  0.60550446869E+02  0.00000000000E+00 0.  1.
         21    1    1    2  502  501  0.28797038998E+02  0.30971126354E+02  0.28898262568E+02  0.51220988882E+02  0.00000000000E+00 0. -1.
         21    1    1    2  503  502  0.17218312497E+02  0.16271708685E+02  0.75315391650E+02  0.78953448361E+02  0.00000000000E+00 0. -1.
<scales pt_clust_5="13000.00000" pt_clust_6="13000.00000" pt_clust_7="13000.00000" pt_clust_8="13000.00000" pt_clust_9="46.19982" pt_clust_10="23.69048"></scales>
<clustering>
<clus scale="   23.690">  1 10  2 -1</clus>
<clus scale="   46.200">  2  9  1 -1</clus>
<clus scale="   91.044">  7  8 -1 -1</clus>
<clus scale="   91.735">  5  6 -1 -1</clus>
<clus scale="   96.949">  2  7  1 -1</clus>
<clus scale="   23.690">  1  5  2 -1</clus>
</clustering>
</event>
<event>
10    2  0.1133532E-006  0.9725619E+02  0.7546771E-02  0.1287688E+00
         -1   -1    0    0    0  501 -0.00000000000E+00  0.00000000000E+00  0.39624383016E+03  0.39624383016E+03  0.00000000000E+00 0.  1.
          1   -1    0    0  503    0  0.00000000000E+00 -0.00000000000E+00 -0.96613227445E+02  0.96613227445E+02  0.00000000000E+00 0. -1.
         23    2    1    2    0    0 -0.43484532529E+02 -0.46687878249E+02  0.37969807578E+02  0.11805575343E+03  0.91786666164E+02 0.  0.
         23    2    1    2    0    0 -0.22791532115E+02 -0.28187382007E+01  0.31134248217E+02  0.10220299399E+03  0.94597628660E+02 0.  0.
        -11    1    4    4    0    0  0.21385399599E+02  0.25161555648E+02  0.36988188688E+02  0.49583921800E+02  0.00000000000E+00 0. -1.
         11    1    4    4    0    0 -0.44176931714E+02 -0.27980293849E+02 -0.58539404714E+01  0.52619072194E+02  0.00000000000E+00 0.  1.
        -13    1    3    3    0    0 -0.48893502387E+02 -0.17665768349E+02  0.61337502693E+02  0.80404870398E+02  0.00000000000E+00 0.  1.
         13    1    3    3    0    0  0.54089698578E+01 -0.29022109900E+02 -0.23367695116E+02  0.37650883031E+02  0.00000000000E+00 0. -1.
         21    1    1    2  502  501  0.75887717964E+02  0.28780121041E+02  0.23560618716E+03  0.24919373293E+03  0.00000000000E+00 0.  1.
         21    1    1    2  503  502 -0.96116533199E+01  0.20726495408E+02 -0.50796402357E+01  0.23404577253E+02  0.00000000000E+00 0.  1.
<scales pt_clust_5="13000.00000" pt_clust_6="13000.00000" pt_clust_7="13000.00000" pt_clust_8="13000.00000" pt_clust_9="81.04857" pt_clust_10="22.84670"></scales>
<clustering>
<clus scale="   22.847">  2 10  1 -1</clus>
<clus scale="   81.049">  1  9  2 -1</clus>
<clus scale="   91.787">  7  8 -1 -1</clus>
<clus scale="   94.524">  1  7  2 -1</clus>
<clus scale="   94.598">  5  6 -1 -1</clus>
<clus scale="   22.847">  2  5  1 -1</clus>
</clustering>
</event>
<event>
10    2  0.1133532E-006  0.1267335E+03  0.7546771E-02  0.1248336E+00
          1   -1    0    0  503    0  0.00000000000E+00  0.00000000000E+00  0.61319508771E+03  0.61319508771E+03  0.00000000000E+00 0. -1.
         -1   -1    0    0    0  501 -0.00000000000E+00 -0.00000000000E+00 -0.64586749329E+02  0.64586749329E+02  0.00000000000E+00 0.  1.
         23    2    1    2    0    0  0.79893706944E+01  0.22047822923E+02  0.76763942026E+02  0.12136931303E+03  0.91037743880E+02 0.  0.
         23    2    1    2    0    0 -0.37404969307E+02  0.78943992930E+02  0.17500914565E+03  0.21440895139E+03  0.87816351698E+02 0.  0.
        -11    1    4    4    0    0 -0.15610845594E+02 -0.16560220748E+02  0.16643479270E+02  0.28194765713E+02  0.00000000000E+00 0.  1.
         11    1    4    4    0    0 -0.21794123713E+02  0.95504213678E+02  0.15836566638E+03  0.18621418568E+03  0.00000000000E+00 0. -1.
        -11    1    3    3    0    0  0.86703363413E+01  0.57675677382E+02  0.49589724254E+02  0.76555857028E+02  0.00000000000E+00 0.  1.
         11    1    3    3    0    0 -0.68096564686E+00 -0.35627854458E+02  0.27174217772E+02  0.44813456004E+02  0.00000000000E+00 0. -1.
         21    1    1    2  502  501 -0.27746617030E+02 -0.27060179891E+02  0.95724476444E+01  0.39921921876E+02  0.00000000000E+00 0.  1.
         21    1    1    2  503  502  0.57162215643E+02 -0.73931635962E+02  0.28726280306E+03  0.30208165074E+03  0.00000000000E+00 0.  1.
<scales pt_clust_5="13000.00000" pt_clust_6="13000.00000" pt_clust_7="13000.00000" pt_clust_8="13000.00000" pt_clust_9="38.75730" pt_clust_10="91.37647"></scales>
<clustering>
<clus scale="   38.757">  2  9  1 -1</clus>
<clus scale="   87.816">  5  6 -1 -1</clus>
<clus scale="   91.038">  7  8 -1 -1</clus>
<clus scale="   91.680">  2  7  1 -1</clus>
<clus scale="   91.376">  1 10  2 -1</clus>
<clus scale="   91.376">  1  5  2 -1</clus>
</clustering>
</event>
<event>
10    2  0.1133532E-006  0.1425126E+03  0.7546771E-02  0.1226431E+00
         -1   -1    0    0    0  501 -0.00000000000E+00  0.00000000000E+00  0.13410620383E+03  0.13410620383E+03  0.00000000000E+00 0.  1.
          1   -1    0    0  503    0  0.00000000000E+00 -0.00000000000E+00 -0.57930033087E+03  0.57930033087E+03  0.00000000000E+00 0. -1.
         23    2    1    2    0    0  0.65079020937E+01  0.85938899819E+02  0.32598264797E+02  0.13012330285E+03  0.91878070208E+02 0.  0.
         23    2    1    2    0    0  0.28076910148E+02  0.19480546274E+02 -0.26441619928E+03  0.28257953298E+03  0.93634723528E+02 0.  0.
        -13    1    4    4    0    0  0.59502676833E+02  0.26812336435E+02 -0.14754378772E+03  0.16133393701E+03  0.00000000000E+00 0. -1.
         13    1    4    4    0    0 -0.31425766685E+02 -0.73317901609E+01 -0.11687241156E+03  0.12124559597E+03  0.00000000000E+00 0.  1.
        -13    1    3    3    0    0  0.47633532524E+02  0.45950254637E+02  0.47391848542E+01  0.66353893594E+02  0.00000000000E+00 0. -1.
         13    1    3    3    0    0 -0.41125630430E+02  0.39988645181E+02  0.27859079942E+02  0.63769409257E+02  0.00000000000E+00 0.  1.
         21    1    1    2  502  501  0.37301717291E+02  0.13109210972E+02  0.71955757440E+01  0.40187632867E+02  0.00000000000E+00 0.  1.
         21    1    1    2  503  502 -0.71886529533E+02 -0.11852865706E+03 -0.22057176830E+03  0.26051606600E+03  0.00000000000E+00 0.  1.
<scales pt_clust_5="13000.00000" pt_clust_6="13000.00000" pt_clust_7="13000.00000" pt_clust_8="13000.00000" pt_clust_9="39.53820" pt_clust_10="108.94157"></scales>
<clustering>
<clus scale="   39.538">  1  9  2 -1</clus>
<clus scale="   91.878">  7  8 -1 -1</clus>
<clus scale="   93.635">  5  6 -1 -1</clus>
<clus scale="  100.798">  2  5  1 -1</clus>
<clus scale="  108.942">  2 10  1 -1</clus>
<clus scale="  100.798">  2  5  1 -1</clus>
</clustering>
</event>
<event>
10    2  0.1133532E-006  0.1749396E+03  0.7546771E-02  0.1176931E+00
         -2   -1    0    0    0  501 -0.00000000000E+00  0.00000000000E+00  0.62431036599E+02  0.62431036599E+02  0.00000000000E+00 0.  1.
          2   -1    0    0  503    0  0.00000000000E+00 -0.00000000000E+00 -0.97560805989E+03  0.97560805989E+03  0.00000000000E+00 0. -1.
         23    2    1    2    0    0 -0.18577444563E+03  0.24473006412E+02 -0.25569925572E+03  0.33005086205E+03  0.91871592320E+02 0.  0.
         23    2    1    2    0    0  0.10496930413E+03 -0.33994452776E+02 -0.28474076643E+03  0.31057042568E+03  0.56590702485E+02 0.  0.
        -11    1    3    3    0    0 -0.42206507326E+02 -0.85307200699E+00 -0.84953712938E+01  0.43061448256E+02  0.00000000000E+00 0. -1.
         11    1    3    3    0    0 -0.14356793830E+03  0.25326078419E+02 -0.24720388443E+03  0.28698941380E+03  0.00000000000E+00 0.  1.
        -13    1    4    4    0    0  0.59879260036E+02 -0.43429703821E+02 -0.21133995651E+03  0.22391123727E+03  0.00000000000E+00 0. -1.
         13    1    4    4    0    0  0.45090044097E+02  0.94352510442E+01 -0.73400809920E+02  0.86659188409E+02  0.00000000000E+00 0.  1.
         21    1    1    2  502  501 -0.12718498438E+02  0.31419855106E+02 -0.47922651891E+02  0.58698790973E+02  0.00000000000E+00 0.  1.
         21    1    1    2  503  502  0.93523639933E+02 -0.21898408741E+02 -0.32481434925E+03  0.33871901779E+03  0.00000000000E+00 0. -1.
<scales pt_clust_5="13000.00000" pt_clust_6="13000.00000" pt_clust_7="13000.00000" pt_clust_8="13000.00000" pt_clust_9="33.89642" pt_clust_10="93.73162"></scales>
<clustering>
<clus scale="   33.896">  1  9  2 -1</clus>
<clus scale="   56.591">  7  8 -1 -1</clus>
<clus scale="   91.872">  5  6 -1 -1</clus>
<clus scale="   93.732">  2 10  1 -1</clus>
<clus scale="  159.267">  2  7  1 -1</clus>
<clus scale="   93.732">  2  5  1 -1</clus>
</clustering>
</event>
<event>
10    2  0.1133532E-006  0.1356943E+03  0.7546771E-02  0.1227906E+00
          1   -1    0    0  503    0  0.00000000000E+00  0.00000000000E+00  0.56487669777E+03  0.56487669777E+03  0.00000000000E+00 0. -1.
         -1   -1    0    0    0  501 -0.00000000000E+00 -0.00000000000E+00 -0.91713215103E+02  0.91713215103E+02  0.00000000000E+00 0.  1.
         23    2    1    2    0    0  0.26096754768E+01 -0.39789227901E+02  0.22807903916E+02  0.10052570896E+03  0.89416019918E+02 0.  0.
         23    2    1    2    0    0 -0.55836892319E+02 -0.32104341803E+02  0.14959341551E+03  0.18661375924E+03  0.91093676341E+02 0.  0.
        -11    1    3    3    0    0 -0.10576227313E+02  0.27420570237E+02  0.58400230953E+01  0.29964147344E+02  0.00000000000E+00 0. -1.
         11    1    3    3    0    0  0.13185902790E+02 -0.67209798139E+02  0.16967880821E+02  0.70561561617E+02  0.00000000000E+00 0.  1.
        -11    1    4    4    0    0  0.20562085802E+02  0.10782221729E+02  0.40628296481E+02  0.46794381638E+02  0.00000000000E+00 0. -1.
         11    1    4    4    0    0 -0.76398978121E+02 -0.42886563532E+02  0.10896511903E+03  0.13981937761E+03  0.00000000000E+00 0.  1.
         21    1    1    2  502  501 -0.14055436161E+02 -0.58731235039E+02  0.48243711193E+02  0.77294041974E+02  0.00000000000E+00 0.  1.
         21    1    1    2  503  502  0.67282653004E+02  0.13062480474E+03  0.25251845205E+03  0.29215640269E+03  0.00000000000E+00 0. -1.
<scales pt_clust_5="13000.00000" pt_clust_6="13000.00000" pt_clust_7="13000.00000" pt_clust_8="13000.00000" pt_clust_9="60.38968" pt_clust_10="100.57279"></scales>
<clustering>
<clus scale="   60.390">  2  9  1 -1</clus>
<clus scale="   89.416">  5  6 -1 -1</clus>
<clus scale="   91.094">  7  8 -1 -1</clus>
<clus scale="  113.250">  2  5  1 -1</clus>
<clus scale="  100.573">  2 10  1 -1</clus>
<clus scale="  135.694">  1  5  2 -1</clus>
</clustering>
</event>
<event>
10    2  0.1133532E-006  0.1686492E+03  0.7546771E-02  0.1195759E+00
         -1   -1    0    0    0  501 -0.00000000000E+00  0.00000000000E+00  0.81542674362E+02  0.81542674362E+02  0.00000000000E+00 0.  1.
          1   -1    0    0  503    0  0.00000000000E+00 -0.00000000000E+00 -0.97935503972E+03  0.97935503972E+03  0.00000000000E+00 0. -1.
         23    2    1    2    0    0  0.82571013518E+02 -0.31835181004E+02 -0.85254310022E+02  0.15321822028E+03  0.91520897199E+02 0.  0.
         23    2    1    2    0    0 -0.15308109206E+01 -0.11501758173E+03 -0.22177974948E+03  0.26920480199E+03  0.10026754532E+03 0.  0.
        -11    1    4    4    0    0  0.18240645184E+02 -0.75953484954E+02 -0.51922376950E+02  0.93795448938E+02  0.00000000000E+00 0.  1.
         11    1    4    4    0    0 -0.19771456105E+02 -0.39064096773E+02 -0.16985737253E+03  0.17540935305E+03  0.00000000000E+00 0. -1.
        -11    1    3    3    0    0  0.55537453105E+02 -0.56036237088E+02 -0.24782136229E+02  0.82695966288E+02  0.00000000000E+00 0. -1.
         11    1    3    3    0    0  0.27033560414E+02  0.24201056083E+02 -0.60472173793E+02  0.70522253987E+02  0.00000000000E+00 0.  1.
         21    1    1    2  502  501 -0.28708084403E+02  0.10890123224E+02 -0.73615859869E+00  0.30713039957E+02  0.00000000000E+00 0.  1.
         21    1    1    2  503  502 -0.52332118195E+02  0.13596263951E+03 -0.59004214726E+03  0.60776165186E+03  0.00000000000E+00 0.  1.
<scales pt_clust_5="13000.00000" pt_clust_6="13000.00000" pt_clust_7="13000.00000" pt_clust_8="13000.00000" pt_clust_9="30.70422" pt_clust_10="135.60599"></scales>
<clustering>
<clus scale="   30.704">  1  9  2 -1</clus>
<clus scale="   91.521">  7  8 -1 -1</clus>
<clus scale="  100.268">  5  6 -1 -1</clus>
<clus scale="  116.956">  1  7  2 -1</clus>
<clus scale="  135.606">  2 10  1 -1</clus>
<clus scale="  135.606">  2  5  1 -1</clus>
</clustering>
</event>
<event>
10    2  0.1133532E-006  0.1141069E+03  0.7546771E-02  0.1253438E+00
         -2   -1    0    0    0  501 -0.00000000000E+00  0.00000000000E+00  0.13447202473E+03  0.13447202473E+03  0.00000000000E+00 0.  1.
          2   -1    0    0  503    0  0.00000000000E+00 -0.00000000000E+00 -0.17977660741E+03  0.17977660741E+03  0.00000000000E+00 0. -1.
         23    2    1    2    0    0 -0.22419176589E+01  0.65513473842E+02  0.89728926210E+01  0.11297942825E+03  0.91579457062E+02 0.  0.
         23    2    1    2    0    0 -0.10301641133E+02 -0.68545991257E+02 -0.10883346357E+02  0.11601305265E+03  0.92389958495E+02 0.  0.
        -13    1    3    3    0    0 -0.43222503666E+02  0.18797874352E+02  0.17452228841E+02  0.50260572966E+02  0.00000000000E+00 0.  1.
         13    1    3    3    0    0  0.40980586008E+02  0.46715599491E+02 -0.84793362200E+01  0.62718855283E+02  0.00000000000E+00 0. -1.
        -13    1    4    4    0    0  0.15563077219E+02 -0.59589962442E+02 -0.42018710247E+02  0.74556991672E+02  0.00000000000E+00 0. -1.
         13    1    4    4    0    0 -0.25864718352E+02 -0.89560288151E+01  0.31135363890E+02  0.41456060982E+02  0.00000000000E+00 0.  1.
         21    1    1    2  502  501  0.33746375823E+02 -0.17941150813E+02 -0.81348370222E+01  0.39075290748E+02  0.00000000000E+00 0. -1.
         21    1    1    2  503  502 -0.21202817032E+02  0.20973668228E+02 -0.35259291917E+02  0.46180860489E+02  0.00000000000E+00 0.  1.
<scales pt_clust_5="13000.00000" pt_clust_6="13000.00000" pt_clust_7="13000.00000" pt_clust_8="13000.00000" pt_clust_9="33.40150" pt_clust_10="29.82372"></scales>
<clustering>
<clus scale="   29.824">  2 10  1 -1</clus>
<clus scale="   33.401">  2  9  1 -1</clus>
<clus scale="   91.579">  5  6 -1 -1</clus>
<clus scale="   92.390">  7  8 -1 -1</clus>
<clus scale="  113.452">  1  5  2 -1</clus>
<clus scale="   29.824">  2  5  1 -1</clus>
</clustering>
</event>
<event>
10    2  0.1133532E-006  0.1691676E+03  0.7546771E-02  0.1178792E+00
         -1   -1    0    0    0  501 -0.00000000000E+00  0.00000000000E+00  0.98917287828E+02  0.98917287828E+02  0.00000000000E+00 0.  1.
          1   -1    0    0  503    0  0.00000000000E+00 -0.00000000000E+00 -0.67700662654E+03  0.67700662654E+03  0.00000000000E+00 0. -1.
         23    2    1    2    0    0  0.49344530517E+02  0.76923525352E+02 -0.10418685907E+03  0.16567541282E+03  0.90781767807E+02 0.  0.
         23    2    1    2    0    0 -0.39627078072E+02 -0.19093359947E+03 -0.37109805080E+03  0.42904069296E+03  0.91302837779E+02 0.  0.
        -11    1    4    4    0    0 -0.43428309214E+02 -0.35476839696E+02 -0.66052784135E+02  0.86646376081E+02  0.00000000000E+00 0.  1.
         11    1    4    4    0    0  0.38012311420E+01 -0.15545675978E+03 -0.30504526666E+03  0.34239431688E+03  0.00000000000E+00 0. -1.
        -13    1    3    3    0    0  0.73460864765E+02  0.56747260586E+02 -0.56864524597E+02  0.10885919526E+03  0.00000000000E+00 0.  1.
         13    1    3    3    0    0 -0.24116334248E+02  0.20176264767E+02 -0.47322334477E+02  0.56816217560E+02  0.00000000000E+00 0. -1.
         21    1    1    2  502  501 -0.32009144222E+02  0.12039106304E+03 -0.76699747781E+02  0.14629232613E+03  0.00000000000E+00 0.  1.
         21    1    1    2  503  502  0.22291691776E+02 -0.63809889212E+01 -0.26104681063E+02  0.34915482458E+02  0.00000000000E+00 0. -1.
<scales pt_clust_5="13000.00000" pt_clust_6="13000.00000" pt_clust_7="13000.00000" pt_clust_8="13000.00000" pt_clust_9="122.57036" pt_clust_10="23.18699"></scales>
<clustering>
<clus scale="   23.187">  2 10  1 -1</clus>
<clus scale="   90.782">  7  8 -1 -1</clus>
<clus scale="   91.303">  5  6 -1 -1</clus>
<clus scale="  122.570">  1  9  2 -1</clus>
<clus scale="  168.887">  1  7  2 -1</clus>
<clus scale="   23.187">  2  5  1 -1</clus>
</clustering>
</event>
<event>
10    2  0.1133532E-006  0.1136888E+03  0.7546771E-02  0.1254644E+00
          1   -1    0    0  503    0  0.00000000000E+00  0.00000000000E+00  0.20084445128E+03  0.20084445128E+03  0.00000000000E+00 0. -1.
         -1   -1    0    0    0  501 -0.00000000000E+00 -0.00000000000E+00 -0.12475847142E+03  0.12475847142E+03  0.00000000000E+00 0.  1.
         23    2    1    2    0    0  0.21770732632E+02  0.63951907688E+02  0.28167606536E+02  0.11693497671E+03  0.91195194082E+02 0.  0.
         23    2    1    2    0    0 -0.24389561892E+02 -0.58391159640E+02  0.70660848260E+02  0.13302779164E+03  0.93268749424E+02 0.  0.
        -13    1    4    4    0    0 -0.24480043205E+02  0.20085589979E+02  0.81506054317E+01  0.32697642255E+02  0.00000000000E+00 0.  1.
         13    1    4    4    0    0  0.90481313237E-01 -0.78476749619E+02  0.62510242828E+02  0.10033014939E+03  0.00000000000E+00 0. -1.
        -13    1    3    3    0    0  0.34647864959E+02  0.42397494418E+01  0.41687462423E+02  0.54371817560E+02  0.00000000000E+00 0. -1.
         13    1    3    3    0    0 -0.12877132327E+02  0.59712158247E+02 -0.13519855887E+02  0.62563159148E+02  0.00000000000E+00 0.  1.
         21    1    1    2  502  501  0.22760988614E+01  0.25316098229E+02 -0.34280691274E+02  0.42676120369E+02  0.00000000000E+00 0.  1.
         21    1    1    2  503  502  0.34273039863E+00 -0.30876846277E+02  0.11538216341E+02  0.32964033983E+02  0.00000000000E+00 0. -1.
<scales pt_clust_5="13000.00000" pt_clust_6="13000.00000" pt_clust_7="13000.00000" pt_clust_8="13000.00000" pt_clust_9="25.41821" pt_clust_10="27.74054"></scales>
<clustering>
<clus scale="   25.418">  2  9  1 -1</clus>
<clus scale="   27.741">  2 10  1 -1</clus>
<clus scale="   91.195">  7  8 -1 -1</clus>
<clus scale="   93.269">  5  6 -1 -1</clus>
<clus scale="  111.994">  2  7  1 -1</clus>
<clus scale="  113.689">  1  5  2 -1</clus>
</clustering>
</event>
<event>
10    2  0.1133532E-006  0.1240587E+03  0.7546771E-02  0.1237001E+00
          2   -1    0    0  503    0  0.00000000000E+00  0.00000000000E+00  0.14187157477E+03  0.14187157477E+03  0.00000000000E+00 0. -1.
         -2   -1    0    0    0  501 -0.00000000000E+00 -0.00000000000E+00 -0.20017252729E+03  0.20017252729E+03  0.00000000000E+00 0.  1.
         23    2    1    2    0    0 -0.49849342257E+02  0.62756654117E+02 -0.64471377544E+02  0.13628299745E+03  0.89404375246E+02 0.  0.
         23    2    1    2    0    0  0.71528394051E+02 -0.40036813634E+02  0.16616675557E+02  0.12357615837E+03  0.90970849226E+02 0.  0.
        -11    1    4    4    0    0  0.55851863143E+02 -0.69197384174E+02  0.16640505529E+02  0.90468862142E+02  0.00000000000E+00 0. -1.
         11    1    4    4    0    0  0.15676530908E+02  0.29160570540E+02 -0.23829971240E-01  0.33107296225E+02  0.00000000000E+00 0.  1.
        -11    1    3    3    0    0 -0.59175625025E+02  0.73052714727E+01 -0.51001557150E+02  0.78461967985E+02  0.00000000000E+00 0.  1.
         11    1    3    3    0    0  0.93262827676E+01  0.55451382644E+02 -0.13469820394E+02  0.57821029469E+02  0.00000000000E+00 0. -1.
         21    1    1    2  502  501 -0.27401513602E+02 -0.11050322215E+01 -0.37897999495E+02  0.46779508437E+02  0.00000000000E+00 0. -1.
         21    1    1    2  503  502  0.57224618077E+01 -0.21614808261E+02  0.27451748955E+02  0.35405437802E+02  0.00000000000E+00 0.  1.
<scales pt_clust_5="13000.00000" pt_clust_6="13000.00000" pt_clust_7="13000.00000" pt_clust_8="13000.00000" pt_clust_9="27.24304" pt_clust_10="22.35948"></scales>
<clustering>
<clus scale="   22.359">  1 10  2 -1</clus>
<clus scale="   27.243">  2  9  1 -1</clus>
<clus scale="   89.404">  7  8 -1 -1</clus>
<clus scale="   90.971">  5  6 -1 -1</clus>
<clus scale="  122.915">  2  7  1 -1</clus>
<clus scale="   22.359">  1  5  2 -1</clus>
</clustering>
</event>
<event>
10    2  0.1133532E-006  0.2970604E+03  0.7546771E-02  0.1087912E+00
         -2   -1    0    0    0  501 -0.00000000000E+00  0.00000000000E+00  0.39120157200E+03  0.39120157200E+03  0.00000000000E+00 0.  1.
          2   -1    0    0  503    0  0.00000000000E+00 -0.00000000000E+00 -0.42148269893E+03  0.42148269893E+03  0.00000000000E+00 0. -1.
         23    2    1    2    0    0  0.22863297415E+03  0.17512588293E+03  0.30902664580E+02  0.31233275380E+03  0.11685316717E+03 0.  0.
         23    2    1    2    0    0 -0.19133390043E+03 -0.16963739345E+03 -0.18257501822E+03  0.32703853002E+03  0.90747210044E+02 0.  0.
        -11    1    3    3    0    0  0.58045186140E+02  0.72519996502E+02  0.60819799841E+02  0.11102901233E+03  0.00000000000E+00 0.  1.
         11    1    3    3    0    0  0.17058778801E+03  0.10260588643E+03 -0.29917135261E+02  0.20130374147E+03  0.00000000000E+00 0. -1.
        -13    1    4    4    0    0 -0.56801533229E+02 -0.25074363615E+02 -0.88985681845E+02  0.10850617246E+03  0.00000000000E+00 0.  1.
         13    1    4    4    0    0 -0.13453236720E+03 -0.14456302983E+03 -0.93589336372E+02  0.21853235756E+03  0.00000000000E+00 0. -1.
         21    1    1    2  502  501 -0.19271988013E+02  0.71096842278E+01  0.14181759738E+03  0.14329755077E+03  0.00000000000E+00 0.  1.
         21    1    1    2  503  502 -0.18027085710E+02 -0.12598173709E+02 -0.20426370667E+02  0.30015436339E+02  0.00000000000E+00 0. -1.
<scales pt_clust_5="13000.00000" pt_clust_6="13000.00000" pt_clust_7="13000.00000" pt_clust_8="13000.00000" pt_clust_9="20.54160" pt_clust_10="22.22140"></scales>
<clustering>
<clus scale="   20.542">  1  9  2 -1</clus>
<clus scale="   22.221">  2 10  1 -1</clus>
<clus scale="   90.747">  7  8 -1 -1</clus>
<clus scale="  116.853">  5  6 -1 -1</clus>
<clus scale="  287.794">  2  7  1 -1</clus>
<clus scale="   22.221">  2  5  1 -1</clus>
</clustering>
</event>
<event>
10    2  0.1133532E-006  0.9517142E+02  0.7546771E-02  0.1291874E+00
         -1   -1    0    0    0  501 -0.00000000000E+00  0.00000000000E+00  0.89516883389E+02  0.89516883389E+02  0.00000000000E+00 0.  1.
          1   -1    0    0  503    0  0.00000000000E+00 -0.00000000000E+00 -0.41638498078E+03  0.41638498078E+03  0.00000000000E+00 0. -1.
         23    2    1    2    0    0  0.29996508098E+01 -0.31550719742E+02 -0.18428434481E+02  0.10101984302E+03  0.94132649307E+02 0.  0.
         23    2    1    2    0    0 -0.28193856227E+02 -0.71094109080E+02 -0.17918638531E+03  0.21554224740E+03  0.92203220440E+02 0.  0.
        -11    1    4    4    0    0 -0.36041704158E+02 -0.57048477300E+01 -0.12512325358E+03  0.13033563716E+03  0.00000000000E+00 0. -1.
         11    1    4    4    0    0  0.78478479313E+01 -0.65389261350E+02 -0.54063131728E+02  0.85206610244E+02  0.00000000000E+00 0.  1.
        -13    1    3    3    0    0 -0.72777979217E+01  0.28958133705E+02 -0.25464244112E+02  0.39242420650E+02  0.00000000000E+00 0.  1.
         13    1    3    3    0    0  0.10277448731E+02 -0.60508853447E+02  0.70358096304E+01  0.61777422373E+02  0.00000000000E+00 0. -1.
         21    1    1    2  502  501 -0.72333474012E+01  0.41322926473E+02  0.78252617033E+00  0.41958526120E+02  0.00000000000E+00 0.  1.
         21    1    1    2  503  502  0.32427552818E+02  0.61321902349E+02 -0.13003580376E+03  0.14738124762E+03  0.00000000000E+00 0.  1.
<scales pt_clust_5="13000.00000" pt_clust_6="13000.00000" pt_clust_7="13000.00000" pt_clust_8="13000.00000" pt_clust_9="41.95123" pt_clust_10="73.65941"></scales>
<clustering>
<clus scale="   41.951">  1  9  2 -1</clus>
<clus scale="   73.659">  2 10  1 -1</clus>
<clus scale="   92.203">  5  6 -1 -1</clus>
<clus scale="   93.263">  2  5  1 -1</clus>
<clus scale="   94.133">  7  8 -1 -1</clus>
<clus scale="   73.659">  2  5  1 -1</clus>
</clustering>
</event>
<event>
10    2  0.1133532E-006  0.1139374E+03  0.7546771E-02  0.1263376E+00
          2   -1    0    0  503    0  0.00000000000E+00  0.00000000000E+00  0.22070299705E+03  0.22070299705E+03  0.00000000000E+00 0. -1.
         -2   -1    0    0    0  501 -0.00000000000E+00 -0.00000000000E+00 -0.15037154404E+03  0.15037154404E+03  0.00000000000E+00 0.  1.
         23    2    1    2    0    0  0.37865166912E+02  0.22803747584E+02 -0.77749627761E+02  0.14334657868E+03  0.11202435107E+03 0.  0.
         23    2    1    2    0    0  0.21654218120E+02 -0.16683872797E+02  0.67618554298E+02  0.11689841018E+03  0.91354872028E+02 0.  0.
        -11    1    4    4    0    0  0.45044654309E+02  0.10295301489E+02  0.66748123458E+02  0.81180823473E+02  0.00000000000E+00 0.  1.
         11    1    4    4    0    0 -0.23390436189E+02 -0.26979174287E+02  0.87043083992E+00  0.35717586707E+02  0.00000000000E+00 0. -1.
        -11    1    3    3    0    0 -0.27566448094E+02 -0.34688135041E+01  0.11099984557E+02  0.29919080614E+02  0.00000000000E+00 0. -1.
         11    1    3    3    0    0  0.65431615006E+02  0.26272561088E+02 -0.88849612317E+02  0.11342749807E+03  0.00000000000E+00 0.  1.
         21    1    1    2  502  501 -0.19784972973E+02 -0.58999904644E+01 -0.48910355852E+00  0.20651737586E+02  0.00000000000E+00 0. -1.
         21    1    1    2  503  502 -0.39734412060E+02 -0.21988432229E+00  0.80951630032E+02  0.90177814654E+02  0.00000000000E+00 0. -1.
<scales pt_clust_5="13000.00000" pt_clust_6="13000.00000" pt_clust_7="13000.00000" pt_clust_8="13000.00000" pt_clust_9="20.64594" pt_clust_10="40.38940"></scales>
<clustering>
<clus scale="   20.646">  2  9  1 -1</clus>
<clus scale="   40.389">  1 10  2 -1</clus>
<clus scale="   91.355">  5  6 -1 -1</clus>
<clus scale="   93.691">  1  5  2 -1</clus>
<clus scale="  112.024">  7  8 -1 -1</clus>
<clus scale="   40.389">  1  5  2 -1</clus>
</clustering>
</event>
<event>
10    2  0.1133532E-006  0.1588556E+03  0.7546771E-02  0.1190210E+00
         -1   -1    0    0    0  501 -0.00000000000E+00  0.00000000000E+00  0.29837001346E+03  0.29837001346E+03  0.00000000000E+00 0.  1.
          1   -1    0    0  503    0  0.00000000000E+00 -0.00000000000E+00 -0.19830855302E+03  0.19830855302E+03  0.00000000000E+00 0. -1.
         23    2    1    2    0    0 -0.12176264883E+03 -0.22292452316E+02  0.73474735170E+02  0.16940318789E+03  0.89307375269E+02 0.  0.
         23    2    1    2    0    0  0.13853323448E+03 -0.42074163267E+02  0.53578411110E+02  0.17901552872E+03  0.90632340338E+02 0.  0.
        -11    1    4    4    0    0  0.76590885862E+02 -0.65700545859E+02  0.50015792630E+02  0.11262462002E+03  0.00000000000E+00 0.  1.
         11    1    4    4    0    0  0.61942348618E+02  0.23626382592E+02  0.35626184799E+01  0.66390908693E+02  0.00000000000E+00 0. -1.
        -13    1    3    3    0    0 -0.80120315041E+02  0.87894306568E+01  0.14799372143E+01  0.80614571807E+02  0.00000000000E+00 0.  1.
         13    1    3    3    0    0 -0.41642333788E+02 -0.31081882973E+02  0.71994797956E+02  0.88788616079E+02  0.00000000000E+00 0. -1.
         21    1    1    2  502  501 -0.12983167658E+02  0.22264205781E+02  0.52355099620E+02  0.58355067970E+02  0.00000000000E+00 0.  1.
         21    1    1    2  503  502 -0.37874179928E+01  0.42102409802E+02 -0.79346785466E+02  0.89904781908E+02  0.00000000000E+00 0. -1.
<scales pt_clust_5="13000.00000" pt_clust_6="13000.00000" pt_clust_7="13000.00000" pt_clust_8="13000.00000" pt_clust_9="25.77319" pt_clust_10="42.78005"></scales>
<clustering>
<clus scale="   25.773">  1  9  2 -1</clus>
<clus scale="   42.780">  2 10  1 -1</clus>
<clus scale="   89.307">  7  8 -1 -1</clus>
<clus scale="   90.632">  5  6 -1 -1</clus>
<clus scale="  158.103">  1  7  2 -1</clus>
<clus scale="   42.780">  2  5  1 -1</clus>
</clustering>
</event>
<event>
10    2  0.1133532E-006  0.1025568E+03  0.7546771E-02  0.1275496E+00
         -3   -1    0    0    0  501 -0.00000000000E+00  0.00000000000E+00  0.20326426726E+03  0.20326426726E+03  0.00000000000E+00 0.  1.
          3   -1    0    0  503    0  0.00000000000E+00 -0.00000000000E+00 -0.14893543284E+03  0.14893543284E+03  0.00000000000E+00 0. -1.
         23    2    1    2    0    0  0.23284251447E+02  0.34288796752E+02  0.13867505305E+02  0.10117254199E+03  0.91245260707E+02 0.  0.
         23    2    1    2    0    0  0.13582308334E+02 -0.44950466846E+02 -0.42399743704E+02  0.11190558007E+03  0.92304371599E+02 0.  0.
        -11    1    4    4    0    0 -0.59439919549E+01 -0.20989313453E+02  0.27720581646E+02  0.35274820572E+02  0.00000000000E+00 0.  1.
         11    1    4    4    0    0  0.19526300289E+02 -0.23961153393E+02 -0.70120325349E+02  0.76630759503E+02  0.00000000000E+00 0. -1.
        -13    1    3    3    0    0  0.46599724532E+02  0.44741656029E+02 -0.10984311689E+02  0.65528659485E+02  0.00000000000E+00 0. -1.
         13    1    3    3    0    0 -0.23315473085E+02 -0.10452859276E+02  0.24851816995E+02  0.35643882507E+02  0.00000000000E+00 0.  1.
         21    1    1    2  502  501 -0.20005860078E+02  0.29989098808E+02  0.10130644463E+03  0.10752942020E+03  0.00000000000E+00 0.  1.
         21    1    1    2  503  502 -0.16860699703E+02 -0.19327428714E+02 -0.18445371813E+02  0.31592157833E+02  0.00000000000E+00 0. -1.
<scales pt_clust_5="13000.00000" pt_clust_6="13000.00000" pt_clust_7="13000.00000" pt_clust_8="13000.00000" pt_clust_9="35.88631" pt_clust_10="25.64825"></scales>
<clustering>
<clus scale="   25.648">  2 10  1 -1</clus>
<clus scale="   35.886">  1  9  2 -1</clus>
<clus scale="   91.245">  7  8 -1 -1</clus>
<clus scale="   92.304">  5  6 -1 -1</clus>
<clus scale="  101.605">  1  7  2 -1</clus>
<clus scale="   25.648">  2  5  1 -1</clus>
</clustering>
</event>
<event>
10    2  0.1133532E-006  0.1117329E+03  0.7546771E-02  0.1259264E+00
         -2   -1    0    0    0  501 -0.00000000000E+00  0.00000000000E+00  0.49523370410E+02  0.49523370410E+02  0.00000000000E+00 0.  1.
          2   -1    0    0  503    0  0.00000000000E+00 -0.00000000000E+00 -0.43661638973E+03  0.43661638973E+03  0.00000000000E+00 0. -1.
         23    2    1    2    0    0  0.40130655270E+02 -0.58595492665E+01 -0.13414434717E+03  0.16733907460E+03  0.91448653357E+02 0.  0.
         23    2    1    2    0    0 -0.55369673780E+02  0.62982437960E+02 -0.16885444470E+03  0.21164629337E+03  0.96175577659E+02 0.  0.
        -11    1    4    4    0    0 -0.18894754575E+02  0.55553325331E+02 -0.26283782817E+02  0.64296352501E+02  0.00000000000E+00 0.  1.
         11    1    4    4    0    0 -0.36474919205E+02  0.74291126297E+01 -0.14257066188E+03  0.14734994087E+03  0.00000000000E+00 0. -1.
        -11    1    3    3    0    0 -0.15778535671E+02  0.21178155597E+02 -0.82319549943E+02  0.86452210875E+02  0.00000000000E+00 0. -1.
         11    1    3    3    0    0  0.55909190941E+02 -0.27037704863E+02 -0.51824797227E+02  0.80886863726E+02  0.00000000000E+00 0.  1.
         21    1    1    2  502  501 -0.58075053836E+01 -0.21061339521E+02 -0.15269702976E+02  0.26654661321E+02  0.00000000000E+00 0. -1.
         21    1    1    2  503  502  0.21046523894E+02 -0.36061549173E+02 -0.68824524479E+02  0.80499730847E+02  0.00000000000E+00 0. -1.
<scales pt_clust_5="13000.00000" pt_clust_6="13000.00000" pt_clust_7="13000.00000" pt_clust_8="13000.00000" pt_clust_9="21.84736" pt_clust_10="43.83616"></scales>
<clustering>
<clus scale="   21.847">  1  9  2 -1</clus>
<clus scale="   43.836">  2 10  1 -1</clus>
<clus scale="   91.449">  7  8 -1 -1</clus>
<clus scale="   96.176">  5  6 -1 -1</clus>
<clus scale="  107.691">  1  7  2 -1</clus>
<clus scale="   43.836">  2  5  1 -1</clus>
</clustering>
</event>
<event>
10    2  0.1133532E-006  0.1671680E+03  0.7546771E-02  0.1181306E+00
          1   -1    0    0  503    0  0.00000000000E+00  0.00000000000E+00  0.18064581561E+04  0.18064581561E+04  0.00000000000E+00 0. -1.
         -1   -1    0    0    0  501 -0.00000000000E+00 -0.00000000000E+00 -0.46344536934E+02  0.46344536934E+02  0.00000000000E+00 0.  1.
         23    2    1    2    0    0  0.31551358330E+02  0.16749777618E+03  0.36727297762E+03  0.41532390754E+03  0.92485214227E+02 0.  0.
         23    2    1    2    0    0 -0.13394965622E+03 -0.37151516723E+02  0.63894969715E+03  0.66084737555E+03  0.95602262939E+02 0.  0.
        -11    1    4    4    0    0 -0.41258627026E+02  0.22357779518E+02  0.96228374884E+02  0.10706093938E+03  0.00000000000E+00 0.  1.
         11    1    4    4    0    0 -0.92691029192E+02 -0.59509296241E+02  0.54272132227E+03  0.55378643616E+03  0.00000000000E+00 0. -1.
        -13    1    3    3    0    0  0.61328852721E+02  0.10251553512E+03  0.26350612246E+03  0.28932013357E+03  0.00000000000E+00 0.  1.
         13    1    3    3    0    0 -0.29777494391E+02  0.64982241057E+02  0.10376685516E+03  0.12600377397E+03  0.00000000000E+00 0. -1.
         21    1    1    2  502  501  0.22464555180E+02 -0.14931022910E+02  0.35148725591E+02  0.44306033395E+02  0.00000000000E+00 0. -1.
         21    1    1    2  503  502  0.79933742708E+02 -0.11541523654E+03  0.71874221882E+03  0.73232537657E+03  0.00000000000E+00 0. -1.
<scales pt_clust_5="13000.00000" pt_clust_6="13000.00000" pt_clust_7="13000.00000" pt_clust_8="13000.00000" pt_clust_9="26.97391" pt_clust_10="144.47752"></scales>
<clustering>
<clus scale="   26.974">  2  9  1 -1</clus>
<clus scale="   92.485">  7  8 -1 -1</clus>
<clus scale="   95.602">  5  6 -1 -1</clus>
<clus scale="  144.478">  1 10  2 -1</clus>
<clus scale="  165.405">  2  7  1 -1</clus>
<clus scale="  144.478">  1  5  2 -1</clus>
</clustering>
</event>
<event>
10    2  0.1133532E-006  0.9965432E+02  0.7546771E-02  0.1282613E+00
          1   -1    0    0  503    0  0.00000000000E+00  0.00000000000E+00  0.25141341682E+03  0.25141341682E+03  0.00000000000E+00 0. -1.
         -1   -1    0    0    0  501 -0.00000000000E+00 -0.00000000000E+00 -0.15493277403E+03  0.15493277403E+03  0.00000000000E+00 0.  1.
         23    2    1    2    0    0  0.32865623913E+02  0.20690043314E+01  0.61283693144E+02  0.11327003784E+03  0.89386690352E+02 0.  0.
         23    2    1    2    0    0 -0.22731482745E+02  0.49309342204E+02  0.91305407455E+02  0.14091034390E+03  0.92579242003E+02 0.  0.
        -13    1    4    4    0    0 -0.14101640696E+02 -0.22847257915E+02  0.51434683996E+02  0.58020515185E+02  0.00000000000E+00 0.  1.
         13    1    4    4    0    0 -0.86298420489E+01  0.72156600118E+02  0.39870723459E+02  0.82889828710E+02  0.00000000000E+00 0. -1.
        -13    1    3    3    0    0  0.62861290852E+02 -0.85214724405E+01  0.41699565736E+02  0.75914499028E+02  0.00000000000E+00 0. -1.
         13    1    3    3    0    0 -0.29995666939E+02  0.10590476772E+02  0.19584127409E+02  0.37355538809E+02  0.00000000000E+00 0.  1.
         21    1    1    2  502  501  0.82960164020E+01 -0.37311625552E+02 -0.97499240251E+02  0.10472384227E+03  0.00000000000E+00 0.  1.
         21    1    1    2  503  502 -0.18430157569E+02 -0.14066720983E+02  0.41390782443E+02  0.47441966849E+02  0.00000000000E+00 0. -1.
<scales pt_clust_5="13000.00000" pt_clust_6="13000.00000" pt_clust_7="13000.00000" pt_clust_8="13000.00000" pt_clust_9="38.39436" pt_clust_10="23.18498"></scales>
<clustering>
<clus scale="   23.185">  1 10  2 -1</clus>
<clus scale="   38.394">  2  9  1 -1</clus>
<clus scale="   89.387">  7  8 -1 -1</clus>
<clus scale="   92.579">  5  6 -1 -1</clus>
<clus scale="   96.696">  2  7  1 -1</clus>
<clus scale="   23.185">  1  5  2 -1</clus>
</clustering>
</event>
<event>
10    2  0.1133532E-006  0.1205993E+03  0.7546771E-02  0.1242305E+00
         -3   -1    0    0    0  501 -0.00000000000E+00  0.00000000000E+00  0.20973727333E+03  0.20973727333E+03  0.00000000000E+00 0.  1.
          3   -1    0    0  503    0  0.00000000000E+00 -0.00000000000E+00 -0.31481638951E+03  0.31481638951E+03  0.00000000000E+00 0. -1.
         23    2    1    2    0    0  0.39167068671E+02  0.57428333725E+02  0.77315248980E+02  0.13808028207E+03  0.90864975591E+02 0.  0.
         23    2    1    2    0    0 -0.67170000785E+02 -0.44388062507E+02 -0.22878072062E+03  0.25921534610E+03  0.91486985016E+02 0.  0.
        -11    1    3    3    0    0  0.67840825265E+02  0.50103544893E+02  0.62588168772E+02  0.10502390991E+03  0.00000000000E+00 0.  1.
         11    1    3    3    0    0 -0.28673756594E+02  0.73247888316E+01  0.14727080208E+02  0.33056372156E+02  0.00000000000E+00 0. -1.
        -13    1    4    4    0    0 -0.56369276803E+01 -0.58396185443E+02 -0.11530291610E+03  0.12937021253E+03  0.00000000000E+00 0.  1.
         13    1    4    4    0    0 -0.61533073104E+02  0.14008122936E+02 -0.11347780452E+03  0.12984513357E+03  0.00000000000E+00 0. -1.
         21    1    1    2  502  501 -0.13485007604E+02  0.15294970690E+02  0.69155175585E+02  0.72098681462E+02  0.00000000000E+00 0.  1.
         21    1    1    2  503  502  0.41487939718E+02 -0.28335241908E+02 -0.22768820134E+02  0.55159353208E+02  0.00000000000E+00 0.  1.
<scales pt_clust_5="13000.00000" pt_clust_6="13000.00000" pt_clust_7="13000.00000" pt_clust_8="13000.00000" pt_clust_9="20.39072" pt_clust_10="47.94366"></scales>
<clustering>
<clus scale="   20.391">  1  9  2 -1</clus>
<clus scale="   47.944">  1 10  2 -1</clus>
<clus scale="   90.865">  5  6 -1 -1</clus>
<clus scale="   91.487">  7  8 -1 -1</clus>
<clus scale="  120.128">  1  5  2 -1</clus>
<clus scale="  120.599">  2  5  1 -1</clus>
</clustering>
</event>
<event>
10    2  0.1133532E-006  0.1122756E+03  0.7546771E-02  0.1256560E+00
         -2   -1    0    0    0  501 -0.00000000000E+00  0.00000000000E+00  0.14771095126E+03  0.14771095126E+03  0.00000000000E+00 0.  1.
          2   -1    0    0  503    0  0.00000000000E+00 -0.00000000000E+00 -0.26997537933E+03  0.26997537933E+03  0.00000000000E+00 0. -1.
         23    2    1    2    0    0  0.44934225902E+02  0.43310220339E+02  0.55979341660E+02  0.12370345506E+03  0.90961520757E+02 0.  0.
         23    2    1    2    0    0 -0.33504743328E+02 -0.73523424777E+02 -0.74658827274E+02  0.14248871186E+03  0.90558438044E+02 0.  0.
        -11    1    4    4    0    0  0.17501459343E+02  0.11183257702E+02 -0.22781692741E+02  0.30828101727E+02  0.00000000000E+00 0.  1.
         11    1    4    4    0    0 -0.51006202671E+02 -0.84706682480E+02 -0.51877134533E+02  0.11166061013E+03  0.00000000000E+00 0. -1.
        -11    1    3    3    0    0 -0.61963673879E+01  0.46826495343E+02  0.54923725756E+02  0.72441226424E+02  0.00000000000E+00 0. -1.
         11    1    3    3    0    0  0.51130593289E+02 -0.35162750038E+01  0.10556159044E+01  0.51262228638E+02  0.00000000000E+00 0.  1.
         21    1    1    2  502  501 -0.66967560637E+00  0.56752052949E+02 -0.15446819229E+02  0.58820474357E+02  0.00000000000E+00 0. -1.
         21    1    1    2  503  502 -0.10759806967E+02 -0.26538848510E+02 -0.88138123228E+02  0.92673689321E+02  0.00000000000E+00 0. -1.
<scales pt_clust_5="13000.00000" pt_clust_6="13000.00000" pt_clust_7="13000.00000" pt_clust_8="13000.00000" pt_clust_9="51.34568" pt_clust_10="28.63711"></scales>
<clustering>
<clus scale="   28.637">  2 10  1 -1</clus>
<clus scale="   51.346">  2  9  1 -1</clus>
<clus scale="   90.558">  5  6 -1 -1</clus>
<clus scale="   90.962">  7  8 -1 -1</clus>
<clus scale="  111.949">  2  5  1 -1</clus>
<clus scale="   28.637">  2  5  1 -1</clus>
</clustering>
</event>
<event>
10    2  0.1133532E-006  0.1257345E+03  0.7546771E-02  0.1234197E+00
         -1   -1    0    0    0  501 -0.00000000000E+00  0.00000000000E+00  0.11377784424E+03  0.11377784424E+03  0.00000000000E+00 0.  1.
          1   -1    0    0  503    0  0.00000000000E+00 -0.00000000000E+00 -0.41693875224E+03  0.41693875224E+03  0.00000000000E+00 0. -1.
         23    2    1    2    0    0 -0.81015990094E+02 -0.30212514689E+02 -0.11618218145E+03  0.17134778537E+03  0.91571707257E+02 0.  0.
         23    2    1    2    0    0  0.17162622130E+02  0.10926535129E+03 -0.15857833300E+03  0.21433771617E+03  0.92520788391E+02 0.  0.
        -11    1    4    4    0    0  0.39783194983E+02  0.11800827071E+02 -0.28999245173E+02  0.50625273760E+02  0.00000000000E+00 0.  1.
         11    1    4    4    0    0 -0.22620572853E+02  0.97464524221E+02 -0.12957908783E+03  0.16371244241E+03  0.00000000000E+00 0. -1.
        -13    1    3    3    0    0  0.19691620121E+01 -0.20012033606E+02  0.80003922073E+01  0.21641750474E+02  0.00000000000E+00 0. -1.
         13    1    3    3    0    0 -0.82985152106E+02 -0.10200481082E+02 -0.12418257365E+03  0.14970603489E+03  0.00000000000E+00 0.  1.
         21    1    1    2  502  501  0.41142155303E+02 -0.57004069618E+02  0.31690457781E+02  0.77113072889E+02  0.00000000000E+00 0. -1.
         21    1    1    2  503  502  0.22711212661E+02 -0.22048766986E+02 -0.60090851330E+02  0.67918022054E+02  0.00000000000E+00 0. -1.
<scales pt_clust_5="13000.00000" pt_clust_6="13000.00000" pt_clust_7="13000.00000" pt_clust_8="13000.00000" pt_clust_9="72.30702" pt_clust_10="31.65355"></scales>
<clustering>
<clus scale="   31.654">  2 10  1 -1</clus>
<clus scale="   72.307">  1  9  2 -1</clus>
<clus scale="   91.572">  7  8 -1 -1</clus>
<clus scale="   92.521">  5  6 -1 -1</clus>
<clus scale="  125.038">  1  7  2 -1</clus>
<clus scale="   31.654">  2  5  1 -1</clus>
</clustering>
</event>
<event>
10    2  0.1133532E-006  0.1211658E+03  0.7546771E-02  0.1242114E+00
          1   -1    0    0  503    0  0.00000000000E+00  0.00000000000E+00  0.80522001402E+02  0.80522001402E+02  0.00000000000E+00 0. -1.
         -1   -1    0    0    0  501 -0.00000000000E+00 -0.00000000000E+00 -0.39815363515E+03  0.39815363515E+03  0.00000000000E+00 0.  1.
         23    2    1    2    0    0  0.57943492918E+02 -0.86889031905E+02 -0.25512938666E+03  0.29033899599E+03  0.91096522513E+02 0.  0.
         23    2    1    2    0    0 -0.22976253135E+02  0.55182599206E+02 -0.30084746483E+00  0.10644371700E+03  0.88074666713E+02 0.  0.
        -11    1    4    4    0    0 -0.31248772757E+02  0.29508857495E+02 -0.39823853823E+02  0.58593496250E+02  0.00000000000E+00 0.  1.
         11    1    4    4    0    0  0.82725196221E+01  0.25673741710E+02  0.39523006358E+02  0.47850220751E+02  0.00000000000E+00 0. -1.
        -13    1    3    3    0    0  0.54286268156E+02 -0.23916298645E+02 -0.56454405905E+02  0.81890708857E+02  0.00000000000E+00 0.  1.
         13    1    3    3    0    0  0.36572247625E+01 -0.62972733260E+02 -0.19867498076E+03  0.20844828713E+03  0.00000000000E+00 0. -1.
         21    1    1    2  502  501 -0.12691228595E+02  0.21193437668E+02 -0.46579801823E+02  0.52724823578E+02  0.00000000000E+00 0. -1.
         21    1    1    2  503  502 -0.22276011189E+02  0.10512995031E+02 -0.15621597792E+02  0.29168099982E+02  0.00000000000E+00 0. -1.
<scales pt_clust_5="13000.00000" pt_clust_6="13000.00000" pt_clust_7="13000.00000" pt_clust_8="13000.00000" pt_clust_9="25.56176" pt_clust_10="24.63217"></scales>
<clustering>
<clus scale="   24.632">  1 10  2 -1</clus>
<clus scale="   25.562">  2  9  1 -1</clus>
<clus scale="   88.075">  5  6 -1 -1</clus>
<clus scale="   91.097">  7  8 -1 -1</clus>
<clus scale="  118.911">  1  5  2 -1</clus>
<clus scale="   24.632">  1  5  2 -1</clus>
</clustering>
</event>
<event>
10    2  0.1133532E-006  0.9882713E+02  0.7546771E-02  0.1283079E+00
         -1   -1    0    0    0  501 -0.00000000000E+00  0.00000000000E+00  0.58423868585E+02  0.58423868585E+02  0.00000000000E+00 0.  1.
          1   -1    0    0  503    0  0.00000000000E+00 -0.00000000000E+00 -0.46539928437E+03  0.46539928437E+03  0.00000000000E+00 0. -1.
         23    2    1    2    0    0 -0.16655896843E+02  0.45398311209E+02 -0.83235636380E+02  0.13346721786E+03  0.92449453860E+02 0.  0.
         23    2    1    2    0    0 -0.16805321051E+01 -0.21206637814E+02 -0.22526965993E+03  0.24420605414E+03  0.91856581245E+02 0.  0.
        -11    1    3    3    0    0 -0.50654770313E+02  0.44167329237E+02 -0.39139640680E+02  0.77772554285E+02  0.00000000000E+00 0.  1.
         11    1    3    3    0    0  0.33998873470E+02  0.12309819726E+01 -0.44095995700E+02  0.55694663574E+02  0.00000000000E+00 0. -1.
        -13    1    4    4    0    0  0.24819672287E+02 -0.28640612499E+02 -0.20862921568E+03  0.21204351075E+03  0.00000000000E+00 0. -1.
         13    1    4    4    0    0 -0.26500204392E+02  0.74339746847E+01 -0.16640444252E+02  0.32162543390E+02  0.00000000000E+00 0.  1.
         21    1    1    2  502  501  0.37899425966E+02 -0.71985851057E+01  0.55288854769E+01  0.38971203352E+02  0.00000000000E+00 0. -1.
         21    1    1    2  503  502 -0.19562997018E+02 -0.16993088289E+02 -0.10399900496E+03  0.10717867761E+03  0.00000000000E+00 0. -1.
<scales pt_clust_5="13000.00000" pt_clust_6="13000.00000" pt_clust_7="13000.00000" pt_clust_8="13000.00000" pt_clust_9="37.84302" pt_clust_10="25.91285"></scales>
<clustering>
<clus scale="   25.913">  2 10  1 -1</clus>
<clus scale="   37.843">  1  9  2 -1</clus>
<clus scale="   91.857">  7  8 -1 -1</clus>
<clus scale="   92.449">  5  6 -1 -1</clus>
<clus scale="   98.273">  2  7  1 -1</clus>
<clus scale="   25.913">  2  5  1 -1</clus>
</clustering>
</event>
<event>
10    2  0.1133532E-006  0.2020931E+03  0.7546771E-02  0.1149234E+00
          2   -1    0    0  502    0  0.00000000000E+00  0.00000000000E+00  0.83960254324E+03  0.83960254324E+03  0.00000000000E+00 0. -1.
         -2   -1    0    0    0  501 -0.00000000000E+00 -0.00000000000E+00 -0.18387835318E+03  0.18387835318E+03  0.00000000000E+00 0.  1.
         23    2    1    2    0    0 -0.15891638147E+03  0.85860479167E+02 -0.69837490248E+02  0.21227885211E+03  0.86940196849E+02 0.  0.
         23    2    1    2    0    0  0.14327611136E+03 -0.62261072262E+02  0.27255538618E+03  0.32954978906E+03  0.99559729452E+02 0.  0.
        -11    1    3    3    0    0 -0.11343028746E+03  0.37558889113E+02 -0.81876417178E+02  0.14484767155E+03  0.00000000000E+00 0.  1.
         11    1    3    3    0    0 -0.45486094009E+02  0.48301590054E+02  0.12038926930E+02  0.67431180558E+02  0.00000000000E+00 0. -1.
        -11    1    4    4    0    0  0.55800969347E+02 -0.52222284878E+02  0.53022249486E+02  0.93017601337E+02  0.00000000000E+00 0.  1.
         11    1    4    4    0    0  0.87475142009E+02 -0.10038787384E+02  0.21953313670E+03  0.23653218772E+03  0.00000000000E+00 0. -1.
         21    1    1    2  502  503 -0.40852825707E+02  0.28851190974E+02  0.47813211331E+02  0.69191385061E+02  0.00000000000E+00 0.  1.
         21    1    1    2  503  501  0.56493095820E+02 -0.52450597879E+02  0.40519308279E+03  0.41246087019E+03  0.00000000000E+00 0. -1.
<scales pt_clust_5="13000.00000" pt_clust_6="13000.00000" pt_clust_7="13000.00000" pt_clust_8="13000.00000" pt_clust_9="50.01344" pt_clust_10="51.26190"></scales>
<clustering>
<clus scale="   50.013">  1  9  2 -1</clus>
<clus scale="   51.262">  1 10  2 -1</clus>
<clus scale="   86.940">  5  6 -1 -1</clus>
<clus scale="   99.560">  7  8 -1 -1</clus>
<clus scale="  196.184">  2  5  1 -1</clus>
<clus scale="   50.013">  1  5  2 -1</clus>
</clustering>
</event>
<event>
10    2  0.1133532E-006  0.2930443E+03  0.7546771E-02  0.1088800E+00
         -1   -1    0    0    0  501 -0.00000000000E+00  0.00000000000E+00  0.26324020596E+04  0.26324020596E+04  0.00000000000E+00 0.  1.
          1   -1    0    0  503    0  0.00000000000E+00 -0.00000000000E+00 -0.57282929566E+02  0.57282929566E+02  0.00000000000E+00 0. -1.
         23    2    1    2    0    0  0.24169915557E+03  0.12533990494E+03  0.99346717492E+03  0.10341753380E+04  0.91722563251E+02 0.  0.
         23    2    1    2    0    0 -0.27778887836E+03 -0.82360588800E+02  0.11276865078E+04  0.11679796538E+04  0.92464503551E+02 0.  0.
        -13    1    3    3    0    0  0.12226554594E+03  0.16118174499E+02  0.36831180594E+03  0.38840989389E+03  0.00000000000E+00 0.  1.
         13    1    3    3    0    0  0.11943360963E+03  0.10922173044E+03  0.62515536898E+03  0.64576544416E+03  0.00000000000E+00 0. -1.
        -13    1    4    4    0    0 -0.68471536025E+02 -0.58260597767E+02  0.26103643376E+03  0.27608453098E+03  0.00000000000E+00 0. -1.
         13    1    4    4    0    0 -0.20931734233E+03 -0.24099991033E+02  0.86665007400E+03  0.89189512284E+03  0.00000000000E+00 0.  1.
         21    1    1    2  502  501 -0.22170197261E+02 -0.46110399188E+02  0.41319935170E+03  0.41635488565E+03  0.00000000000E+00 0. -1.
         21    1    1    2  503  502  0.58259920047E+02  0.31310830446E+01  0.40766095674E+02  0.71175111671E+02  0.00000000000E+00 0. -1.
<scales pt_clust_5="13000.00000" pt_clust_6="13000.00000" pt_clust_7="13000.00000" pt_clust_8="13000.00000" pt_clust_9="51.16333" pt_clust_10="57.73389"></scales>
<clustering>
<clus scale="   51.163">  1  9  2 -1</clus>
<clus scale="   57.734">  2 10  1 -1</clus>
<clus scale="   91.723">  5  6 -1 -1</clus>
<clus scale="   92.465">  7  8 -1 -1</clus>
<clus scale="  292.811">  1  5  2 -1</clus>
<clus scale="   57.734">  2  5  1 -1</clus>
</clustering>
</event>
<event>
10    2  0.1133532E-006  0.9664849E+02  0.7546771E-02  0.1287740E+00
         -1   -1    0    0    0  501 -0.00000000000E+00  0.00000000000E+00  0.48043361998E+03  0.48043361998E+03  0.00000000000E+00 0.  1.
          1   -1    0    0  503    0  0.00000000000E+00 -0.00000000000E+00 -0.50138035731E+02  0.50138035731E+02  0.00000000000E+00 0. -1.
         23    2    1    2    0    0 -0.21148855280E+02  0.48646583084E+01  0.11204600286E+03  0.14653211833E+03  0.91904384911E+02 0.  0.
         23    2    1    2    0    0  0.57968400159E+01 -0.46265277888E+02  0.12858645966E+03  0.16503563192E+03  0.92348269634E+02 0.  0.
        -13    1    3    3    0    0 -0.35861416809E+02  0.39024290179E+02  0.43580237019E+02  0.68616131472E+02  0.00000000000E+00 0. -1.
         13    1    3    3    0    0  0.14712561530E+02 -0.34159631870E+02  0.68465765837E+02  0.77915986857E+02  0.00000000000E+00 0.  1.
        -13    1    4    4    0    0 -0.27649710390E+02 -0.16902321040E+02  0.38959045305E+01  0.32640052287E+02  0.00000000000E+00 0. -1.
         13    1    4    4    0    0  0.33446550406E+02 -0.29362956848E+02  0.12469055513E+03  0.13239557964E+03  0.00000000000E+00 0.  1.
         21    1    1    2  502  501  0.21681319324E+02  0.11593219310E+02  0.18678515307E+03  0.18839632626E+03  0.00000000000E+00 0.  1.
         21    1    1    2  503  502 -0.63293040600E+01  0.29807400270E+02  0.28779686651E+01  0.30607579198E+02  0.00000000000E+00 0. -1.
<scales pt_clust_5="13000.00000" pt_clust_6="13000.00000" pt_clust_7="13000.00000" pt_clust_8="13000.00000" pt_clust_9="24.58622" pt_clust_10="30.89239"></scales>
<clustering>
<clus scale="   24.586">  1  9  2 -1</clus>
<clus scale="   30.892">  2 10  1 -1</clus>
<clus scale="   91.904">  5  6 -1 -1</clus>
<clus scale="   92.348">  7  8 -1 -1</clus>
<clus scale="   96.224">  1  5  2 -1</clus>
<clus scale="   30.892">  2  5  1 -1</clus>
</clustering>
</event>
<event>
10    2  0.1133532E-006  0.1316225E+03  0.7546771E-02  0.1225480E+00
         -2   -1    0    0    0  501 -0.00000000000E+00  0.00000000000E+00  0.49890102161E+03  0.49890102161E+03  0.00000000000E+00 0.  1.
          2   -1    0    0  503    0  0.00000000000E+00 -0.00000000000E+00 -0.34788525596E+03  0.34788525596E+03  0.00000000000E+00 0. -1.
         23    2    1    2    0    0 -0.95222512913E+02  0.11055949141E+03  0.28495043001E+03  0.33247716647E+03  0.89741799385E+02 0.  0.
         23    2    1    2    0    0  0.45369786719E+02 -0.83708397423E+02 -0.26356039970E+03  0.29475020142E+03  0.91367847723E+02 0.  0.
        -13    1    3    3    0    0 -0.10272515561E+03  0.70704320520E+02  0.24811036300E+03  0.27768743358E+03  0.00000000000E+00 0.  1.
         13    1    3    3    0    0  0.75026426996E+01  0.39855170886E+02  0.36840067006E+02  0.54789732896E+02  0.00000000000E+00 0. -1.
        -13    1    4    4    0    0  0.98433062237E+01  0.19731993238E+02 -0.34962637914E+02  0.41335557145E+02  0.00000000000E+00 0.  1.
         13    1    4    4    0    0  0.35526480495E+02 -0.10344039066E+03 -0.22859776179E+03  0.25341464427E+03  0.00000000000E+00 0. -1.
         21    1    1    2  502  501  0.17538426620E+02 -0.63468047899E+02  0.15214327762E+03  0.16578107986E+03  0.00000000000E+00 0.  1.
         21    1    1    2  503  502  0.32314299574E+02  0.36616953917E+02 -0.22517542279E+02  0.53777829832E+02  0.00000000000E+00 0.  1.
<scales pt_clust_5="13000.00000" pt_clust_6="13000.00000" pt_clust_7="13000.00000" pt_clust_8="13000.00000" pt_clust_9="65.26540" pt_clust_10="48.83662"></scales>
<clustering>
<clus scale="   48.837">  2 10  1 -1</clus>
<clus scale="   65.265">  1  9  2 -1</clus>
<clus scale="   89.742">  5  6 -1 -1</clus>
<clus scale="   91.368">  7  8 -1 -1</clus>
<clus scale="  130.499">  1  5  2 -1</clus>
<clus scale="   48.837">  2  5  1 -1</clus>
</clustering>
</event>
<event>
10    2  0.1133532E-006  0.2164240E+03  0.7546771E-02  0.1149492E+00
         -1   -1    0    0    0  501 -0.00000000000E+00  0.00000000000E+00  0.31962705896E+03  0.31962705896E+03  0.00000000000E+00 0.  1.
          1   -1    0    0  503    0  0.00000000000E+00 -0.00000000000E+00 -0.40442435195E+03  0.40442435195E+03  0.00000000000E+00 0. -1.
         23    2    1    2    0    0  0.33397926803E+02  0.14094128030E+03 -0.36042086025E+02  0.17665404811E+03  0.94486796655E+02 0.  0.
         23    2    1    2    0    0 -0.78556387859E+01  0.12954024972E+03 -0.14723740960E+03  0.21830038909E+03  0.95571008851E+02 0.  0.
        -13    1    4    4    0    0  0.31886896463E+02  0.74123388753E+01 -0.29410999992E+02  0.44008224847E+02  0.00000000000E+00 0.  1.
         13    1    4    4    0    0 -0.39742535248E+02  0.12212791085E+03 -0.11782640961E+03  0.17429216424E+03  0.00000000000E+00 0. -1.
        -13    1    3    3    0    0  0.28343866216E+02 -0.32874522869E+01 -0.38802544925E+01  0.28796500995E+02  0.00000000000E+00 0. -1.
         13    1    3    3    0    0  0.50540605861E+01  0.14422873259E+03 -0.32161831532E+02  0.14785754712E+03  0.00000000000E+00 0.  1.
         21    1    1    2  502  501  0.62600164248E+01 -0.20426292874E+02  0.72628097416E+02  0.75705097454E+02  0.00000000000E+00 0.  1.
         21    1    1    2  503  502 -0.31802304441E+02 -0.25005523715E+03  0.25854105227E+02  0.25339187625E+03  0.00000000000E+00 0.  1.
<scales pt_clust_5="13000.00000" pt_clust_6="13000.00000" pt_clust_7="13000.00000" pt_clust_8="13000.00000" pt_clust_9="21.36402" pt_clust_10="194.70899"></scales>
<clustering>
<clus scale="   21.364">  1  9  2 -1</clus>
<clus scale="   94.487">  7  8 -1 -1</clus>
<clus scale="   95.571">  5  6 -1 -1</clus>
<clus scale="  158.762">  2  5  1 -1</clus>
<clus scale="  194.709">  2 10  1 -1</clus>
<clus scale="  158.762">  2  5  1 -1</clus>
</clustering>
</event>
<event>
10    2  0.1133532E-006  0.1080675E+03  0.7546771E-02  0.1265555E+00
         -1   -1    0    0    0  501 -0.00000000000E+00  0.00000000000E+00  0.43796086542E+02  0.43796086542E+02  0.00000000000E+00 0.  1.
          1   -1    0    0  503    0  0.00000000000E+00 -0.00000000000E+00 -0.66610234661E+03  0.66610234661E+03  0.00000000000E+00 0. -1.
         23    2    1    2    0    0  0.27644263240E+02  0.15420945013E+02 -0.11557134540E+03  0.15195877439E+03  0.93449036392E+02 0.  0.
         23    2    1    2    0    0 -0.52186376615E+02 -0.87836904102E+02 -0.23421496536E+03  0.27096720719E+03  0.90154521498E+02 0.  0.
        -11    1    4    4    0    0  0.23711309140E+02 -0.18843474742E+02 -0.82040849983E+02  0.87452866090E+02  0.00000000000E+00 0. -1.
         11    1    4    4    0    0 -0.75897685756E+02 -0.68993429360E+02 -0.15217411537E+03  0.18351434110E+03  0.00000000000E+00 0.  1.
        -13    1    3    3    0    0  0.79544560534E+01  0.32163757120E+02  0.40716053391E+00  0.33135274601E+02  0.00000000000E+00 0.  1.
         13    1    3    3    0    0  0.19689807187E+02 -0.16742812108E+02 -0.11597850593E+03  0.11882349979E+03  0.00000000000E+00 0. -1.
         21    1    1    2  502  501  0.71503069847E+01  0.47121968747E+02 -0.89532244734E+02  0.10142795313E+03  0.00000000000E+00 0. -1.
         21    1    1    2  503  502  0.17391806390E+02  0.25293990342E+02 -0.18298770458E+03  0.18554449845E+03  0.00000000000E+00 0. -1.
<scales pt_clust_5="13000.00000" pt_clust_6="13000.00000" pt_clust_7="13000.00000" pt_clust_8="13000.00000" pt_clust_9="53.20022" pt_clust_10="30.69627"></scales>
<clustering>
<clus scale="   30.696">  2 10  1 -1</clus>
<clus scale="   53.200">  2  9  1 -1</clus>
<clus scale="   90.155">  5  6 -1 -1</clus>
<clus scale="   93.449">  7  8 -1 -1</clus>
<clus scale="  105.232">  2  5  1 -1</clus>
<clus scale="   30.696">  2  5  1 -1</clus>
</clustering>
</event>
<event>
10    2  0.1133532E-006  0.1033336E+03  0.7546771E-02  0.1273581E+00
         -2   -1    0    0    0  501 -0.00000000000E+00  0.00000000000E+00  0.60468928155E+02  0.60468928155E+02  0.00000000000E+00 0.  1.
          2   -1    0    0  503    0  0.00000000000E+00 -0.00000000000E+00 -0.32170207884E+03  0.32170207884E+03  0.00000000000E+00 0. -1.
         23    2    1    2    0    0 -0.30720858133E+02 -0.17629247390E+02 -0.84318551729E+02  0.12936256945E+03  0.91490407809E+02 0.  0.
         23    2    1    2    0    0  0.46604147580E+02  0.35694133436E+02 -0.13096161729E+03  0.17037049712E+03  0.91810366261E+02 0.  0.
        -11    1    4    4    0    0 -0.10227777143E+02  0.44065301185E+02 -0.86914249637E+02  0.97981860483E+02  0.00000000000E+00 0.  1.
         11    1    4    4    0    0  0.56831924723E+02 -0.83711677490E+01 -0.44047367653E+02  0.72388636638E+02  0.00000000000E+00 0. -1.
        -11    1    3    3    0    0 -0.40222698278E+02 -0.47963233986E+02 -0.71653740390E+02  0.95145130107E+02  0.00000000000E+00 0.  1.
         11    1    3    3    0    0  0.95018401452E+01  0.30333986596E+02 -0.12664811340E+02  0.34217439344E+02  0.00000000000E+00 0. -1.
         21    1    1    2  502  501 -0.23986498059E+02  0.30768211597E+00  0.76649420733E+01  0.25183289984E+02  0.00000000000E+00 0.  1.
         21    1    1    2  503  502  0.81032086128E+01 -0.18372568163E+02 -0.53617923740E+02  0.57254650439E+02  0.00000000000E+00 0. -1.
<scales pt_clust_5="13000.00000" pt_clust_6="13000.00000" pt_clust_7="13000.00000" pt_clust_8="13000.00000" pt_clust_9="23.72179" pt_clust_10="20.08017"></scales>
<clustering>
<clus scale="   20.080">  2 10  1 -1</clus>
<clus scale="   23.722">  1  9  2 -1</clus>
<clus scale="   91.490">  7  8 -1 -1</clus>
<clus scale="   91.810">  5  6 -1 -1</clus>
<clus scale="  103.049">  1  7  2 -1</clus>
<clus scale="   20.080">  2  5  1 -1</clus>
</clustering>
</event>
<event>
10    2  0.1133532E-006  0.9166603E+02  0.7546771E-02  0.1300136E+00
         -1   -1    0    0    0  501 -0.00000000000E+00  0.00000000000E+00  0.13932456230E+03  0.13932456230E+03  0.00000000000E+00 0.  1.
          1   -1    0    0  503    0  0.00000000000E+00 -0.00000000000E+00 -0.19821573291E+03  0.19821573291E+03  0.00000000000E+00 0. -1.
         23    2    1    2    0    0  0.63816382457E+01  0.16221189207E+02  0.16662482584E+02  0.90995464083E+02  0.87742144217E+02 0.  0.
         23    2    1    2    0    0  0.33841875921E+02  0.57681766657E+02 -0.45185588176E+02  0.12081997494E+03  0.89907008600E+02 0.  0.
        -13    1    3    3    0    0  0.26687465644E+02  0.22291953413E+02  0.44204890925E+02  0.56242549650E+02  0.00000000000E+00 0.  1.
         13    1    3    3    0    0 -0.20305827398E+02 -0.60707642061E+01 -0.27542408341E+02  0.34752914433E+02  0.00000000000E+00 0. -1.
        -13    1    4    4    0    0  0.20733469956E+02 -0.47553132041E+01 -0.52459666996E+02  0.56608360173E+02  0.00000000000E+00 0. -1.
         13    1    4    4    0    0  0.13108405964E+02  0.62437079861E+02  0.72740788197E+01  0.64211614768E+02  0.00000000000E+00 0.  1.
         21    1    1    2  502  501 -0.18602656653E+02 -0.21267508160E+02  0.31061249282E+02  0.41990081506E+02  0.00000000000E+00 0.  1.
         21    1    1    2  503  502 -0.21620857514E+02 -0.52635447703E+02 -0.61429314300E+02  0.83734774675E+02  0.00000000000E+00 0. -1.
<scales pt_clust_5="13000.00000" pt_clust_6="13000.00000" pt_clust_7="13000.00000" pt_clust_8="13000.00000" pt_clust_9="28.25537" pt_clust_10="59.81233"></scales>
<clustering>
<clus scale="   28.255">  1  9  2 -1</clus>
<clus scale="   59.812">  2 10  1 -1</clus>
<clus scale="   87.742">  5  6 -1 -1</clus>
<clus scale="   89.544">  1  5  2 -1</clus>
<clus scale="   89.907">  7  8 -1 -1</clus>
<clus scale="   59.812">  2  5  1 -1</clus>
</clustering>
</event>
<event>
10    2  0.1133532E-006  0.3748067E+03  0.7546771E-02  0.1052873E+00
          2   -1    0    0  503    0  0.00000000000E+00  0.00000000000E+00  0.15897600121E+04  0.15897600121E+04  0.00000000000E+00 0. -1.
         -2   -1    0    0    0  501 -0.00000000000E+00 -0.00000000000E+00 -0.53543202816E+03  0.53543202816E+03  0.00000000000E+00 0.  1.
         23    2    1    2    0    0  0.19427001163E+03  0.27907540134E+03  0.45480548233E+03  0.57528306130E+03  0.92079622082E+02 0.  0.
         23    2    1    2    0    0 -0.10263494008E+03 -0.38726351828E+03  0.67612909854E+03  0.79130070626E+03  0.92191573977E+02 0.  0.
        -13    1    4    4    0    0 -0.58808325050E+02 -0.11638212416E+03  0.15681230106E+03  0.20394439361E+03  0.00000000000E+00 0.  1.
         13    1    4    4    0    0 -0.43826615026E+02 -0.27088139412E+03  0.51931679748E+03  0.58735631265E+03  0.00000000000E+00 0. -1.
        -13    1    3    3    0    0  0.14661211540E+03  0.26010783742E+03  0.40984384382E+03  0.50707314639E+03  0.00000000000E+00 0.  1.
         13    1    3    3    0    0  0.47657896234E+02  0.18967563924E+02  0.44961638513E+02  0.68209914913E+02  0.00000000000E+00 0. -1.
         21    1    1    2  502  501 -0.71856279554E+02  0.62917608828E+02 -0.41030415384E+03  0.42127360358E+03  0.00000000000E+00 0.  1.
         21    1    1    2  503  502 -0.19778791999E+02  0.45270508113E+02  0.33369755685E+03  0.33733466908E+03  0.00000000000E+00 0.  1.
<scales pt_clust_5="13000.00000" pt_clust_6="13000.00000" pt_clust_7="13000.00000" pt_clust_8="13000.00000" pt_clust_9="95.70443" pt_clust_10="49.40263"></scales>
<clustering>
<clus scale="   49.403">  1 10  2 -1</clus>
<clus scale="   92.080">  7  8 -1 -1</clus>
<clus scale="   92.192">  5  6 -1 -1</clus>
<clus scale="   95.704">  2  9  1 -1</clus>
<clus scale="  374.779">  2  7  1 -1</clus>
<clus scale="   49.403">  1  5  2 -1</clus>
</clustering>
</event>
<event>
10    2  0.1133532E-006  0.9491852E+02  0.7546771E-02  0.1293367E+00
         -2   -1    0    0    0  501 -0.00000000000E+00  0.00000000000E+00  0.50948589701E+02  0.50948589701E+02  0.00000000000E+00 0.  1.
          2   -1    0    0  503    0  0.00000000000E+00 -0.00000000000E+00 -0.29988562497E+03  0.29988562497E+03  0.00000000000E+00 0. -1.
         23    2    1    2    0    0 -0.15522539591E+02  0.30499397377E+02 -0.56799691100E+02  0.11341428577E+03  0.92007786795E+02 0.  0.
         23    2    1    2    0    0 -0.70026441891E+01 -0.11522435294E+02 -0.12035083030E+03  0.14993797860E+03  0.88404024410E+02 0.  0.
        -13    1    3    3    0    0 -0.44393829013E+02  0.68928573115E+01  0.63928234761E+00  0.44930304008E+02  0.00000000000E+00 0.  1.
         13    1    3    3    0    0  0.28871289421E+02  0.23606540066E+02 -0.57438973448E+02  0.68483981758E+02  0.00000000000E+00 0. -1.
        -13    1    4    4    0    0 -0.31514063272E+02  0.20401743576E+02 -0.21628383113E+02  0.43326138541E+02  0.00000000000E+00 0. -1.
         13    1    4    4    0    0  0.24511419082E+02 -0.31924178870E+02 -0.98722447188E+02  0.10661184006E+03  0.00000000000E+00 0.  1.
         21    1    1    2  502  501  0.21443804082E+02  0.21085792633E+01 -0.13348622655E+02  0.25346963660E+02  0.00000000000E+00 0.  1.
         21    1    1    2  503  502  0.10813796983E+01 -0.21085541346E+02 -0.58437891210E+02  0.62134986642E+02  0.00000000000E+00 0.  1.
<scales pt_clust_5="13000.00000" pt_clust_6="13000.00000" pt_clust_7="13000.00000" pt_clust_8="13000.00000" pt_clust_9="21.53495" pt_clust_10="21.11325"></scales>
<clustering>
<clus scale="   21.113">  2 10  1 -1</clus>
<clus scale="   21.535">  1  9  2 -1</clus>
<clus scale="   88.404">  7  8 -1 -1</clus>
<clus scale="   91.430">  2  7  1 -1</clus>
<clus scale="   92.008">  5  6 -1 -1</clus>
<clus scale="   21.113">  2  5  1 -1</clus>
</clustering>
</event>
<event>
10    2  0.1133532E-006  0.9892779E+02  0.7546771E-02  0.1282934E+00
         -2   -1    0    0    0  501 -0.00000000000E+00  0.00000000000E+00  0.85969476207E+02  0.85969476207E+02  0.00000000000E+00 0.  1.
          2   -1    0    0  503    0  0.00000000000E+00 -0.00000000000E+00 -0.51090067355E+03  0.51090067355E+03  0.00000000000E+00 0. -1.
         23    2    1    2    0    0  0.31919202175E+02 -0.69856391300E+02 -0.35695346930E+02  0.12414753160E+03  0.90772798438E+02 0.  0.
         23    2    1    2    0    0  0.42508214779E+02  0.35344111496E+02 -0.16652647928E+03  0.19721032698E+03  0.90026053034E+02 0.  0.
        -11    1    4    4    0    0 -0.25193926590E+02  0.23868304885E+02 -0.37810584654E+02  0.51323193850E+02  0.00000000000E+00 0. -1.
         11    1    4    4    0    0  0.67702141369E+02  0.11475806611E+02 -0.12871589463E+03  0.14588713313E+03  0.00000000000E+00 0.  1.
        -13    1    3    3    0    0 -0.11687660631E+02 -0.69334541354E+02 -0.39014333545E+02  0.80411431139E+02  0.00000000000E+00 0.  1.
         13    1    3    3    0    0  0.43606862806E+02 -0.52184994554E+00  0.33189866150E+01  0.43736100459E+02  0.00000000000E+00 0. -1.
         21    1    1    2  502  501 -0.49930156366E+02  0.54054960613E+02 -0.28694859493E+02  0.78983252927E+02  0.00000000000E+00 0. -1.
         21    1    1    2  503  502 -0.24497260588E+02 -0.19542680810E+02 -0.19401451164E+03  0.19652903825E+03  0.00000000000E+00 0. -1.
<scales pt_clust_5="13000.00000" pt_clust_6="13000.00000" pt_clust_7="13000.00000" pt_clust_8="13000.00000" pt_clust_9="74.16487" pt_clust_10="31.33739"></scales>
<clustering>
<clus scale="   31.337">  2 10  1 -1</clus>
<clus scale="   74.165">  1  9  2 -1</clus>
<clus scale="   90.026">  5  6 -1 -1</clus>
<clus scale="   90.773">  7  8 -1 -1</clus>
<clus scale="   98.243">  2  5  1 -1</clus>
<clus scale="   31.337">  2  5  1 -1</clus>
</clustering>
</event>
<event>
10    2  0.1133532E-006  0.1016870E+03  0.7546771E-02  0.1277621E+00
         -1   -1    0    0    0  501 -0.00000000000E+00  0.00000000000E+00  0.37931582005E+03  0.37931582005E+03  0.00000000000E+00 0.  1.
          1   -1    0    0  503    0  0.00000000000E+00 -0.00000000000E+00 -0.75926156642E+02  0.75926156642E+02  0.00000000000E+00 0. -1.
         23    2    1    2    0    0  0.34407082009E+02  0.37230130326E+02  0.17924871729E+03  0.20819674269E+03  0.92983068983E+02 0.  0.
         23    2    1    2    0    0 -0.64858260245E+01 -0.16552223543E+02  0.34250320151E+02  0.99048756509E+02  0.91222418802E+02 0.  0.
        -11    1    4    4    0    0  0.13914600696E+02  0.33779118827E+02  0.36554007763E+01  0.36715213960E+02  0.00000000000E+00 0.  1.
         11    1    4    4    0    0 -0.20400426721E+02 -0.50331342370E+02  0.30594919375E+02  0.62333542549E+02  0.00000000000E+00 0. -1.
        -13    1    3    3    0    0 -0.17278065996E+02  0.40196599024E+02  0.38684210623E+02  0.58401766147E+02  0.00000000000E+00 0. -1.
         13    1    3    3    0    0  0.51685148005E+02 -0.29664686981E+01  0.14056450667E+03  0.14979497654E+03  0.00000000000E+00 0.  1.
         21    1    1    2  502  501 -0.36374184917E+02  0.28968507508E+02  0.85648455847E+02  0.97457240596E+02  0.00000000000E+00 0. -1.
         21    1    1    2  503  502  0.84529289321E+01 -0.49646414291E+02  0.42421701204E+01  0.50539236904E+02  0.00000000000E+00 0.  1.
<scales pt_clust_5="13000.00000" pt_clust_6="13000.00000" pt_clust_7="13000.00000" pt_clust_8="13000.00000" pt_clust_9="46.50006" pt_clust_10="47.15389"></scales>
<clustering>
<clus scale="   46.500">  1  9  2 -1</clus>
<clus scale="   47.154">  2 10  1 -1</clus>
<clus scale="   91.222">  5  6 -1 -1</clus>
<clus scale="   92.983">  7  8 -1 -1</clus>
<clus scale="  100.080">  2  5  1 -1</clus>
<clus scale="   47.154">  2  5  1 -1</clus>
</clustering>
</event>
<event>
10    2  0.1133532E-006  0.1083684E+03  0.7546771E-02  0.1264283E+00
         -3   -1    0    0    0  501 -0.00000000000E+00  0.00000000000E+00  0.10880984822E+03  0.10880984822E+03  0.00000000000E+00 0.  1.
          3   -1    0    0  503    0  0.00000000000E+00 -0.00000000000E+00 -0.36806107769E+03  0.36806107769E+03  0.00000000000E+00 0. -1.
         23    2    1    2    0    0 -0.57792642996E+01  0.23713265853E+02 -0.23108903511E+02  0.97760330596E+02  0.91800555246E+02 0.  0.
         23    2    1    2    0    0 -0.76077102695E+02 -0.57683296813E+02 -0.20380446032E+03  0.24244451865E+03  0.90155411872E+02 0.  0.
        -11    1    3    3    0    0 -0.30868149386E+02  0.28596404996E+02  0.20811695124E+02  0.46943835368E+02  0.00000000000E+00 0. -1.
         11    1    3    3    0    0  0.25088885086E+02 -0.48831391423E+01 -0.43920598635E+02  0.50816495228E+02  0.00000000000E+00 0.  1.
        -13    1    4    4    0    0 -0.44417901716E+02 -0.15047996301E+02 -0.17671050550E+03  0.18282777399E+03  0.00000000000E+00 0. -1.
         13    1    4    4    0    0 -0.31659200979E+02 -0.42635300512E+02 -0.27093954819E+02  0.59616744662E+02  0.00000000000E+00 0.  1.
         21    1    1    2  502  501  0.71210882007E+02  0.74204514304E+01  0.22303870171E+02  0.74990102282E+02  0.00000000000E+00 0.  1.
         21    1    1    2  503  502  0.10645484987E+02  0.26549579529E+02 -0.54641735808E+02  0.61675974382E+02  0.00000000000E+00 0.  1.
<scales pt_clust_5="13000.00000" pt_clust_6="13000.00000" pt_clust_7="13000.00000" pt_clust_8="13000.00000" pt_clust_9="72.76220" pt_clust_10="28.60431"></scales>
<clustering>
<clus scale="   28.604">  2 10  1 -1</clus>
<clus scale="   72.762">  1  9  2 -1</clus>
<clus scale="   90.155">  7  8 -1 -1</clus>
<clus scale="   91.801">  5  6 -1 -1</clus>
<clus scale="  106.978">  2  7  1 -1</clus>
<clus scale="   28.604">  2  5  1 -1</clus>
</clustering>
</event>
<event>
10    2  0.1133532E-006  0.1670787E+03  0.7546771E-02  0.1181408E+00
         -1   -1    0    0    0  501 -0.00000000000E+00  0.00000000000E+00  0.25780446888E+03  0.25780446888E+03  0.00000000000E+00 0.  1.
          1   -1    0    0  503    0  0.00000000000E+00 -0.00000000000E+00 -0.57626811737E+03  0.57626811737E+03  0.00000000000E+00 0. -1.
         23    2    1    2    0    0 -0.62065072992E+02  0.33672386973E+02 -0.50110800812E+02  0.12687934244E+03  0.92743583331E+02 0.  0.
         23    2    1    2    0    0  0.91551181686E+02 -0.25001071548E+03 -0.15428221490E+03  0.32046534221E+03  0.89487747765E+02 0.  0.
        -11    1    4    4    0    0  0.35235905175E+02 -0.39029271159E+02  0.87284805499E+00  0.52589113744E+02  0.00000000000E+00 0. -1.
         11    1    4    4    0    0  0.56315276511E+02 -0.21098144432E+03 -0.15515506295E+03  0.26787622847E+03  0.00000000000E+00 0.  1.
        -13    1    3    3    0    0 -0.35472748262E+02  0.65670122124E+02 -0.36646588739E+02  0.83149583734E+02  0.00000000000E+00 0. -1.
         13    1    3    3    0    0 -0.26592324730E+02 -0.31997735151E+02 -0.13464212073E+02  0.43729758702E+02  0.00000000000E+00 0.  1.
         21    1    1    2  502  501 -0.15032006067E+02  0.11320138267E+03  0.97989781063E+02  0.15047428829E+03  0.00000000000E+00 0. -1.
         21    1    1    2  503  502 -0.14454102626E+02  0.10313694585E+03 -0.21206041385E+03  0.23625361331E+03  0.00000000000E+00 0. -1.
<scales pt_clust_5="13000.00000" pt_clust_6="13000.00000" pt_clust_7="13000.00000" pt_clust_8="13000.00000" pt_clust_9="121.95662" pt_clust_10="104.14485"></scales>
<clustering>
<clus scale="   89.488">  5  6 -1 -1</clus>
<clus scale="   92.744">  7  8 -1 -1</clus>
<clus scale="  104.145">  2 10  1 -1</clus>
<clus scale="  121.957">  1  9  2 -1</clus>
<clus scale="  165.294">  2  5  1 -1</clus>
<clus scale="  104.145">  2  5  1 -1</clus>
</clustering>
</event>
<event>
10    2  0.1133532E-006  0.1244626E+03  0.7546771E-02  0.1236333E+00
         -2   -1    0    0    0  501 -0.00000000000E+00  0.00000000000E+00  0.80874038959E+02  0.80874038959E+02  0.00000000000E+00 0.  1.
          2   -1    0    0  503    0  0.00000000000E+00 -0.00000000000E+00 -0.56972759592E+03  0.56972759592E+03  0.00000000000E+00 0. -1.
         23    2    1    2    0    0  0.11220196824E+03  0.10379735599E+02 -0.17685938971E+03  0.22855648180E+03  0.90894450077E+02 0.  0.
         23    2    1    2    0    0 -0.49760758726E+02 -0.23217327656E+02 -0.25842273638E+03  0.27891662160E+03  0.89425911872E+02 0.  0.
        -11    1    4    4    0    0 -0.71015358119E+02 -0.33764969472E+02 -0.22133461401E+03  0.23488777237E+03  0.00000000000E+00 0.  1.
         11    1    4    4    0    0  0.21254599393E+02  0.10547641816E+02 -0.37088122377E+02  0.44028849232E+02  0.00000000000E+00 0. -1.
        -11    1    3    3    0    0  0.56785977668E+02  0.24326456637E+02 -0.15589324244E+03  0.16768758687E+03  0.00000000000E+00 0. -1.
         11    1    3    3    0    0  0.55415990569E+02 -0.13946721038E+02 -0.20966147277E+02  0.60868894930E+02  0.00000000000E+00 0.  1.
         21    1    1    2  502  501 -0.15446834386E+02  0.14633216601E+02  0.36082313008E+02  0.41888769767E+02  0.00000000000E+00 0.  1.
         21    1    1    2  503  502 -0.46994375125E+02 -0.17956245449E+01 -0.89653743870E+02  0.10123976171E+03  0.00000000000E+00 0. -1.
<scales pt_clust_5="13000.00000" pt_clust_6="13000.00000" pt_clust_7="13000.00000" pt_clust_8="13000.00000" pt_clust_9="21.27759" pt_clust_10="49.13114"></scales>
<clustering>
<clus scale="   21.278">  1  9  2 -1</clus>
<clus scale="   49.131">  2 10  1 -1</clus>
<clus scale="   89.426">  5  6 -1 -1</clus>
<clus scale="   90.894">  7  8 -1 -1</clus>
<clus scale="  123.394">  2  5  1 -1</clus>
<clus scale="   49.131">  2  5  1 -1</clus>
</clustering>
</event>
<event>
10    2  0.1133532E-006  0.2896324E+03  0.7546771E-02  0.1090570E+00
         -1   -1    0    0    0  501 -0.00000000000E+00  0.00000000000E+00  0.81598728403E+02  0.81598728403E+02  0.00000000000E+00 0.  1.
          1   -1    0    0  503    0  0.00000000000E+00 -0.00000000000E+00 -0.16823073068E+04  0.16823073068E+04  0.00000000000E+00 0. -1.
         23    2    1    2    0    0 -0.60276578795E+02  0.27930641780E+03 -0.40372129404E+03  0.50271090632E+03  0.89900117321E+02 0.  0.
         23    2    1    2    0    0  0.56164338671E+02 -0.27262211244E+03 -0.10359174194E+04  0.10764802013E+04  0.90595114378E+02 0.  0.
        -11    1    4    4    0    0 -0.17223995443E+02 -0.12727217480E+03 -0.40407116610E+03  0.42399101378E+03  0.00000000000E+00 0. -1.
         11    1    4    4    0    0  0.73388334114E+02 -0.14534993764E+03 -0.63184625331E+03  0.65248918748E+03  0.00000000000E+00 0.  1.
        -13    1    3    3    0    0 -0.19894318165E+02  0.11423565387E+03 -0.93350725902E+02  0.14886210578E+03  0.00000000000E+00 0.  1.
         13    1    3    3    0    0 -0.40382260630E+02  0.16507076393E+03 -0.31037056813E+03  0.35384880054E+03  0.00000000000E+00 0. -1.
         21    1    1    2  502  501 -0.98955475858E+01 -0.22841796755E+02 -0.28491590955E+01  0.25055682960E+02  0.00000000000E+00 0.  1.
         21    1    1    2  503  502  0.14007787710E+02  0.16157491394E+02 -0.15822070585E+03  0.15965924466E+03  0.00000000000E+00 0.  1.
<scales pt_clust_5="13000.00000" pt_clust_6="13000.00000" pt_clust_7="13000.00000" pt_clust_8="13000.00000" pt_clust_9="24.70644" pt_clust_10="21.38417"></scales>
<clustering>
<clus scale="   21.384">  2 10  1 -1</clus>
<clus scale="   24.706">  1  9  2 -1</clus>
<clus scale="   89.900">  7  8 -1 -1</clus>
<clus scale="   90.595">  5  6 -1 -1</clus>
<clus scale="  289.416">  1  7  2 -1</clus>
<clus scale="   21.384">  2  5  1 -1</clus>
</clustering>
</event>
<event>
10    2  0.1133532E-006  0.1252228E+03  0.7546771E-02  0.1236548E+00
          1   -1    0    0  503    0  0.00000000000E+00  0.00000000000E+00  0.28724838741E+03  0.28724838741E+03  0.00000000000E+00 0. -1.
         -1   -1    0    0    0  501 -0.00000000000E+00 -0.00000000000E+00 -0.63287695209E+03  0.63287695209E+03  0.00000000000E+00 0.  1.
         23    2    1    2    0    0  0.15276792018E+02  0.72489957338E+02 -0.18004768402E+03  0.21659430562E+03  0.94909169302E+02 0.  0.
         23    2    1    2    0    0  0.16920852583E+03 -0.26554955298E+01 -0.18521206840E+03  0.26612136962E+03  0.88760893513E+02 0.  0.
        -13    1    3    3    0    0  0.91706840844E+01  0.91891240249E+02 -0.17097991924E+03  0.19432507369E+03  0.00000000000E+00 0. -1.
         13    1    3    3    0    0  0.61061079338E+01 -0.19401282911E+02 -0.90677647784E+01  0.22269231931E+02  0.00000000000E+00 0.  1.
        -13    1    4    4    0    0  0.95158379068E+02 -0.34216889825E+01 -0.16305770569E+03  0.18882436402E+03  0.00000000000E+00 0.  1.
         13    1    4    4    0    0  0.74050146759E+02  0.76619345269E+00 -0.22154362709E+02  0.77297005598E+02  0.00000000000E+00 0. -1.
         21    1    1    2  502  501 -0.10406581525E+03 -0.28905273318E+01 -0.18232654835E+03  0.20995480296E+03  0.00000000000E+00 0.  1.
         21    1    1    2  503  502 -0.80419502593E+02 -0.66943934476E+02  0.20195773609E+03  0.22745486130E+03  0.00000000000E+00 0. -1.
<scales pt_clust_5="13000.00000" pt_clust_6="13000.00000" pt_clust_7="13000.00000" pt_clust_8="13000.00000" pt_clust_9="104.10595" pt_clust_10="107.04160"></scales>
<clustering>
<clus scale="   88.761">  7  8 -1 -1</clus>
<clus scale="   94.909">  5  6 -1 -1</clus>
<clus scale="  104.106">  2  9  1 -1</clus>
<clus scale="  107.042">  1 10  2 -1</clus>
<clus scale="  120.630">  1  7  2 -1</clus>
<clus scale="  107.042">  1  5  2 -1</clus>
</clustering>
</event>
<event>
10    2  0.1133532E-006  0.2592781E+03  0.7546771E-02  0.1107728E+00
         -1   -1    0    0    0  501 -0.00000000000E+00  0.00000000000E+00  0.16390431925E+03  0.16390431925E+03  0.00000000000E+00 0.  1.
          1   -1    0    0  503    0  0.00000000000E+00 -0.00000000000E+00 -0.87437917103E+03  0.87437917103E+03  0.00000000000E+00 0. -1.
         23    2    1    2    0    0 -0.10053527218E+03  0.21929067933E+03 -0.69790154725E+02  0.26631883790E+03  0.88652776234E+02 0.  0.
         23    2    1    2    0    0  0.23994039567E+02 -0.25949462419E+03 -0.53094947013E+03  0.59849248002E+03  0.91502649642E+02 0.  0.
        -11    1    4    4    0    0  0.33587692761E+02 -0.20016448386E+03 -0.47429974104E+03  0.51590134527E+03  0.00000000000E+00 0. -1.
         11    1    4    4    0    0 -0.95936531939E+01 -0.59330140328E+02 -0.56649729096E+02  0.82591134752E+02  0.00000000000E+00 0.  1.
        -11    1    3    3    0    0 -0.58381379597E+02  0.20360155621E+03 -0.61776842490E+02  0.22063172356E+03  0.00000000000E+00 0. -1.
         11    1    3    3    0    0 -0.42153892581E+02  0.15689123122E+02 -0.80133122341E+01  0.45687114344E+02  0.00000000000E+00 0.  1.
         21    1    1    2  502  501  0.84942435130E+02  0.19104602787E+02 -0.32443063154E+02  0.92912622825E+02  0.00000000000E+00 0. -1.
         21    1    1    2  503  502 -0.84012025181E+01  0.21099342072E+02 -0.77292163768E+02  0.80559549524E+02  0.00000000000E+00 0. -1.
<scales pt_clust_5="13000.00000" pt_clust_6="13000.00000" pt_clust_7="13000.00000" pt_clust_8="13000.00000" pt_clust_9="86.80132" pt_clust_10="22.71040"></scales>
<clustering>
<clus scale="   22.710">  2 10  1 -1</clus>
<clus scale="   86.801">  1  9  2 -1</clus>
<clus scale="   88.653">  7  8 -1 -1</clus>
<clus scale="   91.503">  5  6 -1 -1</clus>
<clus scale="  258.286">  1  7  2 -1</clus>
<clus scale="   22.710">  2  5  1 -1</clus>
</clustering>
</event>
<event>
10    2  0.1133532E-006  0.3469355E+03  0.7546771E-02  0.1087509E+00
          1   -1    0    0  502    0  0.00000000000E+00  0.00000000000E+00  0.32161454689E+03  0.32161454689E+03  0.00000000000E+00 0. -1.
         -1   -1    0    0    0  501 -0.00000000000E+00 -0.00000000000E+00 -0.88968618642E+03  0.88968618642E+03  0.00000000000E+00 0.  1.
         23    2    1    2    0    0 -0.83921623419E+02 -0.13065854458E+03 -0.17732533128E+03  0.25234434409E+03  0.90104942880E+02 0.  0.
         23    2    1    2    0    0  0.33369208430E+03  0.10946339295E+03  0.20802682617E+02  0.36351495022E+03  0.91529918069E+02 0.  0.
        -13    1    4    4    0    0  0.23676828254E+02  0.12845016747E+01  0.25917215481E+02  0.35127541887E+02  0.00000000000E+00 0.  1.
         13    1    4    4    0    0  0.31001525605E+03  0.10817889128E+03 -0.51145328641E+01  0.32838740833E+03  0.00000000000E+00 0. -1.
        -13    1    3    3    0    0  0.15814429161E+02 -0.44181445566E+02 -0.37681001267E+02  0.60182673242E+02  0.00000000000E+00 0. -1.
         13    1    3    3    0    0 -0.99736052581E+02 -0.86477099009E+02 -0.13964433002E+03  0.19216167085E+03  0.00000000000E+00 0.  1.
         21    1    1    2  502  503 -0.32491405203E+03  0.74879134192E+02 -0.28410159206E+03  0.43805221213E+03  0.00000000000E+00 0.  1.
         21    1    1    2  503  501  0.75143591148E+02 -0.53683982568E+02 -0.12744739880E+03  0.15738922687E+03  0.00000000000E+00 0. -1.
<scales pt_clust_5="13000.00000" pt_clust_6="13000.00000" pt_clust_7="13000.00000" pt_clust_8="13000.00000" pt_clust_9="334.64387" pt_clust_10="92.35004"></scales>
<clustering>
<clus scale="   90.105">  7  8 -1 -1</clus>
<clus scale="   91.530">  5  6 -1 -1</clus>
<clus scale="   92.350">  2 10  1 -1</clus>
<clus scale="  182.607">  2  7  1 -1</clus>
<clus scale="  334.644">  2  9  1 -1</clus>
<clus scale="  346.936">  1  5  2 -1</clus>
</clustering>
</event>
<event>
10    2  0.1133532E-006  0.9154101E+02  0.7546771E-02  0.1299567E+00
         -2   -1    0    0    0  501 -0.00000000000E+00  0.00000000000E+00  0.13924334317E+03  0.13924334317E+03  0.00000000000E+00 0.  1.
          2   -1    0    0  503    0  0.00000000000E+00 -0.00000000000E+00 -0.17333522437E+03  0.17333522437E+03  0.00000000000E+00 0. -1.
         23    2    1    2    0    0  0.12758687522E+02  0.71590464099E+01  0.15008797608E+01  0.92124675110E+02  0.90943207945E+02 0.  0.
         23    2    1    2    0    0  0.17044435543E+02  0.27733396057E+02 -0.10760007824E+02  0.96550339024E+02  0.90258163938E+02 0.  0.
        -13    1    3    3    0    0  0.29535278699E+02 -0.34131860986E+02 -0.97057635630E+01  0.46168370867E+02  0.00000000000E+00 0. -1.
         13    1    3    3    0    0 -0.16776591176E+02  0.41290907396E+02  0.11206643324E+02  0.45956304243E+02  0.00000000000E+00 0.  1.
        -13    1    4    4    0    0 -0.27206649304E+02  0.41419959545E+02 -0.74479899046E+01  0.50112746569E+02  0.00000000000E+00 0.  1.
         13    1    4    4    0    0  0.44251084847E+02 -0.13686563489E+02 -0.33120179194E+01  0.46437592455E+02  0.00000000000E+00 0. -1.
         21    1    1    2  502  501  0.19622824967E+01 -0.22334438480E+02  0.42697505073E+02  0.48226078363E+02  0.00000000000E+00 0.  1.
         21    1    1    2  503  502 -0.31765405562E+02 -0.12558003987E+02 -0.67530258209E+02  0.75677475040E+02  0.00000000000E+00 0. -1.
<scales pt_clust_5="13000.00000" pt_clust_6="13000.00000" pt_clust_7="13000.00000" pt_clust_8="13000.00000" pt_clust_9="22.42047" pt_clust_10="34.44770"></scales>
<clustering>
<clus scale="   22.420">  1  9  2 -1</clus>
<clus scale="   34.448">  2 10  1 -1</clus>
<clus scale="   90.258">  7  8 -1 -1</clus>
<clus scale="   90.860">  2  7  1 -1</clus>
<clus scale="   90.943">  5  6 -1 -1</clus>
<clus scale="   34.448">  2  5  1 -1</clus>
</clustering>
</event>
<event>
10    2  0.1133532E-006  0.3045996E+03  0.7546771E-02  0.1082985E+00
          2   -1    0    0  503    0  0.00000000000E+00  0.00000000000E+00  0.14646124265E+03  0.14646124265E+03  0.00000000000E+00 0. -1.
         -2   -1    0    0    0  501 -0.00000000000E+00 -0.00000000000E+00 -0.96876699732E+03  0.96876699732E+03  0.00000000000E+00 0.  1.
         23    2    1    2    0    0  0.67861110181E+02  0.28033657140E+03 -0.30907416230E+03  0.43268608436E+03  0.92177471523E+02 0.  0.
         23    2    1    2    0    0 -0.12377769978E+03 -0.27087198781E+03 -0.24992433125E+03  0.39943321883E+03  0.91608799841E+02 0.  0.
        -11    1    3    3    0    0  0.79363542925E+02  0.19864069469E+03 -0.18034047206E+03  0.27978453030E+03  0.00000000000E+00 0. -1.
         11    1    3    3    0    0 -0.11502432744E+02  0.81695876708E+02 -0.12873369024E+03  0.15290155406E+03  0.00000000000E+00 0.  1.
        -11    1    4    4    0    0 -0.91395040290E+02 -0.14286064732E+03 -0.18923481450E+03  0.25411027717E+03  0.00000000000E+00 0. -1.
         11    1    4    4    0    0 -0.32382659490E+02 -0.12801134049E+03 -0.60689516746E+02  0.14532294166E+03  0.00000000000E+00 0.  1.
         21    1    1    2  502  501  0.32914229428E+02 -0.21878442827E+02 -0.25122222743E+03  0.25431205302E+03  0.00000000000E+00 0. -1.
         21    1    1    2  503  502  0.23002360171E+02  0.12413859235E+02 -0.12085033687E+02  0.28796883751E+02  0.00000000000E+00 0. -1.
<scales pt_clust_5="13000.00000" pt_clust_6="13000.00000" pt_clust_7="13000.00000" pt_clust_8="13000.00000" pt_clust_9="39.66057" pt_clust_10="26.13833"></scales>
<clustering>
<clus scale="   26.138">  1 10  2 -1</clus>
<clus scale="   39.661">  2  9  1 -1</clus>
<clus scale="   91.609">  7  8 -1 -1</clus>
<clus scale="   92.177">  5  6 -1 -1</clus>
<clus scale="  304.428">  1  7  2 -1</clus>
<clus scale="   26.138">  1  5  2 -1</clus>
</clustering>
</event>
<event>
10    2  0.1133532E-006  0.1304727E+03  0.7546771E-02  0.1227066E+00
         -1   -1    0    0    0  501 -0.00000000000E+00  0.00000000000E+00  0.23520940806E+03  0.23520940806E+03  0.00000000000E+00 0.  1.
          1   -1    0    0  503    0  0.00000000000E+00 -0.00000000000E+00 -0.22362092697E+03  0.22362092697E+03  0.00000000000E+00 0. -1.
         23    2    1    2    0    0  0.82604687138E+02  0.79248095392E+02  0.51934350256E+02  0.15561515960E+03  0.91733887953E+02 0.  0.
         23    2    1    2    0    0 -0.24087675553E+02 -0.69896806008E+02 -0.13177022750E+02  0.11762870906E+03  0.90537835538E+02 0.  0.
        -11    1    3    3    0    0  0.67047945817E+02  0.39668510485E+02 -0.12006116738E+02  0.78823629716E+02  0.00000000000E+00 0. -1.
         11    1    3    3    0    0  0.15556741320E+02  0.39579584907E+02  0.63940466994E+02  0.76791529880E+02  0.00000000000E+00 0.  1.
        -13    1    4    4    0    0 -0.55716766247E+01  0.20805920698E+02 -0.12798510071E+02  0.25054575960E+02  0.00000000000E+00 0. -1.
         13    1    4    4    0    0 -0.18515998928E+02 -0.90702726705E+02 -0.37851267894E+00  0.92574133104E+02  0.00000000000E+00 0.  1.
         21    1    1    2  502  501 -0.45329455415E+02  0.22624703395E+02  0.67729672336E+02  0.84580998142E+02  0.00000000000E+00 0.  1.
         21    1    1    2  503  502 -0.13187556169E+02 -0.31975992779E+02 -0.94898518745E+02  0.10100546823E+03  0.00000000000E+00 0.  1.
<scales pt_clust_5="13000.00000" pt_clust_6="13000.00000" pt_clust_7="13000.00000" pt_clust_8="13000.00000" pt_clust_9="50.54863" pt_clust_10="34.58867"></scales>
<clustering>
<clus scale="   34.589">  2 10  1 -1</clus>
<clus scale="   50.549">  1  9  2 -1</clus>
<clus scale="   90.538">  7  8 -1 -1</clus>
<clus scale="   91.734">  5  6 -1 -1</clus>
<clus scale="  129.635">  2  7  1 -1</clus>
<clus scale="   34.589">  2  5  1 -1</clus>
</clustering>
</event>
<event>
10    2  0.1133532E-006  0.1283341E+03  0.7546771E-02  0.1230706E+00
          1   -1    0    0  503    0  0.00000000000E+00  0.00000000000E+00  0.72651455054E+03  0.72651455054E+03  0.00000000000E+00 0. -1.
         -1   -1    0    0    0  501 -0.00000000000E+00 -0.00000000000E+00 -0.63865155495E+02  0.63865155495E+02  0.00000000000E+00 0.  1.
         23    2    1    2    0    0  0.94544637561E+02  0.30476183434E+02  0.30229451750E+03  0.33176812315E+03  0.93918187692E+02 0.  0.
         23    2    1    2    0    0 -0.81499472449E+02  0.12331102543E+02  0.31655510453E+03  0.33958055948E+03  0.91178956299E+02 0.  0.
        -11    1    3    3    0    0  0.10242423384E+03 -0.28072912802E+01  0.22319513078E+03  0.24559045373E+03  0.00000000000E+00 0.  1.
         11    1    3    3    0    0 -0.78795962745E+01  0.33283474714E+02  0.79099386721E+02  0.86177669417E+02  0.00000000000E+00 0. -1.
        -13    1    4    4    0    0 -0.35191879915E+02  0.31280697516E+02  0.25931446320E+03  0.26355443702E+03  0.00000000000E+00 0. -1.
         13    1    4    4    0    0 -0.46307592534E+02 -0.18949594973E+02  0.57240641332E+02  0.76026122458E+02  0.00000000000E+00 0.  1.
         21    1    1    2  502  501  0.13428139736E+02 -0.17840674246E+02 -0.29616687545E+02  0.37091141469E+02  0.00000000000E+00 0.  1.
         21    1    1    2  503  502 -0.26473304848E+02 -0.24966611731E+02  0.73416460564E+02  0.81939881942E+02  0.00000000000E+00 0.  1.
<scales pt_clust_5="13000.00000" pt_clust_6="13000.00000" pt_clust_7="13000.00000" pt_clust_8="13000.00000" pt_clust_9="22.32946" pt_clust_10="36.86487"></scales>
<clustering>
<clus scale="   22.329">  2  9  1 -1</clus>
<clus scale="   36.865">  2 10  1 -1</clus>
<clus scale="   91.179">  7  8 -1 -1</clus>
<clus scale="   93.918">  5  6 -1 -1</clus>
<clus scale="  126.343">  1  7  2 -1</clus>
<clus scale="  126.343">  1  5  2 -1</clus>
</clustering>
</event>
<event>
10    2  0.1133532E-006  0.9934142E+02  0.7546771E-02  0.1282741E+00
         -2   -1    0    0    0  501 -0.00000000000E+00  0.00000000000E+00  0.17858128860E+03  0.17858128860E+03  0.00000000000E+00 0.  1.
          2   -1    0    0  503    0  0.00000000000E+00 -0.00000000000E+00 -0.28812032504E+03  0.28812032504E+03  0.00000000000E+00 0. -1.
         23    2    1    2    0    0  0.29116039450E+02 -0.63126241295E+01 -0.11387082036E+03  0.14943853859E+03  0.92074535626E+02 0.  0.
         23    2    1    2    0    0 -0.25440249615E+02  0.45109036824E+02 -0.11744029896E+03  0.15673310864E+03  0.89950052917E+02 0.  0.
        -11    1    4    4    0    0 -0.29153342501E+02 -0.18242163176E+02 -0.18124846085E+02  0.38874206640E+02  0.00000000000E+00 0.  1.
         11    1    4    4    0    0  0.37130928860E+01  0.63351200000E+02 -0.99315452873E+02  0.11785890200E+03  0.00000000000E+00 0. -1.
        -11    1    3    3    0    0  0.35221408785E+02 -0.34902193124E+02 -0.24303705299E+02  0.55221198945E+02  0.00000000000E+00 0.  1.
         11    1    3    3    0    0 -0.61053693349E+01  0.28589568995E+02 -0.89567115059E+02  0.94217339647E+02  0.00000000000E+00 0. -1.
         21    1    1    2  502  501 -0.14683975297E+02 -0.18917871138E+02  0.13303184655E+03  0.13517017857E+03  0.00000000000E+00 0.  1.
         21    1    1    2  503  502  0.11008185462E+02 -0.19878541557E+02 -0.11259763668E+02  0.25359787843E+02  0.00000000000E+00 0.  1.
<scales pt_clust_5="13000.00000" pt_clust_6="13000.00000" pt_clust_7="13000.00000" pt_clust_8="13000.00000" pt_clust_9="23.98359" pt_clust_10="22.72304"></scales>
<clustering>
<clus scale="   22.723">  2 10  1 -1</clus>
<clus scale="   23.984">  1  9  2 -1</clus>
<clus scale="   89.950">  5  6 -1 -1</clus>
<clus scale="   92.075">  7  8 -1 -1</clus>
<clus scale="   97.376">  2  5  1 -1</clus>
<clus scale="   22.723">  2  5  1 -1</clus>
</clustering>
</event>
<event>
10    2  0.1133532E-006  0.3142435E+03  0.7546771E-02  0.1121482E+00
          1   -1    0    0  503    0  0.00000000000E+00  0.00000000000E+00  0.10529290967E+04  0.10529290967E+04  0.00000000000E+00 0. -1.
         -1   -1    0    0    0  501 -0.00000000000E+00 -0.00000000000E+00 -0.34510892052E+03  0.34510892052E+03  0.00000000000E+00 0.  1.
         23    2    1    2    0    0  0.20430216628E+02  0.39474991464E+02 -0.13879029928E+02  0.10255842670E+03  0.91377977173E+02 0.  0.
         23    2    1    2    0    0 -0.31212157562E+03  0.89551771420E+02 -0.10371508531E+03  0.35310623486E+03  0.92129237750E+02 0.  0.
        -13    1    3    3    0    0  0.26383334324E+02  0.67745144849E+02 -0.10925336626E+02  0.73517671080E+02  0.00000000000E+00 0.  1.
         13    1    3    3    0    0 -0.59531176957E+01 -0.28270153385E+02 -0.29536933022E+01  0.29040755617E+02  0.00000000000E+00 0. -1.
        -13    1    4    4    0    0 -0.82839631341E+02  0.28558568595E+02 -0.72651331652E+02  0.11382535900E+03  0.00000000000E+00 0. -1.
         13    1    4    4    0    0 -0.22928194428E+03  0.60993202825E+02 -0.31063753655E+02  0.23928087586E+03  0.00000000000E+00 0.  1.
         21    1    1    2  502  501  0.22562871749E+02 -0.62540034641E+00 -0.29386712860E+02  0.37054732489E+02  0.00000000000E+00 0.  1.
         21    1    1    2  503  502  0.26912848724E+03 -0.12840136254E+03  0.85480100429E+03  0.90531862319E+03  0.00000000000E+00 0. -1.
<scales pt_clust_5="13000.00000" pt_clust_6="13000.00000" pt_clust_7="13000.00000" pt_clust_8="13000.00000" pt_clust_9="22.57154" pt_clust_10="300.43501"></scales>
<clustering>
<clus scale="   22.572">  2  9  1 -1</clus>
<clus scale="   91.378">  5  6 -1 -1</clus>
<clus scale="   92.129">  7  8 -1 -1</clus>
<clus scale="  102.500">  2  5  1 -1</clus>
<clus scale="  300.435">  1 10  2 -1</clus>
<clus scale="  300.435">  1  5  2 -1</clus>
</clustering>
</event>
<event>
10    2  0.1133532E-006  0.3036059E+03  0.7546771E-02  0.1083650E+00
         -1   -1    0    0    0  501 -0.00000000000E+00  0.00000000000E+00  0.30782725136E+03  0.30782725136E+03  0.00000000000E+00 0.  1.
          1   -1    0    0  503    0  0.00000000000E+00 -0.00000000000E+00 -0.14159627643E+04  0.14159627643E+04  0.00000000000E+00 0. -1.
         23    2    1    2    0    0 -0.27480367628E+03 -0.91234660143E+01 -0.45991482573E+03  0.54424611669E+03  0.95298953137E+02 0.  0.
         23    2    1    2    0    0  0.29458887803E+03 -0.11057079014E+03 -0.83895068161E+03  0.90053099720E+03  0.90051785350E+02 0.  0.
        -11    1    4    4    0    0  0.12452166376E+03 -0.86948096939E+02 -0.46187713083E+03  0.48620582091E+03  0.00000000000E+00 0. -1.
         11    1    4    4    0    0  0.17006721426E+03 -0.23622693202E+02 -0.37707355078E+03  0.41432517628E+03  0.00000000000E+00 0.  1.
        -13    1    3    3    0    0 -0.17664133409E+03  0.21617050354E+02 -0.21829493391E+03  0.28164185759E+03  0.00000000000E+00 0.  1.
         13    1    3    3    0    0 -0.98162342188E+02 -0.30740516368E+02 -0.24161989183E+03  0.26260425910E+03  0.00000000000E+00 0. -1.
         21    1    1    2  502  501  0.98285360794E+00  0.11060588272E+03  0.21745393471E+03  0.24396893453E+03  0.00000000000E+00 0.  1.
         21    1    1    2  503  502 -0.20768055358E+02  0.90883734312E+01 -0.26723940305E+02  0.35043967247E+02  0.00000000000E+00 0.  1.
<scales pt_clust_5="13000.00000" pt_clust_6="13000.00000" pt_clust_7="13000.00000" pt_clust_8="13000.00000" pt_clust_9="110.69565" pt_clust_10="22.66960"></scales>
<clustering>
<clus scale="   22.670">  2 10  1 -1</clus>
<clus scale="   90.052">  5  6 -1 -1</clus>
<clus scale="   95.299">  7  8 -1 -1</clus>
<clus scale="  110.696">  1  9  2 -1</clus>
<clus scale="  302.000">  2  5  1 -1</clus>
<clus scale="   22.670">  2  5  1 -1</clus>
</clustering>
</event>
<event>
10    2  0.1133532E-006  0.1302734E+03  0.7546771E-02  0.1227175E+00
         -1   -1    0    0    0  501 -0.00000000000E+00  0.00000000000E+00  0.39750718358E+03  0.39750718358E+03  0.00000000000E+00 0.  1.
          1   -1    0    0  503    0  0.00000000000E+00 -0.00000000000E+00 -0.11938859101E+03  0.11938859101E+03  0.00000000000E+00 0. -1.
         23    2    1    2    0    0 -0.38786771925E+02  0.89923047850E+02  0.15121527253E+03  0.20158021979E+03  0.90432063733E+02 0.  0.
         23    2    1    2    0    0  0.87808915184E+02 -0.37527408978E+02 -0.19525570787E+02  0.13328696840E+03  0.90914553408E+02 0.  0.
        -11    1    3    3    0    0 -0.58144032216E+02  0.83046269306E+02  0.85144361682E+02  0.13238947713E+03  0.00000000000E+00 0.  1.
         11    1    3    3    0    0  0.19357260290E+02  0.68767785440E+01  0.66070910850E+02  0.69190742659E+02  0.00000000000E+00 0. -1.
        -13    1    4    4    0    0  0.35565716406E+02  0.26297026248E+02 -0.24670882673E+02  0.50646877741E+02  0.00000000000E+00 0.  1.
         13    1    4    4    0    0  0.52243198777E+02 -0.63824435226E+02  0.51453118860E+01  0.82640090663E+02  0.00000000000E+00 0. -1.
         21    1    1    2  502  501 -0.39037286054E+02 -0.30458045888E+02  0.14972647221E+03  0.15770104230E+03  0.00000000000E+00 0.  1.
         21    1    1    2  503  502 -0.99848572049E+01 -0.21937592984E+02 -0.32975813854E+01  0.24327544108E+02  0.00000000000E+00 0. -1.
<scales pt_clust_5="13000.00000" pt_clust_6="13000.00000" pt_clust_7="13000.00000" pt_clust_8="13000.00000" pt_clust_9="50.32239" pt_clust_10="24.10302"></scales>
<clustering>
<clus scale="   24.103">  2 10  1 -1</clus>
<clus scale="   50.322">  1  9  2 -1</clus>
<clus scale="   90.432">  5  6 -1 -1</clus>
<clus scale="   90.915">  7  8 -1 -1</clus>
<clus scale="  129.937">  1  5  2 -1</clus>
<clus scale="   24.103">  2  5  1 -1</clus>
</clustering>
</event>
<event>
10    2  0.1133532E-006  0.9972680E+02  0.7546771E-02  0.1284806E+00
          2   -1    0    0  503    0  0.00000000000E+00  0.00000000000E+00  0.31861241048E+03  0.31861241048E+03  0.00000000000E+00 0. -1.
         -2   -1    0    0    0  501 -0.00000000000E+00 -0.00000000000E+00 -0.78037111057E+02  0.78037111057E+02  0.00000000000E+00 0.  1.
         23    2    1    2    0    0 -0.93643062972E+01  0.28511173393E+02  0.54840585456E+02  0.10829316430E+03  0.88427045519E+02 0.  0.
         23    2    1    2    0    0  0.47365805865E+02  0.17596638928E+02  0.75285630154E+02  0.13197704068E+03  0.95900218416E+02 0.  0.
        -11    1    4    4    0    0 -0.56794559842E+01  0.29247946651E+02  0.71589115207E+02  0.77541601865E+02  0.00000000000E+00 0. -1.
         11    1    4    4    0    0  0.53045261849E+02 -0.11651307723E+02  0.36965149467E+01  0.54435438816E+02  0.00000000000E+00 0.  1.
        -13    1    3    3    0    0 -0.39358806617E+02 -0.71451228600E-01  0.54039024169E+02  0.66853099380E+02  0.00000000000E+00 0.  1.
         13    1    3    3    0    0  0.29994500320E+02  0.28582624621E+02  0.80156128760E+00  0.41440064915E+02  0.00000000000E+00 0. -1.
         21    1    1    2  502  501 -0.67769557130E+02 -0.28876957848E+02  0.58465262682E+02  0.94046682603E+02  0.00000000000E+00 0.  1.
         21    1    1    2  503  502  0.29768057562E+02 -0.17230854473E+02  0.51983821129E+02  0.62332633957E+02  0.00000000000E+00 0. -1.
<scales pt_clust_5="13000.00000" pt_clust_6="13000.00000" pt_clust_7="13000.00000" pt_clust_8="13000.00000" pt_clust_9="68.12268" pt_clust_10="34.39534"></scales>
<clustering>
<clus scale="   34.395">  1 10  2 -1</clus>
<clus scale="   68.123">  1  9  2 -1</clus>
<clus scale="   88.427">  7  8 -1 -1</clus>
<clus scale="   92.563">  2  7  1 -1</clus>
<clus scale="   95.900">  5  6 -1 -1</clus>
<clus scale="   34.395">  1  5  2 -1</clus>
</clustering>
</event>
<event>
10    2  0.1133532E-006  0.2608709E+03  0.7546771E-02  0.1106747E+00
          1   -1    0    0  503    0  0.00000000000E+00  0.00000000000E+00  0.23499254585E+03  0.23499254585E+03  0.00000000000E+00 0. -1.
         -1   -1    0    0    0  501 -0.00000000000E+00 -0.00000000000E+00 -0.56959280233E+03  0.56959280233E+03  0.00000000000E+00 0.  1.
         23    2    1    2    0    0  0.13297605693E+03 -0.23321625974E+03 -0.32193302097E+03  0.42885988962E+03  0.90595140110E+02 0.  0.
         23    2    1    2    0    0 -0.73845603768E+02  0.22660033984E+03  0.65468042588E+02  0.26406582512E+03  0.92972082802E+02 0.  0.
        -11    1    3    3    0    0  0.14440197428E+03 -0.19136292965E+03 -0.26634102539E+03  0.35834235422E+03  0.00000000000E+00 0.  1.
         11    1    3    3    0    0 -0.11425917349E+02 -0.41853330098E+02 -0.55591995576E+02  0.70517535406E+02  0.00000000000E+00 0. -1.
        -13    1    4    4    0    0 -0.59553078564E+02  0.17311358385E+03  0.89421522532E+02  0.20374270729E+03  0.00000000000E+00 0. -1.
         13    1    4    4    0    0 -0.14292525204E+02  0.53486755990E+02 -0.23953479944E+02  0.60323117828E+02  0.00000000000E+00 0.  1.
         21    1    1    2  502  501 -0.14414495700E+02 -0.13930614633E+02 -0.52447888006E+02  0.56148202701E+02  0.00000000000E+00 0.  1.
         21    1    1    2  503  502 -0.44715957466E+02  0.20546534534E+02 -0.25687390090E+02  0.55511430743E+02  0.00000000000E+00 0.  1.
<scales pt_clust_5="13000.00000" pt_clust_6="13000.00000" pt_clust_7="13000.00000" pt_clust_8="13000.00000" pt_clust_9="20.04594" pt_clust_10="49.80599"></scales>
<clustering>
<clus scale="   20.046">  2  9  1 -1</clus>
<clus scale="   49.806">  2 10  1 -1</clus>
<clus scale="   90.595">  5  6 -1 -1</clus>
<clus scale="   92.972">  7  8 -1 -1</clus>
<clus scale="  260.033">  2  5  1 -1</clus>
<clus scale="  260.871">  1  5  2 -1</clus>
</clustering>
</event>
<event>
10    2  0.1133532E-006  0.1494587E+03  0.7546771E-02  0.1201712E+00
          1   -1    0    0  503    0  0.00000000000E+00  0.00000000000E+00  0.53634183131E+03  0.53634183131E+03  0.00000000000E+00 0. -1.
         -1   -1    0    0    0  501 -0.00000000000E+00 -0.00000000000E+00 -0.26941756370E+03  0.26941756370E+03  0.00000000000E+00 0.  1.
         23    2    1    2    0    0  0.10272151552E+03  0.54331806591E+02 -0.20626319463E+03  0.25425589627E+03  0.92724863823E+02 0.  0.
         23    2    1    2    0    0 -0.12650851042E+03 -0.88464706584E+02  0.37630679910E+03  0.41651861606E+03  0.89724817963E+02 0.  0.
        -11    1    3    3    0    0  0.29454035132E+02  0.37489650676E+02 -0.15771724492E+03  0.16476572289E+03  0.00000000000E+00 0.  1.
         11    1    3    3    0    0  0.73267480392E+02  0.16842155915E+02 -0.48545949705E+02  0.89490173381E+02  0.00000000000E+00 0. -1.
        -11    1    4    4    0    0 -0.72470469287E+02 -0.25160867698E+02  0.89496452021E+02  0.11787558316E+03  0.00000000000E+00 0.  1.
         11    1    4    4    0    0 -0.54038041131E+02 -0.63303838886E+02  0.28681034708E+03  0.29864303290E+03  0.00000000000E+00 0. -1.
         21    1    1    2  502  501 -0.20454965533E+02  0.24080913194E+02  0.43026449849E+01  0.31887438735E+02  0.00000000000E+00 0. -1.
         21    1    1    2  503  502  0.44241960427E+02  0.10051986799E+02  0.92578018154E+02  0.10309744394E+03  0.00000000000E+00 0.  1.
<scales pt_clust_5="13000.00000" pt_clust_6="13000.00000" pt_clust_7="13000.00000" pt_clust_8="13000.00000" pt_clust_9="31.59582" pt_clust_10="45.07257"></scales>
<clustering>
<clus scale="   31.596">  2  9  1 -1</clus>
<clus scale="   45.073">  1 10  2 -1</clus>
<clus scale="   89.725">  7  8 -1 -1</clus>
<clus scale="   92.725">  5  6 -1 -1</clus>
<clus scale="  147.616">  1  7  2 -1</clus>
<clus scale="   45.073">  1  5  2 -1</clus>
</clustering>
</event>
<event>
10    2  0.1133532E-006  0.2015850E+03  0.7546771E-02  0.1149795E+00
         -2   -1    0    0    0  501 -0.00000000000E+00  0.00000000000E+00  0.37095608085E+02  0.37095608085E+02  0.00000000000E+00 0.  1.
          2   -1    0    0  503    0  0.00000000000E+00 -0.00000000000E+00 -0.17120378445E+04  0.17120378445E+04  0.00000000000E+00 0. -1.
         23    2    1    2    0    0 -0.20094048369E+03  0.65842478791E+02 -0.71854342081E+03  0.75440994852E+03  0.90096686086E+02 0.  0.
         23    2    1    2    0    0  0.13319346647E+03 -0.38986619948E+02 -0.58967037279E+03  0.61455489815E+03  0.10347037378E+03 0.  0.
        -11    1    4    4    0    0  0.11497115276E+03 -0.66172906759E+02 -0.53155406141E+03  0.54785667811E+03  0.00000000000E+00 0.  1.
         11    1    4    4    0    0  0.18222313707E+02  0.27186286811E+02 -0.58116311383E+02  0.66698220038E+02  0.00000000000E+00 0. -1.
        -13    1    3    3    0    0 -0.13374908098E+03  0.18754069845E+02 -0.55803998476E+03  0.57415081328E+03  0.00000000000E+00 0. -1.
         13    1    3    3    0    0 -0.67191402706E+02  0.47088408946E+02 -0.16050343604E+03  0.18025913524E+03  0.00000000000E+00 0.  1.
         21    1    1    2  502  501  0.28325720071E+02 -0.44656513273E+01 -0.34500843726E+02  0.44861973621E+02  0.00000000000E+00 0. -1.
         21    1    1    2  503  502  0.39421297148E+02 -0.22390207515E+02 -0.33222759905E+03  0.33530663225E+03  0.00000000000E+00 0.  1.
<scales pt_clust_5="13000.00000" pt_clust_6="13000.00000" pt_clust_7="13000.00000" pt_clust_8="13000.00000" pt_clust_9="28.67557" pt_clust_10="46.63312"></scales>
<clustering>
<clus scale="   28.676">  1  9  2 -1</clus>
<clus scale="   46.633">  2 10  1 -1</clus>
<clus scale="   90.097">  7  8 -1 -1</clus>
<clus scale="  103.470">  5  6 -1 -1</clus>
<clus scale="  195.059">  1  7  2 -1</clus>
<clus scale="   46.633">  2  5  1 -1</clus>
</clustering>
</event>
<event>
10    2  0.1133532E-006  0.2177202E+03  0.7546771E-02  0.1136107E+00
          2   -1    0    0  503    0  0.00000000000E+00  0.00000000000E+00  0.84665316560E+03  0.84665316560E+03  0.00000000000E+00 0. -1.
         -2   -1    0    0    0  501 -0.00000000000E+00 -0.00000000000E+00 -0.95801338730E+02  0.95801338730E+02  0.00000000000E+00 0.  1.
         23    2    1    2    0    0  0.14062341365E+03  0.14096505383E+03  0.29372049373E+03  0.36893379528E+03  0.10096695497E+03 0.  0.
         23    2    1    2    0    0 -0.11599148149E+03 -0.15891371943E+03  0.39513287213E+03  0.45151471959E+03  0.95015584893E+02 0.  0.
        -11    1    4    4    0    0 -0.97093819014E+02 -0.93491362974E+02  0.17379104136E+03  0.21993446910E+03  0.00000000000E+00 0.  1.
         11    1    4    4    0    0 -0.18897662478E+02 -0.65422356458E+02  0.22134183076E+03  0.23158025049E+03  0.00000000000E+00 0. -1.
        -11    1    3    3    0    0  0.50292109092E+02 -0.14916276778E+01  0.10086251699E+03  0.11271543161E+03  0.00000000000E+00 0.  1.
         11    1    3    3    0    0  0.90331304556E+02  0.14245668151E+03  0.19285797674E+03  0.25621836367E+03  0.00000000000E+00 0. -1.
         21    1    1    2  502  501 -0.14704627493E+02 -0.25121578745E+02 -0.15358636878E+02  0.32912118058E+02  0.00000000000E+00 0. -1.
         21    1    1    2  503  502 -0.99273046628E+01  0.43070244349E+02  0.77357097887E+02  0.89093871393E+02  0.00000000000E+00 0.  1.
<scales pt_clust_5="13000.00000" pt_clust_6="13000.00000" pt_clust_7="13000.00000" pt_clust_8="13000.00000" pt_clust_9="29.10876" pt_clust_10="42.49691"></scales>
<clustering>
<clus scale="   29.109">  2  9  1 -1</clus>
<clus scale="   42.497">  1 10  2 -1</clus>
<clus scale="   95.016">  5  6 -1 -1</clus>
<clus scale="  100.967">  7  8 -1 -1</clus>
<clus scale="  215.025">  1  5  2 -1</clus>
<clus scale="   42.497">  1  5  2 -1</clus>
</clustering>
</event>
<event>
10    2  0.1133532E-006  0.2216226E+03  0.7546771E-02  0.1132763E+00
          1   -1    0    0  503    0  0.00000000000E+00  0.00000000000E+00  0.10653398802E+04  0.10653398802E+04  0.00000000000E+00 0. -1.
         -1   -1    0    0    0  501 -0.00000000000E+00 -0.00000000000E+00 -0.47562359092E+03  0.47562359092E+03  0.00000000000E+00 0.  1.
         23    2    1    2    0    0 -0.50906865552E+01  0.28314752074E+03  0.32319021665E+03  0.43941965153E+03  0.91865556230E+02 0.  0.
         23    2    1    2    0    0  0.82378666117E+02 -0.14282727414E+03  0.56985115559E+03  0.60012795541E+03  0.90759839493E+02 0.  0.
        -13    1    3    3    0    0  0.49489917857E+01  0.21566445383E+03  0.18056897961E+03  0.28131975679E+03  0.00000000000E+00 0.  1.
         13    1    3    3    0    0 -0.10039678341E+02  0.67483066912E+02  0.14262123704E+03  0.15809989474E+03  0.00000000000E+00 0. -1.
        -13    1    4    4    0    0  0.47277264882E+02 -0.17229761769E+02  0.24429512576E+03  0.24942356131E+03  0.00000000000E+00 0.  1.
         13    1    4    4    0    0  0.35101401235E+02 -0.12559751237E+03  0.32555602983E+03  0.35070439410E+03  0.00000000000E+00 0. -1.
         21    1    1    2  502  501 -0.76630137087E+02 -0.10634849884E+03 -0.38833804778E+03  0.40986414879E+03  0.00000000000E+00 0.  1.
         21    1    1    2  503  502 -0.65784247448E+00 -0.33971747763E+02  0.85012964779E+02  0.91551715349E+02  0.00000000000E+00 0. -1.
<scales pt_clust_5="13000.00000" pt_clust_6="13000.00000" pt_clust_7="13000.00000" pt_clust_8="13000.00000" pt_clust_9="131.38884" pt_clust_10="33.97812"></scales>
<clustering>
<clus scale="   33.978">  1 10  2 -1</clus>
<clus scale="   90.760">  7  8 -1 -1</clus>
<clus scale="   91.866">  5  6 -1 -1</clus>
<clus scale="  131.389">  2  9  1 -1</clus>
<clus scale="  221.167">  1  7  2 -1</clus>
<clus scale="   33.978">  1  5  2 -1</clus>
</clustering>
</event>
<event>
10    2  0.1133532E-006  0.1133189E+03  0.7546771E-02  0.1255949E+00
         -2   -1    0    0    0  501 -0.00000000000E+00  0.00000000000E+00  0.23171711924E+02  0.23171711924E+02  0.00000000000E+00 0.  1.
          2   -1    0    0  503    0  0.00000000000E+00 -0.00000000000E+00 -0.12625936267E+04  0.12625936267E+04  0.00000000000E+00 0. -1.
         23    2    1    2    0    0 -0.10172265151E+02 -0.34455722110E+02 -0.37930119890E+03  0.39182298336E+03  0.91461352713E+02 0.  0.
         23    2    1    2    0    0  0.12350196195E+02  0.96822823092E+02 -0.36234990466E+03  0.38535015931E+03  0.87579138244E+02 0.  0.
        -13    1    3    3    0    0 -0.45418240460E+02  0.35863312672E+01 -0.20317052833E+03  0.20821609429E+03  0.00000000000E+00 0.  1.
         13    1    3    3    0    0  0.35245975308E+02 -0.38042053377E+02 -0.17613067057E+03  0.18360688908E+03  0.00000000000E+00 0. -1.
        -13    1    4    4    0    0 -0.22121107874E+02  0.76730663001E+02 -0.15679961334E+03  0.17596322571E+03  0.00000000000E+00 0.  1.
         13    1    4    4    0    0  0.34471304069E+02  0.20092160091E+02 -0.20555029132E+03  0.20938693360E+03  0.00000000000E+00 0. -1.
         21    1    1    2  502  501 -0.79858658439E+01  0.19026761129E+02 -0.65041782040E+02  0.68236537890E+02  0.00000000000E+00 0. -1.
         21    1    1    2  503  502  0.58079348002E+01 -0.81393862111E+02 -0.43272902922E+03  0.44035565811E+03  0.00000000000E+00 0. -1.
<scales pt_clust_5="13000.00000" pt_clust_6="13000.00000" pt_clust_7="13000.00000" pt_clust_8="13000.00000" pt_clust_9="20.63472" pt_clust_10="78.15459"></scales>
<clustering>
<clus scale="   20.635">  1  9  2 -1</clus>
<clus scale="   78.155">  2 10  1 -1</clus>
<clus scale="   87.579">  7  8 -1 -1</clus>
<clus scale="   91.461">  5  6 -1 -1</clus>
<clus scale="  110.209">  2  7  1 -1</clus>
<clus scale="   78.155">  2  5  1 -1</clus>
</clustering>
</event>
<event>
10    2  0.1133532E-006  0.1060929E+03  0.7546771E-02  0.1270598E+00
         -1   -1    0    0    0  501 -0.00000000000E+00  0.00000000000E+00  0.11363029257E+03  0.11363029257E+03  0.00000000000E+00 0.  1.
          1   -1    0    0  503    0  0.00000000000E+00 -0.00000000000E+00 -0.41246566269E+03  0.41246566269E+03  0.00000000000E+00 0. -1.
         23    2    1    2    0    0  0.56274967736E+02  0.11053643493E+02  0.48288091580E+02  0.11711904491E+03  0.89978196601E+02 0.  0.
         23    2    1    2    0    0 -0.55787783293E+02  0.47114544286E+02 -0.15444022505E+03  0.19025048734E+03  0.83734149378E+02 0.  0.
        -11    1    4    4    0    0 -0.12403856787E+02  0.62829743423E+02 -0.77526731536E+02  0.10055757766E+03  0.00000000000E+00 0.  1.
         11    1    4    4    0    0 -0.43383926505E+02 -0.15715199136E+02 -0.76913493518E+02  0.89692909687E+02  0.00000000000E+00 0. -1.
        -11    1    3    3    0    0 -0.16548477342E+02 -0.19246619290E+02  0.23096798496E+02  0.34318312272E+02  0.00000000000E+00 0. -1.
         11    1    3    3    0    0  0.72823445078E+02  0.30300262784E+02  0.25191293084E+02  0.82800732636E+02  0.00000000000E+00 0.  1.
         21    1    1    2  502  501 -0.21998645661E+02 -0.46980163802E+02 -0.43834315999E+02  0.67915561257E+02  0.00000000000E+00 0. -1.
         21    1    1    2  503  502  0.21511461217E+02 -0.11188023978E+02 -0.14884892064E+03  0.15081086175E+03  0.00000000000E+00 0. -1.
<scales pt_clust_5="13000.00000" pt_clust_6="13000.00000" pt_clust_7="13000.00000" pt_clust_8="13000.00000" pt_clust_9="52.34480" pt_clust_10="24.24696"></scales>
<clustering>
<clus scale="   24.247">  2 10  1 -1</clus>
<clus scale="   52.345">  2  9  1 -1</clus>
<clus scale="   83.734">  5  6 -1 -1</clus>
<clus scale="   89.978">  7  8 -1 -1</clus>
<clus scale="  100.852">  2  5  1 -1</clus>
<clus scale="   24.247">  2  5  1 -1</clus>
</clustering>
</event>
<event>
10    2  0.1133532E-006  0.1496661E+03  0.7546771E-02  0.1202185E+00
         -2   -1    0    0    0  501 -0.00000000000E+00  0.00000000000E+00  0.13183339274E+03  0.13183339274E+03  0.00000000000E+00 0.  1.
          2   -1    0    0  503    0  0.00000000000E+00 -0.00000000000E+00 -0.28450947147E+03  0.28450947147E+03  0.00000000000E+00 0. -1.
         23    2    1    2    0    0 -0.27715886541E+02 -0.98560476146E+02 -0.94848515102E+01  0.14273771749E+03  0.99003816906E+02 0.  0.
         23    2    1    2    0    0  0.38022923623E+02  0.10419283694E+03 -0.13693238454E+03  0.19906387149E+03  0.92596204062E+02 0.  0.
        -13    1    3    3    0    0  0.25763113378E+02 -0.20878143533E+02  0.25828105325E+02  0.42032438818E+02  0.00000000000E+00 0.  1.
         13    1    3    3    0    0 -0.53478999919E+02 -0.77682332613E+02 -0.35312956835E+02  0.10070527867E+03  0.00000000000E+00 0. -1.
        -13    1    4    4    0    0  0.67097344302E+02  0.54435610644E+02 -0.74329958850E+02  0.11397469939E+03  0.00000000000E+00 0.  1.
         13    1    4    4    0    0 -0.29074420679E+02  0.49757226295E+02 -0.62602425691E+02  0.85089172100E+02  0.00000000000E+00 0. -1.
         21    1    1    2  502  501  0.66926003950E+01 -0.25743576675E+02  0.23009302265E+02  0.35170308938E+02  0.00000000000E+00 0.  1.
         21    1    1    2  503  502 -0.16999637477E+02  0.20111215882E+02 -0.29268144939E+02  0.39370966292E+02  0.00000000000E+00 0. -1.
<scales pt_clust_5="13000.00000" pt_clust_6="13000.00000" pt_clust_7="13000.00000" pt_clust_8="13000.00000" pt_clust_9="26.02377" pt_clust_10="26.33341"></scales>
<clustering>
<clus scale="   26.333">  2 10  1 -1</clus>
<clus scale="   26.024">  1  9  2 -1</clus>
<clus scale="   92.596">  7  8 -1 -1</clus>
<clus scale="   99.004">  5  6 -1 -1</clus>
<clus scale="  145.507">  2  7  1 -1</clus>
<clus scale="   26.333">  2  5  1 -1</clus>
</clustering>
</event>
<event>
10    2  0.1133532E-006  0.1148612E+03  0.7546771E-02  0.1252450E+00
          2   -1    0    0  503    0  0.00000000000E+00  0.00000000000E+00  0.63002384199E+02  0.63002384199E+02  0.00000000000E+00 0. -1.
         -2   -1    0    0    0  501 -0.00000000000E+00 -0.00000000000E+00 -0.33138557857E+03  0.33138557857E+03  0.00000000000E+00 0.  1.
         23    2    1    2    0    0 -0.82960022858E+02 -0.57578236170E+01 -0.13008485437E+03  0.17929132216E+03  0.91147084088E+02 0.  0.
         23    2    1    2    0    0  0.55570698588E+02  0.28894467814E+02 -0.91370268464E+02  0.14231768679E+03  0.89346545551E+02 0.  0.
        -11    1    4    4    0    0  0.34168264840E+02  0.14654101904E+01 -0.10065719548E+03  0.10630846039E+03  0.00000000000E+00 0.  1.
         11    1    4    4    0    0  0.21402433747E+02  0.27429057624E+02  0.92869270134E+01  0.36009226398E+02  0.00000000000E+00 0. -1.
        -13    1    3    3    0    0 -0.38545365777E+02 -0.14695511793E+02 -0.12739403517E+03  0.13390647290E+03  0.00000000000E+00 0.  1.
         13    1    3    3    0    0 -0.44414657081E+02  0.89376881762E+01 -0.26908192070E+01  0.45384849252E+02  0.00000000000E+00 0. -1.
         21    1    1    2  502  501  0.23092706328E+02  0.33734781626E+00 -0.42696746530E+02  0.48542754901E+02  0.00000000000E+00 0. -1.
         21    1    1    2  503  502  0.42966179425E+01 -0.23473992013E+02 -0.42313249976E+01  0.24236198919E+02  0.00000000000E+00 0.  1.
<scales pt_clust_5="13000.00000" pt_clust_6="13000.00000" pt_clust_7="13000.00000" pt_clust_8="13000.00000" pt_clust_9="23.09517" pt_clust_10="24.08128"></scales>
<clustering>
<clus scale="   23.095">  2  9  1 -1</clus>
<clus scale="   24.081">  1 10  2 -1</clus>
<clus scale="   89.347">  5  6 -1 -1</clus>
<clus scale="   91.147">  7  8 -1 -1</clus>
<clus scale="  113.438">  1  5  2 -1</clus>
<clus scale="   24.081">  1  5  2 -1</clus>
</clustering>
</event>
<event>
10    2  0.1133532E-006  0.1467448E+03  0.7546771E-02  0.1221501E+00
          1   -1    0    0  503    0  0.00000000000E+00  0.00000000000E+00  0.69847139102E+03  0.69847139102E+03  0.00000000000E+00 0. -1.
         -1   -1    0    0    0  501 -0.00000000000E+00 -0.00000000000E+00 -0.59434090404E+02  0.59434090404E+02  0.00000000000E+00 0.  1.
         23    2    1    2    0    0 -0.17129045842E+02 -0.36258142006E+02  0.14687216008E+03  0.17738971195E+03  0.91036374197E+02 0.  0.
         23    2    1    2    0    0 -0.11005238884E+02 -0.76339961336E+02  0.14070468187E+03  0.18473180259E+03  0.91537568296E+02 0.  0.
        -11    1    3    3    0    0 -0.16383132310E+02 -0.61416104119E+02  0.61730724026E+02  0.88606022133E+02  0.00000000000E+00 0. -1.
         11    1    3    3    0    0 -0.74591353139E+00  0.25157962113E+02  0.85141436053E+02  0.88783689819E+02  0.00000000000E+00 0.  1.
        -13    1    4    4    0    0  0.12814726587E+02 -0.81236526123E+02  0.63837452344E+02  0.10410960914E+03  0.00000000000E+00 0.  1.
         13    1    4    4    0    0 -0.23819965470E+02  0.48965647875E+01  0.76867229526E+02  0.80622193450E+02  0.00000000000E+00 0. -1.
         21    1    1    2  502  501 -0.10330111686E+02 -0.19276451282E+02  0.41049337731E+01  0.22251814820E+02  0.00000000000E+00 0.  1.
         21    1    1    2  503  502  0.38464396412E+02  0.13187455462E+03  0.34735552490E+03  0.37353215206E+03  0.00000000000E+00 0. -1.
<scales pt_clust_5="13000.00000" pt_clust_6="13000.00000" pt_clust_7="13000.00000" pt_clust_8="13000.00000" pt_clust_9="21.86991" pt_clust_10="114.69491"></scales>
<clustering>
<clus scale="   21.870">  2  9  1 -1</clus>
<clus scale="   91.036">  5  6 -1 -1</clus>
<clus scale="   91.538">  7  8 -1 -1</clus>
<clus scale="  102.325">  2  5  1 -1</clus>
<clus scale="  114.695">  1 10  2 -1</clus>
<clus scale="  114.695">  1  5  2 -1</clus>
</clustering>
</event>
<event>
10    2  0.1133532E-006  0.1162405E+03  0.7546771E-02  0.1249864E+00
         -2   -1    0    0    0  501 -0.00000000000E+00  0.00000000000E+00  0.10080438696E+03  0.10080438696E+03  0.00000000000E+00 0.  1.
          2   -1    0    0  503    0  0.00000000000E+00 -0.00000000000E+00 -0.41985924103E+03  0.41985924103E+03  0.00000000000E+00 0. -1.
         23    2    1    2    0    0 -0.52447490854E+02 -0.19196340029E+02 -0.81541617236E+02  0.13466055160E+03  0.91461412897E+02 0.  0.
         23    2    1    2    0    0  0.51062303245E+02  0.90205788118E+02 -0.23145044420E+03  0.26916015314E+03  0.90185569202E+02 0.  0.
        -11    1    4    4    0    0  0.29674474631E+02  0.89546352753E+02 -0.22894184625E+03  0.24761561481E+03  0.00000000000E+00 0. -1.
         11    1    4    4    0    0  0.21387828614E+02  0.65943536418E+00 -0.25085979543E+01  0.21544538322E+02  0.00000000000E+00 0.  1.
        -13    1    3    3    0    0 -0.20536041140E+02  0.34505214911E+02 -0.13668610170E+02  0.42416621103E+02  0.00000000000E+00 0. -1.
         13    1    3    3    0    0 -0.31911449714E+02 -0.53701554940E+02 -0.67873007067E+02  0.92243930500E+02  0.00000000000E+00 0.  1.
         21    1    1    2  502  501  0.14722472448E+02 -0.40479954342E+02  0.40809904705E+02  0.59336550461E+02  0.00000000000E+00 0.  1.
         21    1    1    2  503  502 -0.13337284839E+02 -0.30529493747E+02 -0.46872697335E+02  0.57506372784E+02  0.00000000000E+00 0. -1.
<scales pt_clust_5="13000.00000" pt_clust_6="13000.00000" pt_clust_7="13000.00000" pt_clust_8="13000.00000" pt_clust_9="43.68594" pt_clust_10="33.31566"></scales>
<clustering>
<clus scale="   33.316">  2 10  1 -1</clus>
<clus scale="   43.686">  1  9  2 -1</clus>
<clus scale="   90.186">  5  6 -1 -1</clus>
<clus scale="   91.461">  7  8 -1 -1</clus>
<clus scale="  115.239">  2  5  1 -1</clus>
<clus scale="   33.316">  2  5  1 -1</clus>
</clustering>
</event>
<event>
10    2  0.1133532E-006  0.1211433E+03  0.7546771E-02  0.1242025E+00
          1   -1    0    0  503    0  0.00000000000E+00  0.00000000000E+00  0.13569779939E+03  0.13569779939E+03  0.00000000000E+00 0. -1.
         -1   -1    0    0    0  501 -0.00000000000E+00 -0.00000000000E+00 -0.35679358654E+03  0.35679358654E+03  0.00000000000E+00 0.  1.
         23    2    1    2    0    0  0.14662863257E+02 -0.81504332474E+02 -0.12773241080E+03  0.17779600800E+03  0.91858020448E+02 0.  0.
         23    2    1    2    0    0 -0.71984244179E+02  0.55547916543E+02 -0.41330663996E+02  0.13741483102E+03  0.94378543931E+02 0.  0.
        -13    1    4    4    0    0 -0.86443969622E+02  0.18788859001E+02 -0.14448523579E+02  0.89634485217E+02  0.00000000000E+00 0. -1.
         13    1    4    4    0    0  0.14459725443E+02  0.36759057542E+02 -0.26882140417E+02  0.47780345799E+02  0.00000000000E+00 0.  1.
        -13    1    3    3    0    0  0.33402384251E+02 -0.94905983888E+02 -0.10532061357E+03  0.14565471738E+03  0.00000000000E+00 0.  1.
         13    1    3    3    0    0 -0.18739520995E+02  0.13401651414E+02 -0.22411797230E+02  0.32141290621E+02  0.00000000000E+00 0. -1.
         21    1    1    2  502  501  0.23029832835E+02  0.29317114823E+02 -0.10649619206E+03  0.11283308622E+03  0.00000000000E+00 0.  1.
         21    1    1    2  503  502  0.34291548087E+02 -0.33606988917E+01  0.54463479715E+02  0.64447460694E+02  0.00000000000E+00 0. -1.
<scales pt_clust_5="13000.00000" pt_clust_6="13000.00000" pt_clust_7="13000.00000" pt_clust_8="13000.00000" pt_clust_9="38.07054" pt_clust_10="34.45584"></scales>
<clustering>
<clus scale="   34.456">  1 10  2 -1</clus>
<clus scale="   38.071">  2  9  1 -1</clus>
<clus scale="   91.858">  7  8 -1 -1</clus>
<clus scale="   94.379">  5  6 -1 -1</clus>
<clus scale="  119.190">  2  7  1 -1</clus>
<clus scale="   34.456">  1  5  2 -1</clus>
</clustering>
</event>
<event>
10    2  0.1133532E-006  0.5296186E+03  0.7546771E-02  0.1006379E+00
         -1   -1    0    0    0  501 -0.00000000000E+00  0.00000000000E+00  0.61429652428E+03  0.61429652428E+03  0.00000000000E+00 0.  1.
          1   -1    0    0  503    0  0.00000000000E+00 -0.00000000000E+00 -0.28973583218E+04  0.28973583218E+04  0.00000000000E+00 0. -1.
         23    2    1    2    0    0 -0.53885181749E+03  0.89078925528E+02  0.38790648760E+03  0.67548503142E+03  0.86673227495E+02 0.  0.
         23    2    1    2    0    0  0.44406611597E+03  0.50336579864E+02 -0.14932232131E+04  0.15613782735E+04  0.91967724983E+02 0.  0.
        -13    1    3    3    0    0 -0.69358185641E+02  0.11408239697E+02  0.17477060287E+02  0.72430335390E+02  0.00000000000E+00 0. -1.
         13    1    3    3    0    0 -0.46949363185E+03  0.77670685831E+02  0.37042942732E+03  0.60305469603E+03  0.00000000000E+00 0.  1.
        -13    1    4    4    0    0  0.40823453247E+03  0.70523135918E+02 -0.13283737240E+04  0.13914760856E+04  0.00000000000E+00 0. -1.
         13    1    4    4    0    0  0.35831583496E+02 -0.20186556054E+02 -0.16484948906E+03  0.16990218793E+03  0.00000000000E+00 0.  1.
         21    1    1    2  502  501  0.20366370076E+02  0.15022203039E+02  0.38746956253E+02  0.46279393180E+02  0.00000000000E+00 0.  1.
         21    1    1    2  503  502  0.74419331448E+02 -0.15443770843E+03 -0.12164920283E+04  0.12285121479E+04  0.00000000000E+00 0. -1.
<scales pt_clust_5="13000.00000" pt_clust_6="13000.00000" pt_clust_7="13000.00000" pt_clust_8="13000.00000" pt_clust_9="25.30722" pt_clust_10="171.38379"></scales>
<clustering>
<clus scale="   25.307">  1  9  2 -1</clus>
<clus scale="   86.673">  5  6 -1 -1</clus>
<clus scale="   91.968">  7  8 -1 -1</clus>
<clus scale="  171.384">  2 10  1 -1</clus>
<clus scale="  528.725">  1  5  2 -1</clus>
<clus scale="  171.384">  2  5  1 -1</clus>
</clustering>
</event>
<event>
10    2  0.1133532E-006  0.2370025E+03  0.7546771E-02  0.1121959E+00
          2   -1    0    0  503    0  0.00000000000E+00  0.00000000000E+00  0.13835892390E+04  0.13835892390E+04  0.00000000000E+00 0. -1.
         -2   -1    0    0    0  501 -0.00000000000E+00 -0.00000000000E+00 -0.12657969889E+03  0.12657969889E+03  0.00000000000E+00 0.  1.
         23    2    1    2    0    0  0.26914570918E+02  0.17262568762E+03  0.11493837683E+03  0.22918980678E+03  0.93771610354E+02 0.  0.
         23    2    1    2    0    0 -0.71162240736E+02 -0.28964809067E+03  0.38899741105E+03  0.49864231830E+03  0.91460892505E+02 0.  0.
        -11    1    4    4    0    0 -0.92190873122E+02 -0.25785536960E+03  0.34005424911E+03  0.43660673501E+03  0.00000000000E+00 0.  1.
         11    1    4    4    0    0  0.21028632386E+02 -0.31792721068E+02  0.48943161945E+02  0.62035583290E+02  0.00000000000E+00 0. -1.
        -13    1    3    3    0    0 -0.17357299756E+02  0.13449901128E+03  0.57637716214E+02  0.14735455955E+03  0.00000000000E+00 0.  1.
         13    1    3    3    0    0  0.44271870674E+02  0.38126676343E+02  0.57300660615E+02  0.81835247228E+02  0.00000000000E+00 0. -1.
         21    1    1    2  502  501  0.23377630251E+02  0.15267526728E+02  0.66267118145E+01  0.28697112712E+02  0.00000000000E+00 0. -1.
         21    1    1    2  503  502  0.20870039566E+02  0.10175487632E+03  0.74644704042E+03  0.75363970009E+03  0.00000000000E+00 0. -1.
<scales pt_clust_5="13000.00000" pt_clust_6="13000.00000" pt_clust_7="13000.00000" pt_clust_8="13000.00000" pt_clust_9="27.92151" pt_clust_10="104.48659"></scales>
<clustering>
<clus scale="   27.922">  2  9  1 -1</clus>
<clus scale="   91.461">  5  6 -1 -1</clus>
<clus scale="   93.772">  7  8 -1 -1</clus>
<clus scale="  104.487">  1 10  2 -1</clus>
<clus scale="  236.098">  1  5  2 -1</clus>
<clus scale="  104.487">  1  5  2 -1</clus>
</clustering>
</event>
<event>
10    2  0.1133532E-006  0.1507975E+03  0.7546771E-02  0.1201893E+00
         -1   -1    0    0    0  501 -0.00000000000E+00  0.00000000000E+00  0.49457462831E+03  0.49457462831E+03  0.00000000000E+00 0.  1.
          1   -1    0    0  503    0  0.00000000000E+00 -0.00000000000E+00 -0.21556620890E+03  0.21556620890E+03  0.00000000000E+00 0. -1.
         23    2    1    2    0    0  0.92499221597E+02  0.35629801048E+02  0.38484513846E+03  0.40981188600E+03  0.10007203704E+03 0.  0.
         23    2    1    2    0    0 -0.77742612564E+02 -0.21094038259E+02 -0.81895415596E+02  0.14479120404E+03  0.88140577566E+02 0.  0.
        -11    1    3    3    0    0 -0.38578594958E+01  0.41394776698E+02  0.81708443906E+02  0.91677044146E+02  0.00000000000E+00 0. -1.
         11    1    3    3    0    0  0.96357081093E+02 -0.57649756497E+01  0.30313669455E+03  0.31813484186E+03  0.00000000000E+00 0.  1.
        -13    1    4    4    0    0 -0.26222390876E+02  0.21839728288E+02 -0.68316612861E+02  0.76365876593E+02  0.00000000000E+00 0.  1.
         13    1    4    4    0    0 -0.51520221688E+02 -0.42933766548E+02 -0.13578802735E+02  0.68425327449E+02  0.00000000000E+00 0. -1.
         21    1    1    2  502  501  0.17845636421E+02  0.10805073860E+02  0.59166695062E+02  0.62736864482E+02  0.00000000000E+00 0. -1.
         21    1    1    2  503  502 -0.32602245454E+02 -0.25340836649E+02 -0.83107998510E+02  0.92800882685E+02  0.00000000000E+00 0. -1.
<scales pt_clust_5="13000.00000" pt_clust_6="13000.00000" pt_clust_7="13000.00000" pt_clust_8="13000.00000" pt_clust_9="20.86184" pt_clust_10="41.06084"></scales>
<clustering>
<clus scale="   20.862">  1  9  2 -1</clus>
<clus scale="   41.061">  2 10  1 -1</clus>
<clus scale="   88.141">  7  8 -1 -1</clus>
<clus scale="  100.072">  5  6 -1 -1</clus>
<clus scale="  143.158">  2  7  1 -1</clus>
<clus scale="   41.061">  2  5  1 -1</clus>
</clustering>
</event>
<event>
10    2  0.1133532E-006  0.1501240E+03  0.7546771E-02  0.1202028E+00
         -1   -1    0    0    0  501 -0.00000000000E+00  0.00000000000E+00  0.15571045481E+03  0.15571045481E+03  0.00000000000E+00 0.  1.
          1   -1    0    0  503    0  0.00000000000E+00 -0.00000000000E+00 -0.28027531032E+03  0.28027531032E+03  0.00000000000E+00 0. -1.
         23    2    1    2    0    0 -0.11875653094E+03  0.59374172313E+01 -0.44242072629E+02  0.16093331399E+03  0.99014160589E+02 0.  0.
         23    2    1    2    0    0  0.10837328622E+03 -0.17326097040E+02 -0.12559999125E+03  0.18978069658E+03  0.90533928376E+02 0.  0.
        -11    1    3    3    0    0 -0.28242743299E+02  0.45778347407E+02 -0.32733039247E+01  0.53888998497E+02  0.00000000000E+00 0.  1.
         11    1    3    3    0    0 -0.90513787645E+02 -0.39840930176E+02 -0.40968768704E+02  0.10704431550E+03  0.00000000000E+00 0. -1.
        -13    1    4    4    0    0  0.10519767436E+03  0.13940186396E+02 -0.74026530746E+02  0.12938626953E+03  0.00000000000E+00 0.  1.
         13    1    4    4    0    0  0.31756118573E+01 -0.31266283435E+02 -0.51573460505E+02  0.60394427052E+02  0.00000000000E+00 0. -1.
         21    1    1    2  502  501 -0.16631791726E+02  0.21406009172E+02  0.49219635176E+02  0.56190801841E+02  0.00000000000E+00 0.  1.
         21    1    1    2  503  502  0.27015036453E+02 -0.10017329363E+02 -0.39424268028E+01  0.29080952722E+02  0.00000000000E+00 0. -1.
<scales pt_clust_5="13000.00000" pt_clust_6="13000.00000" pt_clust_7="13000.00000" pt_clust_8="13000.00000" pt_clust_9="27.10782" pt_clust_10="26.05983"></scales>
<clustering>
<clus scale="   27.108">  1  9  2 -1</clus>
<clus scale="   26.060">  1 10  2 -1</clus>
<clus scale="   90.534">  7  8 -1 -1</clus>
<clus scale="   99.014">  5  6 -1 -1</clus>
<clus scale="  144.671">  2  7  1 -1</clus>
<clus scale="  144.671">  2  5  1 -1</clus>
</clustering>
</event>
<event>
10    2  0.1133532E-006  0.1055613E+03  0.7546771E-02  0.1269918E+00
          1   -1    0    0  502    0  0.00000000000E+00  0.00000000000E+00  0.44166406256E+03  0.44166406256E+03  0.00000000000E+00 0. -1.
         -1   -1    0    0    0  501 -0.00000000000E+00 -0.00000000000E+00 -0.11581611948E+03  0.11581611948E+03  0.00000000000E+00 0.  1.
         23    2    1    2    0    0  0.95846712365E+01  0.50362299583E+02 -0.67833985572E+02  0.12533571969E+03  0.92083472405E+02 0.  0.
         23    2    1    2    0    0  0.42105094752E+02 -0.61637258027E+02  0.27959249304E+03  0.30305354218E+03  0.89986091594E+02 0.  0.
        -11    1    4    4    0    0  0.60871830542E+02 -0.96968938643E+01  0.15190693667E+03  0.16393635018E+03  0.00000000000E+00 0.  1.
         11    1    4    4    0    0 -0.18766735790E+02 -0.51940364162E+02  0.12768555638E+03  0.13911719200E+03  0.00000000000E+00 0. -1.
        -13    1    3    3    0    0 -0.89545304841E+01  0.60164173637E+02 -0.72893885122E+01  0.61262113827E+02  0.00000000000E+00 0. -1.
         13    1    3    3    0    0  0.18539201721E+02 -0.98018740544E+01 -0.60544597060E+02  0.64073605865E+02  0.00000000000E+00 0.  1.
         21    1    1    2  502  503 -0.16908125106E+02  0.18215551782E+02  0.43795474593E+02  0.50356078244E+02  0.00000000000E+00 0. -1.
         21    1    1    2  503  501 -0.34781640883E+02 -0.69405933378E+01  0.70293961016E+02  0.78734841930E+02  0.00000000000E+00 0. -1.
<scales pt_clust_5="13000.00000" pt_clust_6="13000.00000" pt_clust_7="13000.00000" pt_clust_8="13000.00000" pt_clust_9="24.39272" pt_clust_10="60.39922"></scales>
<clustering>
<clus scale="   24.393">  9 10 -1 -1</clus>
<clus scale="   60.399">  1  9  2 -1</clus>
<clus scale="   89.986">  5  6 -1 -1</clus>
<clus scale="   92.083">  7  8 -1 -1</clus>
<clus scale="  103.737">  1  5  2 -1</clus>
<clus scale="   60.399">  1  5  2 -1</clus>
</clustering>
</event>
<event>
10    2  0.1133532E-006  0.1205419E+03  0.7546771E-02  0.1242394E+00
          1   -1    0    0  503    0  0.00000000000E+00  0.00000000000E+00  0.25992275285E+03  0.25992275285E+03  0.00000000000E+00 0. -1.
         -1   -1    0    0    0  501 -0.00000000000E+00 -0.00000000000E+00 -0.13160644878E+03  0.13160644878E+03  0.00000000000E+00 0.  1.
         23    2    1    2    0    0 -0.96289678034E+02 -0.46111071936E+02 -0.11836405861E+02  0.13967546031E+03  0.89281580725E+02 0.  0.
         23    2    1    2    0    0  0.53156927885E+02 -0.18373635607E+02  0.55138333450E+02  0.11951830331E+03  0.89895158616E+02 0.  0.
        -11    1    4    4    0    0  0.16938023683E+02 -0.53090611218E+02  0.25924750818E+02  0.61462202619E+02  0.00000000000E+00 0. -1.
         11    1    4    4    0    0  0.36218904202E+02  0.34716975610E+02  0.29213582632E+02  0.58056100690E+02  0.00000000000E+00 0.  1.
        -13    1    3    3    0    0 -0.37905207957E+02 -0.18503686799E+02 -0.49403974785E+02  0.64961095588E+02  0.00000000000E+00 0.  1.
         13    1    3    3    0    0 -0.58384470077E+02 -0.27607385137E+02  0.37567568924E+02  0.74714364717E+02  0.00000000000E+00 0. -1.
         21    1    1    2  502  501 -0.40113188118E+01  0.52652602421E+02  0.43629308467E+02  0.68497472782E+02  0.00000000000E+00 0. -1.
         21    1    1    2  503  502  0.47144068961E+02  0.11832105122E+02  0.41385068023E+02  0.63837965233E+02  0.00000000000E+00 0.  1.
<scales pt_clust_5="13000.00000" pt_clust_6="13000.00000" pt_clust_7="13000.00000" pt_clust_8="13000.00000" pt_clust_9="56.53175" pt_clust_10="48.60619"></scales>
<clustering>
<clus scale="   48.606">  1 10  2 -1</clus>
<clus scale="   56.532">  1  9  2 -1</clus>
<clus scale="   89.282">  7  8 -1 -1</clus>
<clus scale="   89.895">  5  6 -1 -1</clus>
<clus scale="  120.085">  2  7  1 -1</clus>
<clus scale="   48.606">  1  5  2 -1</clus>
</clustering>
</event>
<event>
10    2  0.1133532E-006  0.1262206E+03  0.7546771E-02  0.1234506E+00
          1   -1    0    0  503    0  0.00000000000E+00  0.00000000000E+00  0.23393254952E+03  0.23393254952E+03  0.00000000000E+00 0. -1.
         -1   -1    0    0    0  501 -0.00000000000E+00 -0.00000000000E+00 -0.29757485016E+03  0.29757485016E+03  0.00000000000E+00 0.  1.
         23    2    1    2    0    0  0.10112218321E+03  0.59290585139E+02 -0.12123066614E+03  0.19246372633E+03  0.92759593115E+02 0.  0.
         23    2    1    2    0    0 -0.52102919245E+02 -0.20172399606E+02  0.68131099141E+02  0.12458182298E+03  0.88074650427E+02 0.  0.
        -11    1    3    3    0    0  0.64971195043E+02  0.83044185559E+02 -0.76728201267E+02  0.13040249158E+03  0.00000000000E+00 0.  1.
         11    1    3    3    0    0  0.36150988168E+02 -0.23753600420E+02 -0.44502464872E+02  0.62061234746E+02  0.00000000000E+00 0. -1.
        -11    1    4    4    0    0 -0.21910227714E+02 -0.78780072382E+01  0.84820555021E+02  0.87958215253E+02  0.00000000000E+00 0. -1.
         11    1    4    4    0    0 -0.30192691531E+02 -0.12294392368E+02 -0.16689455880E+02  0.36623607730E+02  0.00000000000E+00 0.  1.
         21    1    1    2  502  501 -0.21848973208E+02 -0.19891496923E+02 -0.10774269569E+03  0.11172080269E+03  0.00000000000E+00 0.  1.
         21    1    1    2  503  502 -0.27170290758E+02 -0.19226688609E+02  0.97199962047E+02  0.10274104767E+03  0.00000000000E+00 0. -1.
<scales pt_clust_5="13000.00000" pt_clust_6="13000.00000" pt_clust_7="13000.00000" pt_clust_8="13000.00000" pt_clust_9="29.54741" pt_clust_10="33.71755"></scales>
<clustering>
<clus scale="   29.547">  2  9  1 -1</clus>
<clus scale="   33.718">  1 10  2 -1</clus>
<clus scale="   88.075">  7  8 -1 -1</clus>
<clus scale="   92.760">  5  6 -1 -1</clus>
<clus scale="  122.819">  1  7  2 -1</clus>
<clus scale="   33.718">  1  5  2 -1</clus>
</clustering>
</event>
<event>
10    2  0.1133532E-006  0.1505113E+03  0.7546771E-02  0.1202480E+00
         -2   -1    0    0    0  501 -0.00000000000E+00  0.00000000000E+00  0.45270895540E+02  0.45270895540E+02  0.00000000000E+00 0.  1.
          2   -1    0    0  503    0  0.00000000000E+00 -0.00000000000E+00 -0.73586232286E+03  0.73586232286E+03  0.00000000000E+00 0. -1.
         23    2    1    2    0    0  0.93174494765E+02  0.61154792094E+02 -0.25019656011E+03  0.28859235252E+03  0.90916622073E+02 0.  0.
         23    2    1    2    0    0 -0.90787525877E+02 -0.66713399546E+02 -0.29241899731E+03  0.33001887389E+03  0.10349171270E+03 0.  0.
        -11    1    4    4    0    0 -0.28381161983E+02  0.20443356363E+02 -0.28356528010E+02  0.45027923067E+02  0.00000000000E+00 0.  1.
         11    1    4    4    0    0 -0.62406363894E+02 -0.87156755909E+02 -0.26406246930E+03  0.28499095082E+03  0.00000000000E+00 0. -1.
        -13    1    3    3    0    0  0.71906607845E+02  0.81784042995E+02 -0.15911564728E+03  0.19281332721E+03  0.00000000000E+00 0.  1.
         13    1    3    3    0    0  0.21267886921E+02 -0.20629250901E+02 -0.91080912826E+02  0.95779025304E+02  0.00000000000E+00 0. -1.
         21    1    1    2  502  501 -0.29406772424E+02 -0.80245114547E+01 -0.39409573119E+02  0.49822339386E+02  0.00000000000E+00 0. -1.
         21    1    1    2  503  502  0.27019803536E+02  0.13583118907E+02 -0.10856629678E+03  0.11269965261E+03  0.00000000000E+00 0.  1.
<scales pt_clust_5="13000.00000" pt_clust_6="13000.00000" pt_clust_7="13000.00000" pt_clust_8="13000.00000" pt_clust_9="28.36993" pt_clust_10="30.24187"></scales>
<clustering>
<clus scale="   30.242">  2 10  1 -1</clus>
<clus scale="   28.370">  1  9  2 -1</clus>
<clus scale="   90.917">  7  8 -1 -1</clus>
<clus scale="  103.492">  5  6 -1 -1</clus>
<clus scale="  142.158">  1  7  2 -1</clus>
<clus scale="   30.242">  2  5  1 -1</clus>
</clustering>
</event>
<event>
10    2  0.1133532E-006  0.1494305E+03  0.7546771E-02  0.1205202E+00
          1   -1    0    0  503    0  0.00000000000E+00  0.00000000000E+00  0.12408272405E+03  0.12408272405E+03  0.00000000000E+00 0. -1.
         -1   -1    0    0    0  501 -0.00000000000E+00 -0.00000000000E+00 -0.50861872560E+03  0.50861872560E+03  0.00000000000E+00 0.  1.
         23    2    1    2    0    0  0.73521970289E+02 -0.45877238167E+01 -0.32046944072E+03  0.34186050001E+03  0.93495517042E+02 0.  0.
         23    2    1    2    0    0 -0.11960756514E+03 -0.52613424667E+02  0.12596794266E+02  0.17187241500E+03  0.11093829689E+03 0.  0.
        -11    1    4    4    0    0 -0.87007842579E+02 -0.84964010651E+02  0.25312631540E+02  0.12421745888E+03  0.00000000000E+00 0. -1.
         11    1    4    4    0    0 -0.32599722563E+02  0.32350585984E+02 -0.12715837274E+02  0.47654956114E+02  0.00000000000E+00 0.  1.
        -13    1    3    3    0    0  0.55030395280E+02  0.41769059427E+02 -0.19004346573E+03  0.20221156643E+03  0.00000000000E+00 0.  1.
         13    1    3    3    0    0  0.18491575009E+02 -0.46356783243E+02 -0.13042597499E+03  0.13964893358E+03  0.00000000000E+00 0. -1.
         21    1    1    2  502  501  0.17814851889E+02  0.51542776426E+02 -0.71098729690E+02  0.89605000491E+02  0.00000000000E+00 0.  1.
         21    1    1    2  503  502  0.28270742965E+02  0.56583720573E+01 -0.55646254102E+01  0.29363534155E+02  0.00000000000E+00 0.  1.
<scales pt_clust_5="13000.00000" pt_clust_6="13000.00000" pt_clust_7="13000.00000" pt_clust_8="13000.00000" pt_clust_9="55.77523" pt_clust_10="28.83144"></scales>
<clustering>
<clus scale="   28.831">  1 10  2 -1</clus>
<clus scale="   55.775">  2  9  1 -1</clus>
<clus scale="   93.496">  7  8 -1 -1</clus>
<clus scale="  110.938">  5  6 -1 -1</clus>
<clus scale="  136.980">  2  7  1 -1</clus>
<clus scale="   28.831">  1  5  2 -1</clus>
</clustering>
</event>
<event>
10    2  0.1133532E-006  0.1125365E+03  0.7546771E-02  0.1258136E+00
          1   -1    0    0  503    0  0.00000000000E+00  0.00000000000E+00  0.11450677318E+03  0.11450677318E+03  0.00000000000E+00 0. -1.
         -1   -1    0    0    0  501 -0.00000000000E+00 -0.00000000000E+00 -0.19583201531E+03  0.19583201531E+03  0.00000000000E+00 0.  1.
         23    2    1    2    0    0 -0.28045961475E+02 -0.42701536246E+02 -0.43292174374E+02  0.11336549711E+03  0.91474184442E+02 0.  0.
         23    2    1    2    0    0  0.39437490383E+02  0.68640276566E+02 -0.16617384553E+01  0.11656119667E+03  0.85539160506E+02 0.  0.
        -13    1    3    3    0    0 -0.26630353450E+01 -0.38530942193E+02 -0.67676148825E+02  0.77921668253E+02  0.00000000000E+00 0.  1.
         13    1    3    3    0    0 -0.25382926130E+02 -0.41705940528E+01  0.24383974452E+02  0.35443828853E+02  0.00000000000E+00 0. -1.
        -13    1    4    4    0    0  0.65036469488E+02  0.33744179440E+02 -0.13012119730E+01  0.73281001372E+02  0.00000000000E+00 0.  1.
         13    1    4    4    0    0 -0.25598979105E+02  0.34896097126E+02 -0.36052648234E+00  0.43280195300E+02  0.00000000000E+00 0. -1.
         21    1    1    2  502  501  0.11260163586E+02 -0.27361257186E+02 -0.46852238234E+02  0.55412651140E+02  0.00000000000E+00 0. -1.
         21    1    1    2  503  502 -0.22651692494E+02  0.14225168659E+01  0.10480908925E+02  0.24999443573E+02  0.00000000000E+00 0. -1.
<scales pt_clust_5="13000.00000" pt_clust_6="13000.00000" pt_clust_7="13000.00000" pt_clust_8="13000.00000" pt_clust_9="29.16214" pt_clust_10="22.69632"></scales>
<clustering>
<clus scale="   22.696">  1 10  2 -1</clus>
<clus scale="   29.162">  2  9  1 -1</clus>
<clus scale="   85.539">  7  8 -1 -1</clus>
<clus scale="   91.474">  5  6 -1 -1</clus>
<clus scale="  107.768">  1  7  2 -1</clus>
<clus scale="   22.696">  1  5  2 -1</clus>
</clustering>
</event>
<event>
10    2  0.1133532E-006  0.1383107E+03  0.7546771E-02  0.1219954E+00
          2   -1    0    0  503    0  0.00000000000E+00  0.00000000000E+00  0.53992362143E+03  0.53992362143E+03  0.00000000000E+00 0. -1.
         -2   -1    0    0    0  501 -0.00000000000E+00 -0.00000000000E+00 -0.44956979655E+03  0.44956979655E+03  0.00000000000E+00 0.  1.
         23    2    1    2    0    0  0.11647135008E+03  0.62045415786E+02  0.26429376975E+03  0.31243979247E+03  0.10174585090E+03 0.  0.
         23    2    1    2    0    0 -0.69749397848E+02  0.31762700879E+01  0.16210410815E+03  0.19573332655E+03  0.84609255116E+02 0.  0.
        -11    1    4    4    0    0 -0.22369391099E+01  0.34870631019E+02  0.46666733837E+02  0.58298789450E+02  0.00000000000E+00 0. -1.
         11    1    4    4    0    0 -0.67512458738E+02 -0.31694360931E+02  0.11543737432E+03  0.13743453710E+03  0.00000000000E+00 0.  1.
        -13    1    3    3    0    0  0.11310505178E+03  0.81829059481E+02  0.25411844485E+03  0.28993953115E+03  0.00000000000E+00 0. -1.
         13    1    3    3    0    0  0.33662982976E+01 -0.19783643695E+02  0.10175324906E+02  0.22500261310E+02  0.00000000000E+00 0.  1.
         21    1    1    2  502  501 -0.27769619860E+02 -0.47593357970E+02 -0.40444735441E+03  0.40818371109E+03  0.00000000000E+00 0.  1.
         21    1    1    2  503  502 -0.18952332370E+02 -0.17628327903E+02  0.68403301375E+02  0.73136587875E+02  0.00000000000E+00 0. -1.
<scales pt_clust_5="13000.00000" pt_clust_6="13000.00000" pt_clust_7="13000.00000" pt_clust_8="13000.00000" pt_clust_9="55.20112" pt_clust_10="25.88337"></scales>
<clustering>
<clus scale="   25.883">  1 10  2 -1</clus>
<clus scale="   55.201">  2  9  1 -1</clus>
<clus scale="   84.609">  5  6 -1 -1</clus>
<clus scale="  101.746">  7  8 -1 -1</clus>
<clus scale="  126.239">  1  5  2 -1</clus>
<clus scale="   25.883">  1  5  2 -1</clus>
</clustering>
</event>
<event>
10    2  0.1133532E-006  0.1801786E+03  0.7546771E-02  0.1168124E+00
         -2   -1    0    0    0  501 -0.00000000000E+00  0.00000000000E+00  0.20375353497E+03  0.20375353497E+03  0.00000000000E+00 0.  1.
          2   -1    0    0  503    0  0.00000000000E+00 -0.00000000000E+00 -0.68203043450E+03  0.68203043450E+03  0.00000000000E+00 0. -1.
         23    2    1    2    0    0 -0.25737914899E+00  0.12403241790E+03 -0.11744067489E+03  0.19298027661E+03  0.89805167500E+02 0.  0.
         23    2    1    2    0    0 -0.13364703730E+03 -0.16837191254E+03 -0.17553804502E+03  0.29294595020E+03  0.93771493400E+02 0.  0.
        -11    1    3    3    0    0 -0.38616330126E+02  0.51375281710E+02 -0.24124645088E+02  0.68648663671E+02  0.00000000000E+00 0. -1.
         11    1    3    3    0    0  0.38358950977E+02  0.72657136191E+02 -0.93316029798E+02  0.12433161294E+03  0.00000000000E+00 0.  1.
        -13    1    4    4    0    0 -0.31475708867E+02 -0.41957863148E+02  0.16767877192E+01  0.52478511276E+02  0.00000000000E+00 0.  1.
         13    1    4    4    0    0 -0.10217132843E+03 -0.12641404939E+03 -0.17721483274E+03  0.24046743892E+03  0.00000000000E+00 0. -1.
         21    1    1    2  502  501  0.19882166782E+02  0.13155163045E+02  0.93787291436E+02  0.96769907025E+02  0.00000000000E+00 0.  1.
         21    1    1    2  503  502  0.11402224967E+03  0.31184331594E+02 -0.27908547105E+03  0.30308783563E+03  0.00000000000E+00 0.  1.
<scales pt_clust_5="13000.00000" pt_clust_6="13000.00000" pt_clust_7="13000.00000" pt_clust_8="13000.00000" pt_clust_9="23.84028" pt_clust_10="120.71822"></scales>
<clustering>
<clus scale="   23.840">  1  9  2 -1</clus>
<clus scale="   89.805">  5  6 -1 -1</clus>
<clus scale="   93.771">  7  8 -1 -1</clus>
<clus scale="  120.718">  2 10  1 -1</clus>
<clus scale="  178.147">  1  5  2 -1</clus>
<clus scale="  120.718">  2  5  1 -1</clus>
</clustering>
</event>
<event>
10    2  0.1133532E-006  0.3488139E+03  0.7546771E-02  0.1063143E+00
         -2   -1    0    0    0  501 -0.00000000000E+00  0.00000000000E+00  0.23475691508E+03  0.23475691508E+03  0.00000000000E+00 0.  1.
          2   -1    0    0  503    0  0.00000000000E+00 -0.00000000000E+00 -0.73089803637E+03  0.73089803637E+03  0.00000000000E+00 0. -1.
         23    2    1    2    0    0 -0.19126152711E+03  0.26226745133E+03 -0.11806946614E+03  0.35778042932E+03  0.93280485585E+02 0.  0.
         23    2    1    2    0    0  0.22024616339E+03 -0.25359406657E+03 -0.36938342497E+03  0.50763139205E+03  0.91799741122E+02 0.  0.
        -13    1    4    4    0    0  0.95448472806E+02 -0.14062282702E+03 -0.24565218138E+03  0.29871421904E+03  0.00000000000E+00 0. -1.
         13    1    4    4    0    0  0.12479769058E+03 -0.11297123955E+03 -0.12373124359E+03  0.20891717302E+03  0.00000000000E+00 0.  1.
        -13    1    3    3    0    0 -0.17828449481E+03  0.21899972513E+03 -0.68236431052E+02  0.29052099962E+03  0.00000000000E+00 0. -1.
         13    1    3    3    0    0 -0.12977032303E+02  0.43267726196E+02 -0.49833035090E+02  0.67259429702E+02  0.00000000000E+00 0.  1.
         21    1    1    2  502  501 -0.49105715448E+02  0.71861919140E+00  0.28609032095E+02  0.56836294923E+02  0.00000000000E+00 0. -1.
         21    1    1    2  503  502  0.20121079167E+02 -0.93920039518E+01 -0.37297262274E+02  0.43406835155E+02  0.00000000000E+00 0.  1.
<scales pt_clust_5="13000.00000" pt_clust_6="13000.00000" pt_clust_7="13000.00000" pt_clust_8="13000.00000" pt_clust_9="48.69732" pt_clust_10="22.20512"></scales>
<clustering>
<clus scale="   22.205">  2 10  1 -1</clus>
<clus scale="   48.697">  1  9  2 -1</clus>
<clus scale="   91.800">  5  6 -1 -1</clus>
<clus scale="   93.280">  7  8 -1 -1</clus>
<clus scale="  348.421">  2  5  1 -1</clus>
<clus scale="   22.205">  2  5  1 -1</clus>
</clustering>
</event>
<event>
10    2  0.1133532E-006  0.1386243E+03  0.7546771E-02  0.1217557E+00
         -2   -1    0    0    0  501 -0.00000000000E+00  0.00000000000E+00  0.25244837527E+03  0.25244837527E+03  0.00000000000E+00 0.  1.
          2   -1    0    0  503    0  0.00000000000E+00 -0.00000000000E+00 -0.15841439074E+03  0.15841439074E+03  0.00000000000E+00 0. -1.
         23    2    1    2    0    0  0.35285604835E+02 -0.93416081395E+02  0.10866618198E+03  0.17760017766E+03  0.98802053764E+02 0.  0.
         23    2    1    2    0    0  0.11686239308E+02  0.10938027260E+03 -0.35206809243E+02  0.14585831987E+03  0.89075910523E+02 0.  0.
        -13    1    4    4    0    0  0.45487836099E+02  0.90103842745E+02 -0.35350449529E+02  0.10694624814E+03  0.00000000000E+00 0. -1.
         13    1    4    4    0    0 -0.33801596790E+02  0.19276429854E+02  0.14364028557E+00  0.38912071726E+02  0.00000000000E+00 0.  1.
        -13    1    3    3    0    0  0.97189940692E+01 -0.10703634921E+03  0.10134083302E+03  0.14772001670E+03  0.00000000000E+00 0.  1.
         13    1    3    3    0    0  0.25566610765E+02  0.13620267819E+02  0.73253489659E+01  0.29880160960E+02  0.00000000000E+00 0. -1.
         21    1    1    2  502  501 -0.27627945793E+02  0.27966318306E+01  0.43778864676E+02  0.51843162815E+02  0.00000000000E+00 0.  1.
         21    1    1    2  503  502 -0.19343898349E+02 -0.18760823035E+02 -0.23204252880E+02  0.35561105663E+02  0.00000000000E+00 0.  1.
<scales pt_clust_5="13000.00000" pt_clust_6="13000.00000" pt_clust_7="13000.00000" pt_clust_8="13000.00000" pt_clust_9="28.31882" pt_clust_10="26.94726"></scales>
<clustering>
<clus scale="   26.947">  2 10  1 -1</clus>
<clus scale="   28.319">  1  9  2 -1</clus>
<clus scale="   89.076">  5  6 -1 -1</clus>
<clus scale="   98.802">  7  8 -1 -1</clus>
<clus scale="  131.869">  2  5  1 -1</clus>
<clus scale="   26.947">  2  5  1 -1</clus>
</clustering>
</event>
<event>
10    2  0.1133532E-006  0.1115728E+03  0.7546771E-02  0.1258204E+00
          2   -1    0    0  503    0  0.00000000000E+00  0.00000000000E+00  0.12983475344E+03  0.12983475344E+03  0.00000000000E+00 0. -1.
         -2   -1    0    0    0  501 -0.00000000000E+00 -0.00000000000E+00 -0.29900734031E+03  0.29900734031E+03  0.00000000000E+00 0.  1.
         23    2    1    2    0    0  0.32450498762E+02 -0.69551219989E+02 -0.21496109498E+03  0.24499384198E+03  0.89012938286E+02 0.  0.
         23    2    1    2    0    0 -0.14629942814E+02  0.30837141799E+02  0.10412585721E+02  0.94575677561E+02  0.87585228798E+02 0.  0.
        -11    1    4    4    0    0 -0.43137638095E+02  0.38583476021E+02  0.23243309668E+02  0.62368196115E+02  0.00000000000E+00 0. -1.
         11    1    4    4    0    0  0.28507695281E+02 -0.77463342221E+01 -0.12830723947E+02  0.32207481446E+02  0.00000000000E+00 0.  1.
        -11    1    3    3    0    0  0.56589851167E+02 -0.32729745270E+02 -0.16967234954E+03  0.18183056310E+03  0.00000000000E+00 0.  1.
         11    1    3    3    0    0 -0.24139352405E+02 -0.36821474719E+02 -0.45288745440E+02  0.63163278877E+02  0.00000000000E+00 0. -1.
         21    1    1    2  502  501 -0.28247395468E+02  0.20331101015E+02 -0.12467630631E+02  0.36969052365E+02  0.00000000000E+00 0. -1.
         21    1    1    2  503  502  0.10426839521E+02  0.18382977175E+02  0.47843553017E+02  0.52303521846E+02  0.00000000000E+00 0. -1.
<scales pt_clust_5="13000.00000" pt_clust_6="13000.00000" pt_clust_7="13000.00000" pt_clust_8="13000.00000" pt_clust_9="35.30070" pt_clust_10="21.13416"></scales>
<clustering>
<clus scale="   21.134">  1 10  2 -1</clus>
<clus scale="   35.301">  1  9  2 -1</clus>
<clus scale="   87.585">  5  6 -1 -1</clus>
<clus scale="   89.013">  7  8 -1 -1</clus>
<clus scale="  110.437">  1  5  2 -1</clus>
<clus scale="   21.134">  1  5  2 -1</clus>
</clustering>
</event>
<event>
10    2  0.1133532E-006  0.1470950E+03  0.7546771E-02  0.1224433E+00
          1   -1    0    0  503    0  0.00000000000E+00  0.00000000000E+00  0.88525296806E+03  0.88525296806E+03  0.00000000000E+00 0. -1.
         -1   -1    0    0    0  501 -0.00000000000E+00 -0.00000000000E+00 -0.61474383657E+02  0.61474383657E+02  0.00000000000E+00 0.  1.
         23    2    1    2    0    0 -0.30967473398E+01 -0.19404255630E+02  0.11685487031E+03  0.14978028129E+03  0.91613082937E+02 0.  0.
         23    2    1    2    0    0  0.75553995130E+02 -0.65288307681E+02  0.10310037492E+03  0.16972789447E+03  0.90591950820E+02 0.  0.
        -11    1    3    3    0    0  0.25413453199E+02 -0.18274748514E+02  0.11713608491E+03  0.12124632953E+03  0.00000000000E+00 0.  1.
         11    1    3    3    0    0 -0.28510200539E+02 -0.11295071165E+01 -0.28121459591E+00  0.28533951755E+02  0.00000000000E+00 0. -1.
        -11    1    4    4    0    0  0.51362015355E+02 -0.20375175250E+02  0.62793838394E+00  0.55259376529E+02  0.00000000000E+00 0.  1.
         11    1    4    4    0    0  0.24191979775E+02 -0.44913132430E+02  0.10247243654E+03  0.11446851795E+03  0.00000000000E+00 0. -1.
         21    1    1    2  502  501 -0.17545024134E+02 -0.22070533546E+02  0.30808881818E+02  0.41762704914E+02  0.00000000000E+00 0.  1.
         21    1    1    2  503  502 -0.54912223656E+02  0.10676309686E+03  0.57301445735E+03  0.58545647105E+03  0.00000000000E+00 0. -1.
<scales pt_clust_5="13000.00000" pt_clust_6="13000.00000" pt_clust_7="13000.00000" pt_clust_8="13000.00000" pt_clust_9="28.19462" pt_clust_10="115.88806"></scales>
<clustering>
<clus scale="   28.195">  2  9  1 -1</clus>
<clus scale="   90.592">  7  8 -1 -1</clus>
<clus scale="   91.613">  5  6 -1 -1</clus>
<clus scale="   95.559">  2  5  1 -1</clus>
<clus scale="  115.888">  1 10  2 -1</clus>
<clus scale="  115.888">  1  5  2 -1</clus>
</clustering>
</event>
<event>
10    2  0.1133532E-006  0.1150903E+03  0.7546771E-02  0.1251573E+00
          1   -1    0    0  503    0  0.00000000000E+00  0.00000000000E+00  0.42299962707E+03  0.42299962707E+03  0.00000000000E+00 0. -1.
         -1   -1    0    0    0  501 -0.00000000000E+00 -0.00000000000E+00 -0.17838475396E+03  0.17838475396E+03  0.00000000000E+00 0.  1.
         23    2    1    2    0    0 -0.42934594329E+02 -0.15275427382E+02 -0.55320987260E+01  0.10177118468E+03  0.90829796011E+02 0.  0.
         23    2    1    2    0    0  0.73770839620E+02  0.15577570354E+02  0.33874835793E+03  0.35861751261E+03  0.90395093200E+02 0.  0.
        -11    1    4    4    0    0  0.24574599309E+02 -0.31463999227E+02  0.62940920206E+02  0.74534915409E+02  0.00000000000E+00 0.  1.
         11    1    4    4    0    0  0.49196240310E+02  0.47041569581E+02  0.27580743773E+03  0.28408259721E+03  0.00000000000E+00 0. -1.
        -13    1    3    3    0    0  0.26508251615E+02  0.76577314945E+01  0.44930003162E+01  0.27955595275E+02  0.00000000000E+00 0. -1.
         13    1    3    3    0    0 -0.69442845944E+02 -0.22933158876E+02 -0.10025099042E+02  0.73815589408E+02  0.00000000000E+00 0.  1.
         21    1    1    2  502  501 -0.13138515802E+02 -0.16984510581E+02 -0.10785770871E+03  0.10997444942E+03  0.00000000000E+00 0.  1.
         21    1    1    2  503  502 -0.17697729488E+02  0.16682367608E+02  0.19256322610E+02  0.31021234317E+02  0.00000000000E+00 0. -1.
<scales pt_clust_5="13000.00000" pt_clust_6="13000.00000" pt_clust_7="13000.00000" pt_clust_8="13000.00000" pt_clust_9="21.47310" pt_clust_10="24.21179"></scales>
<clustering>
<clus scale="   21.473">  2  9  1 -1</clus>
<clus scale="   24.212">  2 10  1 -1</clus>
<clus scale="   90.395">  5  6 -1 -1</clus>
<clus scale="   90.830">  7  8 -1 -1</clus>
<clus scale="  114.747">  1  5  2 -1</clus>
<clus scale="  114.747">  1  5  2 -1</clus>
</clustering>
</event>
<event>
10    2  0.1133532E-006  0.1737688E+03  0.7546771E-02  0.1174264E+00
          2   -1    0    0  503    0  0.00000000000E+00  0.00000000000E+00  0.33648482183E+03  0.33648482183E+03  0.00000000000E+00 0. -1.
         -2   -1    0    0    0  501 -0.00000000000E+00 -0.00000000000E+00 -0.18208644033E+03  0.18208644033E+03  0.00000000000E+00 0.  1.
         23    2    1    2    0    0 -0.92816979617E+02  0.12100039562E+03  0.37769403533E+02  0.18118083307E+03  0.90243442891E+02 0.  0.
         23    2    1    2    0    0  0.27259204488E+02 -0.15069011547E+03  0.14380772709E+03  0.22950054427E+03  0.92408129060E+02 0.  0.
        -11    1    3    3    0    0 -0.94510145005E+02  0.71880512834E+02  0.52563692468E+02  0.12985344585E+03  0.00000000000E+00 0. -1.
         11    1    3    3    0    0  0.16931653872E+01  0.49119882783E+02 -0.14794288936E+02  0.51327387219E+02  0.00000000000E+00 0.  1.
        -11    1    4    4    0    0  0.61564365744E+02 -0.10393589498E+03  0.94215443738E+02  0.15319722985E+03  0.00000000000E+00 0.  1.
         11    1    4    4    0    0 -0.34305161256E+02 -0.46754220492E+02  0.49592283354E+02  0.76303314416E+02  0.00000000000E+00 0. -1.
         21    1    1    2  502  501  0.42875164911E+02  0.13255713022E+02 -0.53239708655E+02  0.69630885902E+02  0.00000000000E+00 0. -1.
         21    1    1    2  503  502  0.22682610218E+02  0.16434006835E+02  0.26060959522E+02  0.38258998918E+02  0.00000000000E+00 0. -1.
<scales pt_clust_5="13000.00000" pt_clust_6="13000.00000" pt_clust_7="13000.00000" pt_clust_8="13000.00000" pt_clust_9="45.59251" pt_clust_10="28.01031"></scales>
<clustering>
<clus scale="   28.010">  1 10  2 -1</clus>
<clus scale="   45.593">  2  9  1 -1</clus>
<clus scale="   90.243">  5  6 -1 -1</clus>
<clus scale="   92.408">  7  8 -1 -1</clus>
<clus scale="  172.627">  2  5  1 -1</clus>
<clus scale="   28.010">  1  5  2 -1</clus>
</clustering>
</event>
<event>
10    2  0.1133532E-006  0.1248107E+03  0.7546771E-02  0.1236891E+00
          3   -1    0    0  503    0  0.00000000000E+00  0.00000000000E+00  0.81603699528E+02  0.81603699528E+02  0.00000000000E+00 0. -1.
         -3   -1    0    0    0  501 -0.00000000000E+00 -0.00000000000E+00 -0.60354019613E+03  0.60354019613E+03  0.00000000000E+00 0.  1.
         23    2    1    2    0    0  0.89335661089E+02 -0.49147075913E+02 -0.31462250550E+03  0.34447658434E+03  0.96335355830E+02 0.  0.
         23    2    1    2    0    0 -0.36664514575E+02  0.66394785783E+02 -0.81445461311E+02  0.14395930129E+03  0.91314637671E+02 0.  0.
        -13    1    4    4    0    0  0.88083936219E+01 -0.19086174865E+02 -0.82470398442E+01  0.22580600863E+02  0.00000000000E+00 0.  1.
         13    1    4    4    0    0 -0.45472908197E+02  0.85480960648E+02 -0.73198421467E+02  0.12137870043E+03  0.00000000000E+00 0. -1.
        -13    1    3    3    0    0  0.29676170801E+02 -0.64574995885E+02 -0.11158997482E+03  0.13229863071E+03  0.00000000000E+00 0. -1.
         13    1    3    3    0    0  0.59659490287E+02  0.15427919971E+02 -0.20303253068E+03  0.21217795363E+03  0.00000000000E+00 0.  1.
         21    1    1    2  502  501 -0.37404219254E+02 -0.19709906390E+01 -0.15555240881E+03  0.15999847595E+03  0.00000000000E+00 0.  1.
         21    1    1    2  503  502 -0.15266927259E+02 -0.15276719231E+02  0.29683879010E+02  0.36709534068E+02  0.00000000000E+00 0. -1.
<scales pt_clust_5="13000.00000" pt_clust_6="13000.00000" pt_clust_7="13000.00000" pt_clust_8="13000.00000" pt_clust_9="38.19894" pt_clust_10="21.59762"></scales>
<clustering>
<clus scale="   21.598">  1 10  2 -1</clus>
<clus scale="   38.199">  2  9  1 -1</clus>
<clus scale="   91.315">  5  6 -1 -1</clus>
<clus scale="   96.335">  7  8 -1 -1</clus>
<clus scale="  120.978">  1  5  2 -1</clus>
<clus scale="   21.598">  1  5  2 -1</clus>
</clustering>
</event>
<event>
10    2  0.1133532E-006  0.1487827E+03  0.7546771E-02  0.1217169E+00
         -1   -1    0    0    0  501 -0.00000000000E+00  0.00000000000E+00  0.82278246837E+02  0.82278246837E+02  0.00000000000E+00 0.  1.
          1   -1    0    0  503    0  0.00000000000E+00 -0.00000000000E+00 -0.11441915387E+04  0.11441915387E+04  0.00000000000E+00 0. -1.
         23    2    1    2    0    0  0.25815700814E+02  0.55104895897E+02 -0.39747371052E+02  0.11565731161E+03  0.89965328114E+02 0.  0.
         23    2    1    2    0    0  0.12450075991E+03 -0.43867312530E+02 -0.54416087650E+03  0.56703464208E+03  0.89400478058E+02 0.  0.
        -11    1    4    4    0    0  0.96595962317E+02 -0.69968632957E+02 -0.44674754761E+03  0.46239567562E+03  0.00000000000E+00 0. -1.
         11    1    4    4    0    0  0.27904797593E+02  0.26101320426E+02 -0.97413328892E+02  0.10463896646E+03  0.00000000000E+00 0.  1.
        -13    1    3    3    0    0 -0.32507005589E+02  0.25697948586E+02 -0.25969493409E+02  0.48903011787E+02  0.00000000000E+00 0. -1.
         13    1    3    3    0    0  0.58322706403E+02  0.29406947310E+02 -0.13777877643E+02  0.66754299821E+02  0.00000000000E+00 0.  1.
         21    1    1    2  502  501 -0.34937214300E+02  0.55729559598E+01  0.14072593844E+02  0.38074987573E+02  0.00000000000E+00 0. -1.
         21    1    1    2  503  502 -0.11537924642E+03 -0.16810539326E+02 -0.49207763816E+03  0.50570284428E+03  0.00000000000E+00 0. -1.
<scales pt_clust_5="13000.00000" pt_clust_6="13000.00000" pt_clust_7="13000.00000" pt_clust_8="13000.00000" pt_clust_9="35.37890" pt_clust_10="118.92785"></scales>
<clustering>
<clus scale="   35.379">  1  9  2 -1</clus>
<clus scale="   89.400">  5  6 -1 -1</clus>
<clus scale="   89.965">  7  8 -1 -1</clus>
<clus scale="  107.537">  1  7  2 -1</clus>
<clus scale="  118.928">  2 10  1 -1</clus>
<clus scale="  118.928">  2  5  1 -1</clus>
</clustering>
</event>
<event>
10    2  0.1133532E-006  0.2516323E+03  0.7546771E-02  0.1112340E+00
          1   -1    0    0  503    0  0.00000000000E+00  0.00000000000E+00  0.57046590919E+03  0.57046590919E+03  0.00000000000E+00 0. -1.
         -1   -1    0    0    0  501 -0.00000000000E+00 -0.00000000000E+00 -0.27370492797E+03  0.27370492797E+03  0.00000000000E+00 0.  1.
         23    2    1    2    0    0 -0.26948131344E+03 -0.64458918332E+01  0.16314680024E+03  0.32862083619E+03  0.93343707512E+02 0.  0.
         23    2    1    2    0    0  0.20145439890E+03  0.80108384263E+01  0.21823035602E+03  0.31110593211E+03  0.92273313220E+02 0.  0.
        -11    1    3    3    0    0 -0.16207915672E+02 -0.23695986992E+02  0.39649676215E+01  0.28981326716E+02  0.00000000000E+00 0. -1.
         11    1    3    3    0    0 -0.25327339777E+03  0.17250095159E+02  0.15918183261E+03  0.29963950947E+03  0.00000000000E+00 0.  1.
        -11    1    4    4    0    0  0.87007549751E+02  0.21915096187E+02  0.38631585248E+02  0.97688200584E+02  0.00000000000E+00 0.  1.
         11    1    4    4    0    0  0.11444684915E+03 -0.13904257761E+02  0.17959877078E+03  0.21341773152E+03  0.00000000000E+00 0. -1.
         21    1    1    2  502  501  0.34029344354E+02 -0.47316993820E+01 -0.13737174109E+03  0.14160289724E+03  0.00000000000E+00 0.  1.
         21    1    1    2  503  502  0.33997570187E+02  0.31667527888E+01  0.52755566055E+02  0.62841171629E+02  0.00000000000E+00 0. -1.
<scales pt_clust_5="13000.00000" pt_clust_6="13000.00000" pt_clust_7="13000.00000" pt_clust_8="13000.00000" pt_clust_9="34.49391" pt_clust_10="34.14474"></scales>
<clustering>
<clus scale="   34.145">  1 10  2 -1</clus>
<clus scale="   34.494">  2  9  1 -1</clus>
<clus scale="   92.273">  7  8 -1 -1</clus>
<clus scale="   93.344">  5  6 -1 -1</clus>
<clus scale="  251.237">  1  7  2 -1</clus>
<clus scale="   34.145">  1  5  2 -1</clus>
</clustering>
</event>
<event>
10    2  0.1133532E-006  0.1510519E+03  0.7546771E-02  0.1199440E+00
         -1   -1    0    0    0  501 -0.00000000000E+00  0.00000000000E+00  0.22275687557E+03  0.22275687557E+03  0.00000000000E+00 0.  1.
          1   -1    0    0  503    0  0.00000000000E+00 -0.00000000000E+00 -0.55257075990E+03  0.55257075990E+03  0.00000000000E+00 0. -1.
         23    2    1    2    0    0 -0.85611859438E+02 -0.44918327233E+02  0.15657571081E+03  0.20545899219E+03  0.91380510285E+02 0.  0.
         23    2    1    2    0    0  0.12668206524E+03  0.44218461610E+02 -0.43229964366E+03  0.46204730690E+03  0.92742190516E+02 0.  0.
        -11    1    4    4    0    0  0.17608012657E+02 -0.25139623042E+02 -0.12411130960E+03  0.12785014637E+03  0.00000000000E+00 0.  1.
         11    1    4    4    0    0  0.10907405258E+03  0.69358084652E+02 -0.30818833407E+03  0.33419716053E+03  0.00000000000E+00 0. -1.
        -11    1    3    3    0    0 -0.35266184102E+02 -0.30303863460E+02  0.70744873299E+01  0.47032714707E+02  0.00000000000E+00 0. -1.
         11    1    3    3    0    0 -0.50345675335E+02 -0.14614463772E+02  0.14950122348E+03  0.15842627749E+03  0.00000000000E+00 0.  1.
         21    1    1    2  502  501 -0.20677471735E+02 -0.11298825546E+02  0.19459545102E+02  0.30559698815E+02  0.00000000000E+00 0.  1.
         21    1    1    2  503  502 -0.20392734064E+02  0.11998691168E+02 -0.73549496580E+02  0.77261637567E+02  0.00000000000E+00 0. -1.
<scales pt_clust_5="13000.00000" pt_clust_6="13000.00000" pt_clust_7="13000.00000" pt_clust_8="13000.00000" pt_clust_9="23.56313" pt_clust_10="23.77502"></scales>
<clustering>
<clus scale="   23.563">  1  9  2 -1</clus>
<clus scale="   23.775">  2 10  1 -1</clus>
<clus scale="   91.381">  7  8 -1 -1</clus>
<clus scale="   92.742">  5  6 -1 -1</clus>
<clus scale="  150.220">  1  7  2 -1</clus>
<clus scale="   23.775">  2  5  1 -1</clus>
</clustering>
</event>
<event>
10    2  0.1133532E-006  0.9253657E+02  0.7546771E-02  0.1297405E+00
         -1   -1    0    0    0  501 -0.00000000000E+00  0.00000000000E+00  0.19792466043E+03  0.19792466043E+03  0.00000000000E+00 0.  1.
          1   -1    0    0  502    0  0.00000000000E+00 -0.00000000000E+00 -0.10261826130E+03  0.10261826130E+03  0.00000000000E+00 0. -1.
         23    2    1    2    0    0 -0.29775027808E+02  0.35761340695E+02  0.26150299299E+02  0.10247383086E+03  0.87473550790E+02 0.  0.
         23    2    1    2    0    0  0.30738373886E+01 -0.10700747836E+02  0.18257443297E+02  0.91057607702E+02  0.88511011767E+02 0.  0.
        -11    1    3    3    0    0 -0.40652628661E+02  0.99373291108E+01  0.50334328573E+02  0.65459387102E+02  0.00000000000E+00 0.  1.
         11    1    3    3    0    0  0.10877600852E+02  0.25824011584E+02 -0.24184029274E+02  0.37014443755E+02  0.00000000000E+00 0. -1.
        -11    1    4    4    0    0 -0.15799823519E+02  0.17369978718E+02 -0.26208195311E+02  0.35188351557E+02  0.00000000000E+00 0.  1.
         11    1    4    4    0    0  0.18873660907E+02 -0.28070726554E+02  0.44465638608E+02  0.55869256144E+02  0.00000000000E+00 0. -1.
         21    1    1    2  502  503  0.26163404786E+02 -0.56316799179E+02  0.27250961125E+02  0.67813866590E+02  0.00000000000E+00 0. -1.
         21    1    1    2  503  501  0.53778563391E+00  0.31256206320E+02  0.23647695413E+02  0.39197616576E+02  0.00000000000E+00 0.  1.
<scales pt_clust_5="13000.00000" pt_clust_6="13000.00000" pt_clust_7="13000.00000" pt_clust_8="13000.00000" pt_clust_9="54.21034" pt_clust_10="31.26083"></scales>
<clustering>
<clus scale="   31.261">  1 10  2 -1</clus>
<clus scale="   54.210">  1  9  2 -1</clus>
<clus scale="   87.474">  5  6 -1 -1</clus>
<clus scale="   88.511">  7  8 -1 -1</clus>
<clus scale="   91.545">  1  5  2 -1</clus>
<clus scale="   92.537">  2  5  1 -1</clus>
</clustering>
</event>
<event>
10    2  0.1133532E-006  0.4193175E+03  0.7546771E-02  0.1037304E+00
         -1   -1    0    0    0  501 -0.00000000000E+00  0.00000000000E+00  0.18074254743E+03  0.18074254743E+03  0.00000000000E+00 0.  1.
          1   -1    0    0  503    0  0.00000000000E+00 -0.00000000000E+00 -0.14041545431E+04  0.14041545431E+04  0.00000000000E+00 0. -1.
         23    2    1    2    0    0  0.13724437063E+03  0.37606570187E+03 -0.40899975399E+03  0.57937619170E+03  0.90191703334E+02 0.  0.
         23    2    1    2    0    0 -0.12222144466E+03 -0.40626307847E+03 -0.60470522399E+03  0.74427950481E+03  0.91081298243E+02 0.  0.
        -13    1    3    3    0    0  0.36635563165E+01  0.71097006634E+02 -0.11476262074E+03  0.13505060205E+03  0.00000000000E+00 0. -1.
         13    1    3    3    0    0  0.13358081431E+03  0.30496869524E+03 -0.29423713326E+03  0.44432558965E+03  0.00000000000E+00 0.  1.
        -13    1    4    4    0    0 -0.84660697604E+02 -0.30879362186E+03 -0.51585308249E+03  0.60714523578E+03  0.00000000000E+00 0. -1.
         13    1    4    4    0    0 -0.37560747052E+02 -0.97469456612E+02 -0.88852141505E+02  0.13713426903E+03  0.00000000000E+00 0.  1.
         21    1    1    2  502  501  0.30614396134E+02 -0.17534082870E+02  0.58799997664E+01  0.35766740276E+02  0.00000000000E+00 0.  1.
         21    1    1    2  503  502 -0.45637322103E+02  0.47731459470E+02 -0.21558701747E+03  0.22547465377E+03  0.00000000000E+00 0. -1.
<scales pt_clust_5="13000.00000" pt_clust_6="13000.00000" pt_clust_7="13000.00000" pt_clust_8="13000.00000" pt_clust_9="35.28010" pt_clust_10="64.99320"></scales>
<clustering>
<clus scale="   35.280">  1  9  2 -1</clus>
<clus scale="   64.993">  2 10  1 -1</clus>
<clus scale="   90.192">  5  6 -1 -1</clus>
<clus scale="   91.081">  7  8 -1 -1</clus>
<clus scale="  419.125">  1  5  2 -1</clus>
<clus scale="   64.993">  2  5  1 -1</clus>
</clustering>
</event>
<event>
10    2  0.1133532E-006  0.1448868E+03  0.7546771E-02  0.1207229E+00
         -1   -1    0    0    0  501 -0.00000000000E+00  0.00000000000E+00  0.24150807783E+03  0.24150807783E+03  0.00000000000E+00 0.  1.
          1   -1    0    0  503    0  0.00000000000E+00 -0.00000000000E+00 -0.76465619354E+03  0.76465619354E+03  0.00000000000E+00 0. -1.
         23    2    1    2    0    0 -0.12527875925E+03  0.87838363626E+02 -0.34037589523E+03  0.38393475180E+03  0.90220828792E+02 0.  0.
         23    2    1    2    0    0  0.61168183959E+01 -0.98423714276E+02 -0.17637340533E+03  0.22063236060E+03  0.88580005850E+02 0.  0.
        -11    1    4    4    0    0 -0.19112420305E+02 -0.27261862164E+02 -0.53986132621E+01  0.33728901016E+02  0.00000000000E+00 0. -1.
         11    1    4    4    0    0  0.25229238701E+02 -0.71161852112E+02 -0.17097479207E+03  0.18690345958E+03  0.00000000000E+00 0.  1.
        -11    1    3    3    0    0 -0.31044322869E+02  0.32667419042E+02 -0.20556658959E+03  0.21044840937E+03  0.00000000000E+00 0. -1.
         11    1    3    3    0    0 -0.94234436379E+02  0.55170944584E+02 -0.13480930564E+03  0.17348634244E+03  0.00000000000E+00 0.  1.
         21    1    1    2  502  501  0.11046077724E+03 -0.29757064291E+02  0.17857479036E+03  0.21207550999E+03  0.00000000000E+00 0.  1.
         21    1    1    2  503  502  0.87011636089E+01  0.40342414942E+02 -0.18497360552E+03  0.18952164897E+03  0.00000000000E+00 0. -1.
<scales pt_clust_5="13000.00000" pt_clust_6="13000.00000" pt_clust_7="13000.00000" pt_clust_8="13000.00000" pt_clust_9="114.34428" pt_clust_10="41.27009"></scales>
<clustering>
<clus scale="   41.270">  2 10  1 -1</clus>
<clus scale="   88.580">  5  6 -1 -1</clus>
<clus scale="   90.221">  7  8 -1 -1</clus>
<clus scale="  114.344">  1  9  2 -1</clus>
<clus scale="  143.871">  2  5  1 -1</clus>
<clus scale="   41.270">  2  5  1 -1</clus>
</clustering>
</event>
<event>
10    2  0.1133532E-006  0.2370714E+03  0.7546771E-02  0.1121898E+00
         -2   -1    0    0    0  501 -0.00000000000E+00  0.00000000000E+00  0.10865191997E+03  0.10865191997E+03  0.00000000000E+00 0.  1.
          2   -1    0    0  503    0  0.00000000000E+00 -0.00000000000E+00 -0.12381412489E+04  0.12381412489E+04  0.00000000000E+00 0. -1.
         23    2    1    2    0    0  0.19808969969E+03 -0.98328303549E+02 -0.85136046432E+02  0.25470070950E+03  0.93361237231E+02 0.  0.
         23    2    1    2    0    0 -0.13819358205E+03  0.67226220693E+02 -0.72073320721E+03  0.74256514840E+03  0.91267807984E+02 0.  0.
        -11    1    4    4    0    0 -0.11472159220E+03  0.88384420576E+02 -0.53958722768E+03  0.55868347550E+03  0.00000000000E+00 0.  1.
         11    1    4    4    0    0 -0.23471989848E+02 -0.21158199883E+02 -0.18114597952E+03  0.18388167289E+03  0.00000000000E+00 0. -1.
        -13    1    3    3    0    0  0.56177771140E+02 -0.70584432505E+02 -0.58911195442E+02  0.10774336653E+03  0.00000000000E+00 0. -1.
         13    1    3    3    0    0  0.14191192855E+03 -0.27743871045E+02 -0.26224850990E+02  0.14695734297E+03  0.00000000000E+00 0.  1.
         21    1    1    2  502  501  0.11539834288E+02 -0.17999253032E+02 -0.90237409569E+01  0.23207084823E+02  0.00000000000E+00 0.  1.
         21    1    1    2  503  502 -0.71435951925E+02  0.49101335889E+02 -0.31459633438E+03  0.32632022619E+03  0.00000000000E+00 0.  1.
<scales pt_clust_5="13000.00000" pt_clust_6="13000.00000" pt_clust_7="13000.00000" pt_clust_8="13000.00000" pt_clust_9="21.38085" pt_clust_10="85.54750"></scales>
<clustering>
<clus scale="   21.381">  1  9  2 -1</clus>
<clus scale="   85.547">  2 10  1 -1</clus>
<clus scale="   91.268">  5  6 -1 -1</clus>
<clus scale="   93.361">  7  8 -1 -1</clus>
<clus scale="  236.255">  2  5  1 -1</clus>
<clus scale="   85.547">  2  5  1 -1</clus>
</clustering>
</event>
<event>
10    2  0.1133532E-006  0.9405330E+02  0.7546771E-02  0.1294683E+00
          2   -1    0    0  503    0  0.00000000000E+00  0.00000000000E+00  0.28514325593E+03  0.28514325593E+03  0.00000000000E+00 0. -1.
         -2   -1    0    0    0  501 -0.00000000000E+00 -0.00000000000E+00 -0.22114186236E+03  0.22114186236E+03  0.00000000000E+00 0.  1.
         23    2    1    2    0    0  0.11105782077E+02 -0.23223576655E+02 -0.14383130603E+03  0.17247399058E+03  0.91636018715E+02 0.  0.
         23    2    1    2    0    0  0.15482280853E+02  0.12896437505E+02 -0.35838884778E+01  0.91538581256E+02  0.89221345434E+02 0.  0.
        -11    1    4    4    0    0 -0.26463796214E+02 -0.10322081405E+02 -0.26095835796E+02  0.38572924707E+02  0.00000000000E+00 0. -1.
         11    1    4    4    0    0  0.41946077067E+02  0.23218518910E+02  0.22511947318E+02  0.52965656549E+02  0.00000000000E+00 0.  1.
        -13    1    3    3    0    0  0.30272973414E+02 -0.47403540800E+02 -0.12298594822E+03  0.13523716967E+03  0.00000000000E+00 0.  1.
         13    1    3    3    0    0 -0.19167191337E+02  0.24179964145E+02 -0.20845357805E+02  0.37236820915E+02  0.00000000000E+00 0. -1.
         21    1    1    2  502  501 -0.43298041976E+02  0.48854647672E+02  0.17467021464E+03  0.18647032182E+03  0.00000000000E+00 0. -1.
         21    1    1    2  503  502  0.16709979045E+02 -0.38527508521E+02  0.36746373430E+02  0.55802224622E+02  0.00000000000E+00 0.  1.
<scales pt_clust_5="13000.00000" pt_clust_6="13000.00000" pt_clust_7="13000.00000" pt_clust_8="13000.00000" pt_clust_9="36.46512" pt_clust_10="41.99515"></scales>
<clustering>
<clus scale="   41.995">  1 10  2 -1</clus>
<clus scale="   36.465">  1  9  2 -1</clus>
<clus scale="   89.221">  5  6 -1 -1</clus>
<clus scale="   91.636">  7  8 -1 -1</clus>
<clus scale="   91.702">  1  5  2 -1</clus>
<clus scale="   41.995">  1  5  2 -1</clus>
</clustering>
</event>
<event>
10    2  0.1133532E-006  0.1116892E+03  0.7546771E-02  0.1258121E+00
          2   -1    0    0  503    0  0.00000000000E+00  0.00000000000E+00  0.64710707609E+03  0.64710707609E+03  0.00000000000E+00 0. -1.
         -2   -1    0    0    0  501 -0.00000000000E+00 -0.00000000000E+00 -0.22165915304E+03  0.22165915304E+03  0.00000000000E+00 0.  1.
         23    2    1    2    0    0  0.57697529746E+02  0.13915328645E+00  0.62455321611E+02  0.12511934328E+03  0.91788662492E+02 0.  0.
         23    2    1    2    0    0 -0.16638903915E+02  0.51231806388E+02  0.20232169504E+03  0.22929387146E+03  0.93488288561E+02 0.  0.
        -11    1    3    3    0    0  0.22379304772E+02 -0.41752497308E+02  0.83259746515E+01  0.48098089021E+02  0.00000000000E+00 0.  1.
         11    1    3    3    0    0  0.35318224974E+02  0.41891650595E+02  0.54129346959E+02  0.77021254256E+02  0.00000000000E+00 0. -1.
        -13    1    4    4    0    0 -0.35060440468E+01  0.72984562684E+02  0.99917430709E+02  0.12378421424E+03  0.00000000000E+00 0.  1.
         13    1    4    4    0    0 -0.13132859868E+02 -0.21752756297E+02  0.10240426433E+03  0.10550965722E+03  0.00000000000E+00 0. -1.
         21    1    1    2  502  501  0.62798966553E+02 -0.20798363809E+02 -0.16147547016E+03  0.17450103037E+03  0.00000000000E+00 0.  1.
         21    1    1    2  503  502 -0.10385759238E+03 -0.30572595865E+02  0.32214637656E+03  0.33985198403E+03  0.00000000000E+00 0. -1.
<scales pt_clust_5="13000.00000" pt_clust_6="13000.00000" pt_clust_7="13000.00000" pt_clust_8="13000.00000" pt_clust_9="66.15347" pt_clust_10="99.49025"></scales>
<clustering>
<clus scale="   66.153">  2  9  1 -1</clus>
<clus scale="   91.789">  5  6 -1 -1</clus>
<clus scale="   93.488">  7  8 -1 -1</clus>
<clus scale="   99.490">  1 10  2 -1</clus>
<clus scale="  110.271">  2  5  1 -1</clus>
<clus scale="   99.490">  1  5  2 -1</clus>
</clustering>
</event>
<event>
10    2  0.1133532E-006  0.1670714E+03  0.7546771E-02  0.1182936E+00
         -1   -1    0    0    0  501 -0.00000000000E+00  0.00000000000E+00  0.28452379391E+03  0.28452379391E+03  0.00000000000E+00 0.  1.
          1   -1    0    0  503    0  0.00000000000E+00 -0.00000000000E+00 -0.49417764210E+03  0.49417764210E+03  0.00000000000E+00 0. -1.
         23    2    1    2    0    0 -0.66479645548E+02 -0.34108645103E+02  0.11743355236E+03  0.16632605956E+03  0.91053698043E+02 0.  0.
         23    2    1    2    0    0  0.15197782499E+03  0.15864348817E+02 -0.29147814794E+03  0.34495136050E+03  0.10335856778E+03 0.  0.
        -11    1    3    3    0    0 -0.20606212539E+02 -0.57848253341E+02  0.86625673998E+02  0.10618400918E+03  0.00000000000E+00 0.  1.
         11    1    3    3    0    0 -0.45873433008E+02  0.23739608237E+02  0.30807878359E+02  0.60142050382E+02  0.00000000000E+00 0. -1.
        -13    1    4    4    0    0  0.14944000630E+03  0.42688320286E+02 -0.22737646968E+03  0.27541726005E+03  0.00000000000E+00 0. -1.
         13    1    4    4    0    0  0.25378186872E+01 -0.26823971469E+02 -0.64101678262E+02  0.69534100448E+02  0.00000000000E+00 0.  1.
         21    1    1    2  502  501 -0.51797982832E+02 -0.55840813172E+02  0.89904888162E+02  0.11783088032E+03  0.00000000000E+00 0.  1.
         21    1    1    2  503  502 -0.33700196608E+02  0.74085109458E+02 -0.12551414077E+03  0.14959313563E+03  0.00000000000E+00 0. -1.
<scales pt_clust_5="13000.00000" pt_clust_6="13000.00000" pt_clust_7="13000.00000" pt_clust_8="13000.00000" pt_clust_9="76.16579" pt_clust_10="79.56968"></scales>
<clustering>
<clus scale="   76.166">  1  9  2 -1</clus>
<clus scale="   79.570">  2 10  1 -1</clus>
<clus scale="   91.054">  5  6 -1 -1</clus>
<clus scale="  103.359">  7  8 -1 -1</clus>
<clus scale="  159.752">  1  5  2 -1</clus>
<clus scale="   79.570">  2  5  1 -1</clus>
</clustering>
</event>
<event>
10    2  0.1133532E-006  0.1799639E+03  0.7546771E-02  0.1168119E+00
         -2   -1    0    0    0  501 -0.00000000000E+00  0.00000000000E+00  0.22485015102E+03  0.22485015102E+03  0.00000000000E+00 0.  1.
          2   -1    0    0  503    0  0.00000000000E+00 -0.00000000000E+00 -0.48970816362E+03  0.48970816362E+03  0.00000000000E+00 0. -1.
         23    2    1    2    0    0  0.12915938525E+03 -0.76930126922E+02  0.97447047059E+02  0.20175378495E+03  0.92780771379E+02 0.  0.
         23    2    1    2    0    0 -0.11867797657E+03  0.99601952136E+02 -0.39179930244E+03  0.43093416301E+03  0.90512697824E+02 0.  0.
        -11    1    3    3    0    0  0.64913296681E+02 -0.88888056475E+02  0.49413937861E+02  0.12065056952E+03  0.00000000000E+00 0. -1.
         11    1    3    3    0    0  0.64246088564E+02  0.11957929553E+02  0.48033109198E+02  0.81103215437E+02  0.00000000000E+00 0.  1.
        -13    1    4    4    0    0 -0.84672376556E+02  0.14559915763E+02 -0.15824794975E+03  0.18006614368E+03  0.00000000000E+00 0.  1.
         13    1    4    4    0    0 -0.34005600018E+02  0.85042036373E+02 -0.23355135268E+03  0.25086801933E+03  0.00000000000E+00 0. -1.
         21    1    1    2  502  501  0.31545901045E+01  0.21911265742E+02  0.27367707507E+02  0.35200091183E+02  0.00000000000E+00 0.  1.
         21    1    1    2  503  502 -0.13635998776E+02 -0.44583090956E+02  0.21265352697E+01  0.46670275487E+02  0.00000000000E+00 0. -1.
<scales pt_clust_5="13000.00000" pt_clust_6="13000.00000" pt_clust_7="13000.00000" pt_clust_8="13000.00000" pt_clust_9="22.13719" pt_clust_10="43.86652"></scales>
<clustering>
<clus scale="   22.137">  1  9  2 -1</clus>
<clus scale="   43.867">  1 10  2 -1</clus>
<clus scale="   90.513">  7  8 -1 -1</clus>
<clus scale="   92.781">  5  6 -1 -1</clus>
<clus scale="  178.805">  2  7  1 -1</clus>
<clus scale="  178.805">  2  5  1 -1</clus>
</clustering>
</event>
<event>
10    2  0.1133532E-006  0.1165586E+03  0.7546771E-02  0.1249805E+00
         -2   -1    0    0    0  501 -0.00000000000E+00  0.00000000000E+00  0.79357429634E+02  0.79357429634E+02  0.00000000000E+00 0. -1.
          2   -1    0    0  503    0  0.00000000000E+00 -0.00000000000E+00 -0.58250030737E+03  0.58250030737E+03  0.00000000000E+00 0.  1.
         23    2    1    2    0    0 -0.54555270079E+02 -0.34853614195E+02 -0.10602737975E+03  0.15547484871E+03  0.93485674892E+02 0.  0.
         23    2    1    2    0    0 -0.15356968447E+01  0.10011371289E+03 -0.16473618276E+03  0.21310071121E+03  0.90822845887E+02 0.  0.
        -11    1    4    4    0    0  0.41721278352E+02  0.72202583117E+02 -0.10878608950E+03  0.13707038828E+03  0.00000000000E+00 0. -1.
         11    1    4    4    0    0 -0.43256975197E+02  0.27911129770E+02 -0.55950093266E+02  0.76030322929E+02  0.00000000000E+00 0.  1.
        -11    1    3    3    0    0 -0.73777319752E+02 -0.26688177576E+01 -0.54545068773E+02  0.91789868860E+02  0.00000000000E+00 0.  1.
         11    1    3    3    0    0  0.19222049673E+02 -0.32184796437E+02 -0.51482310978E+02  0.63684979854E+02  0.00000000000E+00 0. -1.
         21    1    1    2  502  501 -0.25431340225E+02  0.10913572224E+02  0.75451158632E+01  0.28684279627E+02  0.00000000000E+00 0.  1.
         21    1    1    2  503  502  0.81522307149E+02 -0.76173670916E+02 -0.23992443109E+03  0.26459789745E+03  0.00000000000E+00 0. -1.
<scales pt_clust_5="13000.00000" pt_clust_6="13000.00000" pt_clust_7="13000.00000" pt_clust_8="13000.00000" pt_clust_9="27.67416" pt_clust_10="106.34476"></scales>
<clustering>
<clus scale="   27.674">  1  9  2 -1</clus>
<clus scale="   90.823">  5  6 -1 -1</clus>
<clus scale="   93.486">  7  8 -1 -1</clus>
<clus scale="  106.345">  2 10  1 -1</clus>
<clus scale="  114.434">  2  5  1 -1</clus>
<clus scale="  106.345">  2  5  1 -1</clus>
</clustering>
</event>
<event>
10    2  0.1133532E-006  0.2235881E+03  0.7546771E-02  0.1131271E+00
          1   -1    0    0  503    0  0.00000000000E+00  0.00000000000E+00  0.34388456807E+03  0.34388456807E+03  0.00000000000E+00 0. -1.
         -1   -1    0    0    0  501 -0.00000000000E+00 -0.00000000000E+00 -0.40301894113E+03  0.40301894113E+03  0.00000000000E+00 0.  1.
         23    2    1    2    0    0 -0.85098635948E+02 -0.22402225870E+03 -0.22013774267E+03  0.33824129965E+03  0.92297349971E+02 0.  0.
         23    2    1    2    0    0  0.61910226664E+02  0.16864783933E+03  0.19948552667E+03  0.28372907198E+03  0.91829957317E+02 0.  0.
        -11    1    4    4    0    0 -0.10043083562E+02  0.93146417242E+02  0.67305782492E+02  0.11535678103E+03  0.00000000000E+00 0.  1.
         11    1    4    4    0    0  0.71953310226E+02  0.75501422084E+02  0.13217974418E+03  0.16837229095E+03  0.00000000000E+00 0. -1.
        -13    1    3    3    0    0 -0.55632718219E+02 -0.19961694951E+03 -0.21668752760E+03  0.29982563347E+03  0.00000000000E+00 0.  1.
         13    1    3    3    0    0 -0.29465917729E+02 -0.24405309183E+02 -0.34502150657E+01  0.38415666179E+02  0.00000000000E+00 0. -1.
         21    1    1    2  502  501  0.11021486455E+02  0.35811862737E+02 -0.73799259768E+02  0.82766499374E+02  0.00000000000E+00 0.  1.
         21    1    1    2  503  502  0.12166922829E+02  0.19562556633E+02  0.35317102704E+02  0.42166638193E+02  0.00000000000E+00 0. -1.
<scales pt_clust_5="13000.00000" pt_clust_6="13000.00000" pt_clust_7="13000.00000" pt_clust_8="13000.00000" pt_clust_9="37.79690" pt_clust_10="23.03753"></scales>
<clustering>
<clus scale="   23.038">  1 10  2 -1</clus>
<clus scale="   37.797">  2  9  1 -1</clus>
<clus scale="   91.830">  5  6 -1 -1</clus>
<clus scale="   92.297">  7  8 -1 -1</clus>
<clus scale="  223.396">  1  5  2 -1</clus>
<clus scale="   23.038">  1  5  2 -1</clus>
</clustering>
</event>
<event>
10    2  0.1133532E-006  0.1142506E+03  0.7546771E-02  0.1263347E+00
         -1   -1    0    0    0  501 -0.00000000000E+00  0.00000000000E+00  0.27267875195E+03  0.27267875195E+03  0.00000000000E+00 0.  1.
          1   -1    0    0  503    0  0.00000000000E+00 -0.00000000000E+00 -0.18372898114E+03  0.18372898114E+03  0.00000000000E+00 0. -1.
         23    2    1    2    0    0  0.32052714295E+02  0.12931499427E+02  0.14910386433E+03  0.17788426455E+03  0.90643527323E+02 0.  0.
         23    2    1    2    0    0 -0.33652615355E+02 -0.51460977782E+02 -0.84396737350E+02  0.15339047608E+03  0.11236146190E+03 0.  0.
        -11    1    3    3    0    0 -0.28020851752E+02  0.25761222567E+01  0.84491192752E+02  0.89053726432E+02  0.00000000000E+00 0.  1.
         11    1    3    3    0    0  0.60073566047E+02  0.10355377170E+02  0.64612671576E+02  0.88830538117E+02  0.00000000000E+00 0. -1.
        -13    1    4    4    0    0  0.23846662353E+02  0.50060296717E+01 -0.66519419583E+02  0.70841773129E+02  0.00000000000E+00 0.  1.
         13    1    4    4    0    0 -0.57499277708E+02 -0.56467007454E+02 -0.17877317767E+02  0.82548702947E+02  0.00000000000E+00 0. -1.
         21    1    1    2  502  501 -0.26495147680E+02 -0.41269488338E+01  0.58006690340E+02  0.63904621754E+02  0.00000000000E+00 0.  1.
         21    1    1    2  503  502  0.28095048739E+02  0.42656427189E+02 -0.33764046503E+02  0.61228370716E+02  0.00000000000E+00 0.  1.
<scales pt_clust_5="13000.00000" pt_clust_6="13000.00000" pt_clust_7="13000.00000" pt_clust_8="13000.00000" pt_clust_9="26.81463" pt_clust_10="49.92526"></scales>
<clustering>
<clus scale="   26.815">  1  9  2 -1</clus>
<clus scale="   49.925">  2 10  1 -1</clus>
<clus scale="   90.644">  5  6 -1 -1</clus>
<clus scale="   92.975">  1  5  2 -1</clus>
<clus scale="  112.361">  7  8 -1 -1</clus>
<clus scale="   49.925">  2  5  1 -1</clus>
</clustering>
</event>
<event>
10    2  0.1133532E-006  0.1085148E+03  0.7546771E-02  0.1263993E+00
          1   -1    0    0  503    0  0.00000000000E+00  0.00000000000E+00  0.47447900509E+03  0.47447900509E+03  0.00000000000E+00 0. -1.
         -1   -1    0    0    0  501 -0.00000000000E+00 -0.00000000000E+00 -0.78868512235E+03  0.78868512235E+03  0.00000000000E+00 0.  1.
         23    2    1    2    0    0  0.11722670064E+03 -0.28824516755E+02 -0.46641464304E+03  0.49004992706E+03  0.89629011291E+02 0.  0.
         23    2    1    2    0    0 -0.14960389468E+02 -0.61387692110E+01  0.14099064311E+03  0.16872268878E+03  0.91255063002E+02 0.  0.
        -11    1    3    3    0    0  0.11087672571E+03 -0.13418537420E+01 -0.42955472390E+03  0.44363578496E+03  0.00000000000E+00 0.  1.
         11    1    3    3    0    0  0.63499749243E+01 -0.27482663013E+02 -0.36859919140E+02  0.46414142100E+02  0.00000000000E+00 0. -1.
        -13    1    4    4    0    0 -0.12402587325E+02 -0.48236116655E+02  0.86545267153E+02  0.99853043964E+02  0.00000000000E+00 0.  1.
         13    1    4    4    0    0 -0.25578021432E+01  0.42097347444E+02  0.54445375955E+02  0.68869644812E+02  0.00000000000E+00 0. -1.
         21    1    1    2  502  501 -0.74299183974E+02 -0.15593115836E+02 -0.28892794315E+03  0.29873545208E+03  0.00000000000E+00 0. -1.
         21    1    1    2  503  502 -0.27967127194E+02  0.50556401802E+02  0.30014582582E+03  0.30565605952E+03  0.00000000000E+00 0. -1.
<scales pt_clust_5="13000.00000" pt_clust_6="13000.00000" pt_clust_7="13000.00000" pt_clust_8="13000.00000" pt_clust_9="76.41960" pt_clust_10="57.77638"></scales>
<clustering>
<clus scale="   57.776">  1 10  2 -1</clus>
<clus scale="   76.420">  2  9  1 -1</clus>
<clus scale="   89.629">  5  6 -1 -1</clus>
<clus scale="   91.255">  7  8 -1 -1</clus>
<clus scale="  107.151">  2  5  1 -1</clus>
<clus scale="   57.776">  1  5  2 -1</clus>
</clustering>
</event>
<event>
10    2  0.1133532E-006  0.9648472E+02  0.7546771E-02  0.1288199E+00
         -1   -1    0    0    0  501 -0.00000000000E+00  0.00000000000E+00  0.43600726238E+03  0.43600726238E+03  0.00000000000E+00 0.  1.
          1   -1    0    0  503    0  0.00000000000E+00 -0.00000000000E+00 -0.78019355977E+02  0.78019355977E+02  0.00000000000E+00 0. -1.
         23    2    1    2    0    0  0.52051338667E+02 -0.14897348245E+02  0.19157667371E+03  0.21899990736E+03  0.91258230696E+02 0.  0.
         23    2    1    2    0    0  0.24634070488E+02  0.15045751421E+02  0.32809338662E+02  0.10175007023E+03  0.91888040703E+02 0.  0.
        -11    1    4    4    0    0  0.45016193741E+02 -0.24228759172E+02  0.10474572676E+02  0.52184357261E+02  0.00000000000E+00 0.  1.
         11    1    4    4    0    0 -0.20382123254E+02  0.39274510593E+02  0.22334765986E+02  0.49565712971E+02  0.00000000000E+00 0. -1.
        -11    1    3    3    0    0 -0.96937203517E+01 -0.34948975668E+02  0.10286360535E+03  0.10907025452E+03  0.00000000000E+00 0.  1.
         11    1    3    3    0    0  0.61745059019E+02  0.20051627422E+02  0.88713068360E+02  0.10992965284E+03  0.00000000000E+00 0. -1.
         21    1    1    2  502  501 -0.22680771215E+02 -0.15142440405E+02  0.13448500770E+03  0.13722218545E+03  0.00000000000E+00 0.  1.
         21    1    1    2  503  502 -0.54004637940E+02  0.14994037229E+02 -0.88311366651E+00  0.56054455320E+02  0.00000000000E+00 0. -1.
<scales pt_clust_5="13000.00000" pt_clust_6="13000.00000" pt_clust_7="13000.00000" pt_clust_8="13000.00000" pt_clust_9="27.27106" pt_clust_10="57.71493"></scales>
<clustering>
<clus scale="   27.271">  1  9  2 -1</clus>
<clus scale="   57.715">  2 10  1 -1</clus>
<clus scale="   91.258">  7  8 -1 -1</clus>
<clus scale="   91.888">  5  6 -1 -1</clus>
<clus scale="   95.885">  1  7  2 -1</clus>
<clus scale="   57.715">  2  5  1 -1</clus>
</clustering>
</event>
<event>
10    2  0.1133532E-006  0.1181784E+03  0.7546771E-02  0.1250112E+00
          1   -1    0    0  503    0  0.00000000000E+00  0.00000000000E+00  0.34458889770E+03  0.34458889770E+03  0.00000000000E+00 0. -1.
         -1   -1    0    0    0  501 -0.00000000000E+00 -0.00000000000E+00 -0.47327604294E+03  0.47327604294E+03  0.00000000000E+00 0.  1.
         23    2    1    2    0    0 -0.37655860683E+02 -0.65325028486E+01 -0.23881175708E+03  0.26188639976E+03  0.10046289673E+03 0.  0.
         23    2    1    2    0    0  0.71466421623E+02  0.46411037373E+02  0.23990302274E+03  0.26990497058E+03  0.89631462188E+02 0.  0.
        -11    1    4    4    0    0  0.13545682988E+02  0.61062491667E+02  0.14275120278E+03  0.15585255632E+03  0.00000000000E+00 0.  1.
         11    1    4    4    0    0  0.57920738635E+02 -0.14651454294E+02  0.97151819963E+02  0.11405241426E+03  0.00000000000E+00 0. -1.
        -13    1    3    3    0    0 -0.66835995360E+02  0.18161137377E+02 -0.15333472562E+03  0.16825104834E+03  0.00000000000E+00 0.  1.
         13    1    3    3    0    0  0.29180134677E+02 -0.24693640225E+02 -0.85477031467E+02  0.93635351421E+02  0.00000000000E+00 0. -1.
         21    1    1    2  502  501 -0.21823479467E+02 -0.13435190115E+02 -0.20440131280E+03  0.20600161471E+03  0.00000000000E+00 0.  1.
         21    1    1    2  503  502 -0.11987081473E+02 -0.26443344410E+02  0.74622901899E+02  0.80071955600E+02  0.00000000000E+00 0.  1.
<scales pt_clust_5="13000.00000" pt_clust_6="13000.00000" pt_clust_7="13000.00000" pt_clust_8="13000.00000" pt_clust_9="25.62750" pt_clust_10="29.24974"></scales>
<clustering>
<clus scale="   25.627">  2  9  1 -1</clus>
<clus scale="   29.250">  1 10  2 -1</clus>
<clus scale="   89.631">  5  6 -1 -1</clus>
<clus scale="  100.463">  7  8 -1 -1</clus>
<clus scale="  109.120">  1  5  2 -1</clus>
<clus scale="   29.250">  1  5  2 -1</clus>
</clustering>
</event>
<event>
10    2  0.1133532E-006  0.1194941E+03  0.7546771E-02  0.1255353E+00
         -3   -1    0    0    0  501 -0.00000000000E+00  0.00000000000E+00  0.15055212873E+03  0.15055212873E+03  0.00000000000E+00 0.  1.
          3   -1    0    0  503    0  0.00000000000E+00 -0.00000000000E+00 -0.11624046820E+03  0.11624046820E+03  0.00000000000E+00 0. -1.
         23    2    1    2    0    0 -0.41770046267E+01 -0.37551105355E+02  0.30129806936E+02  0.12487240862E+03  0.11514243478E+03 0.  0.
         23    2    1    2    0    0  0.22889002888E+02  0.20807635368E+02  0.11418459750E+02  0.95453802608E+02  0.89577804541E+02 0.  0.
        -11    1    4    4    0    0  0.33322910117E+02  0.50150576507E+02 -0.46846691494E+01  0.60394062520E+02  0.00000000000E+00 0. -1.
         11    1    4    4    0    0 -0.10433907229E+02 -0.29342941138E+02  0.16103128899E+02  0.35059740088E+02  0.00000000000E+00 0.  1.
        -11    1    3    3    0    0  0.47985528668E+02  0.99301695969E+01  0.23371399484E+01  0.49057939754E+02  0.00000000000E+00 0. -1.
         11    1    3    3    0    0 -0.52162533294E+02 -0.47481274951E+02  0.27792666987E+02  0.75814468863E+02  0.00000000000E+00 0.  1.
         21    1    1    2  502  501  0.75567649111E+00  0.22767099282E+02  0.41020315992E+01  0.23146026007E+02  0.00000000000E+00 0. -1.
         21    1    1    2  503  502 -0.19467674752E+02 -0.60236292954E+01 -0.11338637760E+02  0.23320359697E+02  0.00000000000E+00 0. -1.
<scales pt_clust_5="13000.00000" pt_clust_6="13000.00000" pt_clust_7="13000.00000" pt_clust_8="13000.00000" pt_clust_9="22.21539" pt_clust_10="20.37828"></scales>
<clustering>
<clus scale="   20.378">  2 10  1 -1</clus>
<clus scale="   22.215">  2  9  1 -1</clus>
<clus scale="   89.578">  5  6 -1 -1</clus>
<clus scale="   95.106">  2  5  1 -1</clus>
<clus scale="  115.142">  7  8 -1 -1</clus>
<clus scale="   20.378">  2  5  1 -1</clus>
</clustering>
</event>
<event>
10    2  0.1133532E-006  0.9458750E+02  0.7546771E-02  0.1293861E+00
          2   -1    0    0  503    0  0.00000000000E+00  0.00000000000E+00  0.66776599110E+02  0.66776599110E+02  0.00000000000E+00 0. -1.
         -2   -1    0    0    0  501 -0.00000000000E+00 -0.00000000000E+00 -0.34583723613E+03  0.34583723613E+03  0.00000000000E+00 0.  1.
         23    2    1    2    0    0 -0.54099760056E+01 -0.74925746705E+01 -0.20078294379E+03  0.22115446042E+03  0.92250194207E+02 0.  0.
         23    2    1    2    0    0  0.39570835948E+02  0.92049218357E+01 -0.34674344128E+02  0.10390817784E+03  0.89129218767E+02 0.  0.
        -11    1    3    3    0    0 -0.48321109196E+02 -0.96821941495E+01 -0.11821132848E+03  0.12807260698E+03  0.00000000000E+00 0.  1.
         11    1    3    3    0    0  0.42911133190E+02  0.21896194789E+01 -0.82571615309E+02  0.93081853440E+02  0.00000000000E+00 0. -1.
        -11    1    4    4    0    0  0.73898788042E+01 -0.37180888549E+02 -0.27855473778E+02  0.47042068422E+02  0.00000000000E+00 0.  1.
         11    1    4    4    0    0  0.32180957143E+02  0.46385810384E+02 -0.68188703501E+01  0.56866109419E+02  0.00000000000E+00 0. -1.
         21    1    1    2  502  501  0.67042070228E+01 -0.21301144714E+02 -0.34857903636E+02  0.41397567608E+02  0.00000000000E+00 0.  1.
         21    1    1    2  503  502 -0.40865066965E+02  0.19588797549E+02 -0.87454454633E+01  0.46153629368E+02  0.00000000000E+00 0. -1.
<scales pt_clust_5="13000.00000" pt_clust_6="13000.00000" pt_clust_7="13000.00000" pt_clust_8="13000.00000" pt_clust_9="22.33126" pt_clust_10="43.98089"></scales>
<clustering>
<clus scale="   22.331">  2  9  1 -1</clus>
<clus scale="   43.981">  1 10  2 -1</clus>
<clus scale="   89.129">  7  8 -1 -1</clus>
<clus scale="   91.546">  1  7  2 -1</clus>
<clus scale="   92.250">  5  6 -1 -1</clus>
<clus scale="   43.981">  1  5  2 -1</clus>
</clustering>
</event>
<event>
10    2  0.1133532E-006  0.1718310E+03  0.7546771E-02  0.1175963E+00
          1   -1    0    0  503    0  0.00000000000E+00  0.00000000000E+00  0.25057452657E+03  0.25057452657E+03  0.00000000000E+00 0. -1.
         -1   -1    0    0    0  501 -0.00000000000E+00 -0.00000000000E+00 -0.18463646680E+03  0.18463646680E+03  0.00000000000E+00 0.  1.
         23    2    1    2    0    0  0.92265479196E+02 -0.96456779976E+02 -0.24572747549E+02  0.16373374048E+03  0.91586509895E+02 0.  0.
         23    2    1    2    0    0 -0.73016561693E+02  0.14312208522E+03  0.36936534651E+02  0.18863316764E+03  0.91666868520E+02 0.  0.
        -11    1    4    4    0    0 -0.67295836722E+02  0.12241488835E+03  0.64352346477E+02  0.15380298771E+03  0.00000000000E+00 0. -1.
         11    1    4    4    0    0 -0.57207249706E+01  0.20707196861E+02 -0.27415811826E+02  0.34830179932E+02  0.00000000000E+00 0.  1.
        -11    1    3    3    0    0  0.45116752456E+02  0.18801926657E+01  0.15209363668E+02  0.47648517499E+02  0.00000000000E+00 0. -1.
         11    1    3    3    0    0  0.47148726740E+02 -0.98336972642E+02 -0.39782111218E+02  0.11608522298E+03  0.00000000000E+00 0.  1.
         21    1    1    2  502  501 -0.52326365334E+01 -0.21589267288E+02  0.18316375823E+00  0.22215096131E+02  0.00000000000E+00 0.  1.
         21    1    1    2  503  502 -0.14016280970E+02 -0.25076037952E+02  0.53391108908E+02  0.60628989123E+02  0.00000000000E+00 0. -1.
<scales pt_clust_5="13000.00000" pt_clust_6="13000.00000" pt_clust_7="13000.00000" pt_clust_8="13000.00000" pt_clust_9="22.21434" pt_clust_10="29.17369"></scales>
<clustering>
<clus scale="   22.214">  2  9  1 -1</clus>
<clus scale="   29.174">  1 10  2 -1</clus>
<clus scale="   91.587">  7  8 -1 -1</clus>
<clus scale="   91.667">  5  6 -1 -1</clus>
<clus scale="  171.788">  2  7  1 -1</clus>
<clus scale="   29.174">  1  5  2 -1</clus>
</clustering>
</event>
<event>
10    2  0.1133532E-006  0.2343594E+03  0.7546771E-02  0.1123955E+00
          1   -1    0    0  503    0  0.00000000000E+00  0.00000000000E+00  0.98569144042E+02  0.98569144042E+02  0.00000000000E+00 0. -1.
         -1   -1    0    0    0  501 -0.00000000000E+00 -0.00000000000E+00 -0.84417297233E+03  0.84417297233E+03  0.00000000000E+00 0.  1.
         23    2    1    2    0    0 -0.22067319787E+03  0.46594545570E+02 -0.34297397622E+03  0.42110556072E+03  0.93973575928E+02 0.  0.
         23    2    1    2    0    0  0.20600559231E+03  0.12483561044E+02 -0.19307032134E+03  0.29625117340E+03  0.88850804176E+02 0.  0.
        -11    1    4    4    0    0  0.14442526511E+03  0.22105023314E+02 -0.18126066288E+03  0.23281477008E+03  0.00000000000E+00 0.  1.
         11    1    4    4    0    0  0.61580327199E+02 -0.96214622702E+01 -0.11809658457E+02  0.63436403327E+02  0.00000000000E+00 0. -1.
        -11    1    3    3    0    0 -0.20340420076E+03  0.13154820542E+02 -0.31034278314E+03  0.37129363210E+03  0.00000000000E+00 0. -1.
         11    1    3    3    0    0 -0.17268997102E+02  0.33439725029E+02 -0.32631193074E+02  0.49811928615E+02  0.00000000000E+00 0.  1.
         21    1    1    2  502  501  0.26883660536E+01 -0.24178011250E+02 -0.16823474925E+03  0.16998451222E+03  0.00000000000E+00 0.  1.
         21    1    1    2  503  502  0.11979239506E+02 -0.34900095364E+02 -0.41324781483E+02  0.55400870031E+02  0.00000000000E+00 0.  1.
<scales pt_clust_5="13000.00000" pt_clust_6="13000.00000" pt_clust_7="13000.00000" pt_clust_8="13000.00000" pt_clust_9="24.32701" pt_clust_10="38.60150"></scales>
<clustering>
<clus scale="   24.327">  2  9  1 -1</clus>
<clus scale="   38.601">  1 10  2 -1</clus>
<clus scale="   88.851">  5  6 -1 -1</clus>
<clus scale="   93.974">  7  8 -1 -1</clus>
<clus scale="  232.353">  1  5  2 -1</clus>
<clus scale="   38.601">  1  5  2 -1</clus>
</clustering>
</event>
<event>
10    2  0.1133532E-006  0.9737824E+02  0.7546771E-02  0.1286240E+00
          1   -1    0    0  502    0  0.00000000000E+00  0.00000000000E+00  0.56511029183E+02  0.56511029183E+02  0.00000000000E+00 0. -1.
         -1   -1    0    0    0  501 -0.00000000000E+00 -0.00000000000E+00 -0.46616319235E+03  0.46616319235E+03  0.00000000000E+00 0.  1.
         23    2    1    2    0    0  0.61264386728E+02 -0.21325754106E+02 -0.89785775079E+02  0.14390140041E+03  0.91858667340E+02 0.  0.
         23    2    1    2    0    0 -0.73956402242E+01 -0.20931859132E+02 -0.78428393874E+02  0.12232642966E+03  0.91213508907E+02 0.  0.
        -11    1    4    4    0    0  0.33849280004E+02 -0.19562091746E+02 -0.68313762243E+01  0.39687742332E+02  0.00000000000E+00 0. -1.
         11    1    4    4    0    0 -0.41244920229E+02 -0.13697673862E+01 -0.71597017649E+02  0.82638687330E+02  0.00000000000E+00 0.  1.
        -11    1    3    3    0    0  0.41516559208E+02 -0.56697885840E+02 -0.44681071950E+02  0.83274684856E+02  0.00000000000E+00 0. -1.
         11    1    3    3    0    0  0.19747827520E+02  0.35372131734E+02 -0.45104703128E+02  0.60626715559E+02  0.00000000000E+00 0.  1.
         21    1    1    2  502  503 -0.34241924155E+02  0.52136130039E+02 -0.20058089995E+03  0.21005566607E+03  0.00000000000E+00 0. -1.
         21    1    1    2  503  501 -0.19626822349E+02 -0.98785168015E+01 -0.40857094264E+02  0.46390725381E+02  0.00000000000E+00 0. -1.
<scales pt_clust_5="13000.00000" pt_clust_6="13000.00000" pt_clust_7="13000.00000" pt_clust_8="13000.00000" pt_clust_9="64.47705" pt_clust_10="21.97265"></scales>
<clustering>
<clus scale="   21.973">  2 10  1 -1</clus>
<clus scale="   64.477">  2  9  1 -1</clus>
<clus scale="   91.214">  5  6 -1 -1</clus>
<clus scale="   91.859">  7  8 -1 -1</clus>
<clus scale="   96.770">  1  5  2 -1</clus>
<clus scale="   96.770">  1  5  2 -1</clus>
</clustering>
</event>
<event>
10    2  0.1133532E-006  0.1738866E+03  0.7546771E-02  0.1173877E+00
          2   -1    0    0  503    0  0.00000000000E+00  0.00000000000E+00  0.61518725169E+03  0.61518725169E+03  0.00000000000E+00 0. -1.
         -2   -1    0    0    0  501 -0.00000000000E+00 -0.00000000000E+00 -0.14475739754E+03  0.14475739754E+03  0.00000000000E+00 0.  1.
         23    2    1    2    0    0  0.96663393195E+02 -0.11454201683E+03 -0.43296971486E+00  0.17427127820E+03  0.88919096603E+02 0.  0.
         23    2    1    2    0    0 -0.92739657408E+02  0.88879822795E+02  0.47019718037E+03  0.49544079718E+03  0.88746426009E+02 0.  0.
        -11    1    3    3    0    0  0.16469660943E+02 -0.56268458629E+02 -0.36178248120E+02  0.68893067903E+02  0.00000000000E+00 0.  1.
         11    1    3    3    0    0  0.80193732252E+02 -0.58273558200E+02  0.35745278406E+02  0.10537821030E+03  0.00000000000E+00 0. -1.
        -13    1    4    4    0    0 -0.65541273579E+02  0.10189134478E+03  0.41755808629E+03  0.43477840346E+03  0.00000000000E+00 0. -1.
         13    1    4    4    0    0 -0.27198383828E+02 -0.13011521987E+02  0.52639094073E+02  0.60662393723E+02  0.00000000000E+00 0.  1.
         21    1    1    2  502  501  0.28492151952E+02  0.21844986350E+02 -0.28979831994E+02  0.46139319608E+02  0.00000000000E+00 0.  1.
         21    1    1    2  503  502 -0.32415887739E+02  0.38172076837E+01  0.29645475486E+02  0.44093254237E+02  0.00000000000E+00 0.  1.
<scales pt_clust_5="13000.00000" pt_clust_6="13000.00000" pt_clust_7="13000.00000" pt_clust_8="13000.00000" pt_clust_9="35.55714" pt_clust_10="32.63987"></scales>
<clustering>
<clus scale="   32.640">  1 10  2 -1</clus>
<clus scale="   35.557">  2  9  1 -1</clus>
<clus scale="   88.746">  7  8 -1 -1</clus>
<clus scale="   88.919">  5  6 -1 -1</clus>
<clus scale="  173.798">  1  7  2 -1</clus>
<clus scale="   32.640">  1  5  2 -1</clus>
</clustering>
</event>
<event>
10    2  0.1133532E-006  0.9776954E+02  0.7546771E-02  0.1287413E+00
         -1   -1    0    0    0  501 -0.00000000000E+00  0.00000000000E+00  0.50379706705E+02  0.50379706705E+02  0.00000000000E+00 0.  1.
          1   -1    0    0  503    0  0.00000000000E+00 -0.00000000000E+00 -0.58182344824E+03  0.58182344824E+03  0.00000000000E+00 0. -1.
         23    2    1    2    0    0 -0.49728438882E+02  0.29887773983E+01 -0.93860771565E+02  0.14220357174E+03  0.94499528858E+02 0.  0.
         23    2    1    2    0    0 -0.18783026746E+01  0.54969632001E+01 -0.15879523911E+03  0.18266893808E+03  0.90101433666E+02 0.  0.
        -11    1    4    4    0    0 -0.18496162837E+02  0.43083969381E+02 -0.63893486662E+02  0.79250956431E+02  0.00000000000E+00 0.  1.
         11    1    4    4    0    0  0.16617860162E+02 -0.37587006181E+02 -0.94901752452E+02  0.10341798165E+03  0.00000000000E+00 0. -1.
        -13    1    3    3    0    0 -0.74537983219E+02 -0.14737515440E+02 -0.72084864383E+02  0.10473458348E+03  0.00000000000E+00 0.  1.
         13    1    3    3    0    0  0.24809544337E+02  0.17726292839E+02 -0.21775907182E+02  0.37468988265E+02  0.00000000000E+00 0. -1.
         21    1    1    2  502  501  0.16798491208E+02  0.18739346259E+02 -0.10571961581E+00  0.25166715752E+02  0.00000000000E+00 0.  1.
         21    1    1    2  503  502  0.34808250349E+02 -0.27225086858E+02 -0.27868201124E+03  0.28216392936E+03  0.00000000000E+00 0.  1.
<scales pt_clust_5="13000.00000" pt_clust_6="13000.00000" pt_clust_7="13000.00000" pt_clust_8="13000.00000" pt_clust_9="25.16649" pt_clust_10="44.28338"></scales>
<clustering>
<clus scale="   25.166">  1  9  2 -1</clus>
<clus scale="   44.283">  2 10  1 -1</clus>
<clus scale="   90.101">  5  6 -1 -1</clus>
<clus scale="   93.525">  2  5  1 -1</clus>
<clus scale="   94.500">  7  8 -1 -1</clus>
<clus scale="   44.283">  2  5  1 -1</clus>
</clustering>
</event>
<event>
10    2  0.1133532E-006  0.1384710E+03  0.7546771E-02  0.1215777E+00
         -2   -1    0    0    0  501 -0.00000000000E+00  0.00000000000E+00  0.26154730711E+03  0.26154730711E+03  0.00000000000E+00 0.  1.
          2   -1    0    0  503    0  0.00000000000E+00 -0.00000000000E+00 -0.24169906763E+03  0.24169906763E+03  0.00000000000E+00 0. -1.
         23    2    1    2    0    0 -0.60292556897E+02  0.76542727895E+02  0.33495931279E+02  0.13732435588E+03  0.90785569854E+02 0.  0.
         23    2    1    2    0    0  0.58762502938E+02 -0.61873638541E+02 -0.76803786646E+02  0.14739226838E+03  0.92435275935E+02 0.  0.
        -11    1    3    3    0    0 -0.75371027754E+02  0.41696072586E+02 -0.82931897372E+00  0.86139666030E+02  0.00000000000E+00 0.  1.
         11    1    3    3    0    0  0.15078470858E+02  0.34846655309E+02  0.34325250253E+02  0.51184689845E+02  0.00000000000E+00 0. -1.
        -11    1    4    4    0    0  0.52598416076E+02 -0.83221682981E+02 -0.77293387341E+02  0.12516672728E+03  0.00000000000E+00 0. -1.
         11    1    4    4    0    0  0.61640868622E+01  0.21348044440E+02  0.48960069543E+00  0.22225541098E+02  0.00000000000E+00 0.  1.
         21    1    1    2  502  501 -0.35842469806E+02  0.20762869786E+02  0.12868429523E+03  0.13518663855E+03  0.00000000000E+00 0.  1.
         21    1    1    2  503  502  0.37372523764E+02 -0.35431959141E+02 -0.65528200380E+02  0.83343111929E+02  0.00000000000E+00 0. -1.
<scales pt_clust_5="13000.00000" pt_clust_6="13000.00000" pt_clust_7="13000.00000" pt_clust_8="13000.00000" pt_clust_9="41.42197" pt_clust_10="48.73399"></scales>
<clustering>
<clus scale="   41.422">  1  9  2 -1</clus>
<clus scale="   48.734">  2 10  1 -1</clus>
<clus scale="   90.786">  5  6 -1 -1</clus>
<clus scale="   92.435">  7  8 -1 -1</clus>
<clus scale="  137.375">  1  5  2 -1</clus>
<clus scale="   48.734">  2  5  1 -1</clus>
</clustering>
</event>
<event>
10    2  0.1133532E-006  0.1043365E+03  0.7546771E-02  0.1274071E+00
          2   -1    0    0  503    0  0.00000000000E+00  0.00000000000E+00  0.67858629328E+03  0.67858629328E+03  0.00000000000E+00 0. -1.
         -2   -1    0    0    0  501 -0.00000000000E+00 -0.00000000000E+00 -0.60083731580E+02  0.60083731580E+02  0.00000000000E+00 0.  1.
         23    2    1    2    0    0  0.21488271935E+02  0.49720104193E+02  0.71428426764E+02  0.12895016949E+03  0.92694614034E+02 0.  0.
         23    2    1    2    0    0  0.79121022161E+02 -0.24665580098E+01  0.28269136077E+03  0.30955537960E+03  0.98203398771E+02 0.  0.
        -11    1    3    3    0    0  0.38626969962E+02  0.29088790782E+02  0.85824804620E+02  0.98509378465E+02  0.00000000000E+00 0. -1.
         11    1    3    3    0    0 -0.17138698027E+02  0.20631313410E+02 -0.14396377856E+02  0.30440791029E+02  0.00000000000E+00 0.  1.
        -11    1    4    4    0    0 -0.15904013513E+02  0.13158408652E+02  0.16330418557E+02  0.26320409084E+02  0.00000000000E+00 0.  1.
         11    1    4    4    0    0  0.95025035673E+02 -0.15624966662E+02  0.26636094221E+03  0.28323497052E+03  0.00000000000E+00 0. -1.
         21    1    1    2  502  501 -0.47948212548E+02 -0.35478825465E+02  0.46308888716E+02  0.75513517446E+02  0.00000000000E+00 0.  1.
         21    1    1    2  503  502 -0.52661081548E+02 -0.11774720718E+02  0.21807388545E+03  0.22465095831E+03  0.00000000000E+00 0.  1.
<scales pt_clust_5="13000.00000" pt_clust_6="13000.00000" pt_clust_7="13000.00000" pt_clust_8="13000.00000" pt_clust_9="66.28365" pt_clust_10="53.96141"></scales>
<clustering>
<clus scale="   53.961">  1 10  2 -1</clus>
<clus scale="   66.284">  2  9  1 -1</clus>
<clus scale="   92.695">  5  6 -1 -1</clus>
<clus scale="   98.203">  7  8 -1 -1</clus>
<clus scale="   99.169">  2  5  1 -1</clus>
<clus scale="   53.961">  1  5  2 -1</clus>
</clustering>
</event>
<event>
10    2  0.1133532E-006  0.1294160E+03  0.7546771E-02  0.1235066E+00
          2   -1    0    0  503    0  0.00000000000E+00  0.00000000000E+00  0.26998838825E+03  0.26998838825E+03  0.00000000000E+00 0. -1.
         -2   -1    0    0    0  501 -0.00000000000E+00 -0.00000000000E+00 -0.12020243536E+03  0.12020243536E+03  0.00000000000E+00 0.  1.
         23    2    1    2    0    0 -0.75602756156E+02 -0.34754015397E+02 -0.19554921611E+02  0.12467776055E+03  0.90766352204E+02 0.  0.
         23    2    1    2    0    0  0.31578252519E+02  0.19611829190E+01  0.10989620460E+03  0.15930147015E+03  0.11089973101E+03 0.  0.
        -13    1    4    4    0    0  0.62990059650E+02  0.23040545058E+02  0.99631735665E+02  0.12010452566E+03  0.00000000000E+00 0.  1.
         13    1    4    4    0    0 -0.31411807131E+02 -0.21079362139E+02  0.10264468931E+02  0.39196944497E+02  0.00000000000E+00 0. -1.
        -13    1    3    3    0    0 -0.68263952661E+02 -0.61738360585E+01 -0.48010930159E+02  0.83684723213E+02  0.00000000000E+00 0.  1.
         13    1    3    3    0    0 -0.73388034957E+01 -0.28580179338E+02  0.28456008548E+02  0.40993037339E+02  0.00000000000E+00 0. -1.
         21    1    1    2  502  501 -0.85911643889E+01  0.27483831626E+02  0.31392389583E+01  0.28965909750E+02  0.00000000000E+00 0. -1.
         21    1    1    2  503  502  0.52615668027E+02  0.53090008518E+01  0.56305430952E+02  0.77245683158E+02  0.00000000000E+00 0. -1.
<scales pt_clust_5="13000.00000" pt_clust_6="13000.00000" pt_clust_7="13000.00000" pt_clust_8="13000.00000" pt_clust_9="28.79530" pt_clust_10="52.39030"></scales>
<clustering>
<clus scale="   28.795">  2  9  1 -1</clus>
<clus scale="   52.390">  1 10  2 -1</clus>
<clus scale="   90.766">  7  8 -1 -1</clus>
<clus scale="  110.900">  5  6 -1 -1</clus>
<clus scale="  112.642">  2  7  1 -1</clus>
<clus scale="   52.390">  1  5  2 -1</clus>
</clustering>
</event>
<event>
10    2  0.1133532E-006  0.1417739E+03  0.7546771E-02  0.1215404E+00
          1   -1    0    0  503    0  0.00000000000E+00  0.00000000000E+00  0.32991681541E+03  0.32991681541E+03  0.00000000000E+00 0. -1.
         -1   -1    0    0    0  501 -0.00000000000E+00 -0.00000000000E+00 -0.19087831244E+03  0.19087831244E+03  0.00000000000E+00 0.  1.
         23    2    1    2    0    0 -0.10106634974E+03 -0.13580459917E+02 -0.32925384916E+02  0.14120017472E+03  0.91948748921E+02 0.  0.
         23    2    1    2    0    0  0.50736129940E+02  0.95522978528E+02  0.12830368648E+03  0.20017849877E+03  0.10913661666E+03 0.  0.
        -13    1    4    4    0    0  0.53730985659E+02  0.66007661113E+02  0.19384594504E+02  0.87291423689E+02  0.00000000000E+00 0. -1.
         13    1    4    4    0    0 -0.29948557190E+01  0.29515317415E+02  0.10891909198E+03  0.11288707508E+03  0.00000000000E+00 0.  1.
        -13    1    3    3    0    0  0.91971356276E+01 -0.18691485897E+02  0.95648897674E+01  0.22922610346E+02  0.00000000000E+00 0.  1.
         13    1    3    3    0    0 -0.11026348537E+03  0.51110259803E+01 -0.42490274683E+02  0.11827756438E+03  0.00000000000E+00 0. -1.
         21    1    1    2  502  501  0.39269607719E+02 -0.48270489825E+02 -0.49646795265E+02  0.79604940541E+02  0.00000000000E+00 0. -1.
         21    1    1    2  503  502  0.11060612082E+02 -0.33672028786E+02  0.93306996678E+02  0.99811513821E+02  0.00000000000E+00 0. -1.
<scales pt_clust_5="13000.00000" pt_clust_6="13000.00000" pt_clust_7="13000.00000" pt_clust_8="13000.00000" pt_clust_9="64.35636" pt_clust_10="35.44210"></scales>
<clustering>
<clus scale="   35.442">  1 10  2 -1</clus>
<clus scale="   64.356">  2  9  1 -1</clus>
<clus scale="   91.949">  7  8 -1 -1</clus>
<clus scale="  109.137">  5  6 -1 -1</clus>
<clus scale="  129.010">  2  7  1 -1</clus>
<clus scale="   35.442">  1  5  2 -1</clus>
</clustering>
</event>
<event>
10    2  0.1133532E-006  0.1137808E+03  0.7546771E-02  0.1253878E+00
          2   -1    0    0  503    0  0.00000000000E+00  0.00000000000E+00  0.23740014078E+03  0.23740014078E+03  0.00000000000E+00 0. -1.
         -2   -1    0    0    0  501 -0.00000000000E+00 -0.00000000000E+00 -0.30388092883E+03  0.30388092883E+03  0.00000000000E+00 0.  1.
         23    2    1    2    0    0 -0.36543659078E+02  0.70946698502E+02 -0.16887858144E+03  0.20826635213E+03  0.92119623924E+02 0.  0.
         23    2    1    2    0    0  0.75395713628E+02  0.12920400128E+02 -0.38342872811E+02  0.12604102375E+03  0.92545736793E+02 0.  0.
        -11    1    3    3    0    0  0.10976914007E+02  0.51885523886E+02 -0.31562983950E+02  0.61715655922E+02  0.00000000000E+00 0. -1.
         11    1    3    3    0    0 -0.47520573085E+02  0.19061174617E+02 -0.13731559749E+03  0.14655069621E+03  0.00000000000E+00 0.  1.
        -13    1    4    4    0    0 -0.85742530520E+01  0.26739052758E+02 -0.29103649418E+02  0.40441527756E+02  0.00000000000E+00 0.  1.
         13    1    4    4    0    0  0.83969966680E+02 -0.13818652630E+02 -0.92392233927E+01  0.85599495990E+02  0.00000000000E+00 0. -1.
         21    1    1    2  502  501 -0.17136905710E+02 -0.53210382302E+02 -0.53242038759E+01  0.56154834778E+02  0.00000000000E+00 0. -1.
         21    1    1    2  503  502 -0.21715148840E+02 -0.30656716329E+02  0.14606487008E+03  0.15081885896E+03  0.00000000000E+00 0. -1.
<scales pt_clust_5="13000.00000" pt_clust_6="13000.00000" pt_clust_7="13000.00000" pt_clust_8="13000.00000" pt_clust_9="66.21898" pt_clust_10="37.56836"></scales>
<clustering>
<clus scale="   37.568">  1 10  2 -1</clus>
<clus scale="   66.219">  1  9  2 -1</clus>
<clus scale="   92.120">  5  6 -1 -1</clus>
<clus scale="   92.546">  7  8 -1 -1</clus>
<clus scale="  113.434">  2  5  1 -1</clus>
<clus scale="   37.568">  1  5  2 -1</clus>
</clustering>
</event>
<event>
10    2  0.1133532E-006  0.9738144E+02  0.7546771E-02  0.1286628E+00
          1   -1    0    0  503    0  0.00000000000E+00  0.00000000000E+00  0.24108849579E+03  0.24108849579E+03  0.00000000000E+00 0. -1.
         -1   -1    0    0    0  501 -0.00000000000E+00 -0.00000000000E+00 -0.12565339079E+03  0.12565339079E+03  0.00000000000E+00 0.  1.
         23    2    1    2    0    0  0.54907920304E+01  0.37261669457E+02 -0.11479697174E+02  0.10068453640E+03  0.92666129812E+02 0.  0.
         23    2    1    2    0    0 -0.41866878717E+02 -0.19703799318E+01 -0.54406361123E+01  0.10058287820E+03  0.91272103818E+02 0.  0.
        -11    1    3    3    0    0  0.48945020517E+02  0.19924791785E+02 -0.16093460546E+01  0.52869673309E+02  0.00000000000E+00 0. -1.
         11    1    3    3    0    0 -0.43454228487E+02  0.17336877672E+02 -0.98703511196E+01  0.47814863087E+02  0.00000000000E+00 0.  1.
        -13    1    4    4    0    0 -0.17343098469E+02  0.13212902915E+02  0.40698072081E+02  0.46170303649E+02  0.00000000000E+00 0. -1.
         13    1    4    4    0    0 -0.24523780247E+02 -0.15183282846E+02 -0.46138708193E+02  0.54412574552E+02  0.00000000000E+00 0.  1.
         21    1    1    2  502  501  0.13094662609E+01 -0.25467936061E+02 -0.26545289330E+01  0.25639364130E+02  0.00000000000E+00 0.  1.
         21    1    1    2  503  502  0.35066620425E+02 -0.98233534641E+01  0.13500996722E+03  0.13983510786E+03  0.00000000000E+00 0. -1.
<scales pt_clust_5="13000.00000" pt_clust_6="13000.00000" pt_clust_7="13000.00000" pt_clust_8="13000.00000" pt_clust_9="25.50158" pt_clust_10="36.59622"></scales>
<clustering>
<clus scale="   25.502">  2  9  1 -1</clus>
<clus scale="   36.596">  1 10  2 -1</clus>
<clus scale="   91.272">  7  8 -1 -1</clus>
<clus scale="   92.666">  5  6 -1 -1</clus>
<clus scale="   96.056">  1  7  2 -1</clus>
<clus scale="   36.596">  1  5  2 -1</clus>
</clustering>
</event>
<event>
10    2  0.1133532E-006  0.1114555E+03  0.7546771E-02  0.1258039E+00
         -1   -1    0    0    0  501 -0.00000000000E+00  0.00000000000E+00  0.51362649574E+02  0.51362649574E+02  0.00000000000E+00 0.  1.
          1   -1    0    0  503    0  0.00000000000E+00 -0.00000000000E+00 -0.63922953555E+03  0.63922953555E+03  0.00000000000E+00 0. -1.
         23    2    1    2    0    0  0.75288930311E+02 -0.31530961384E+01 -0.20379872841E+03  0.23535399623E+03  0.90439022533E+02 0.  0.
         23    2    1    2    0    0 -0.57627460932E+02 -0.24590983263E+02 -0.25487457944E+03  0.27773131435E+03  0.90818450837E+02 0.  0.
        -13    1    4    4    0    0 -0.79263022017E+02 -0.26157145149E+02 -0.23026504015E+03  0.24492613502E+03  0.00000000000E+00 0.  1.
         13    1    4    4    0    0  0.21635561084E+02  0.15661618860E+01 -0.24609539296E+02  0.32805179329E+02  0.00000000000E+00 0. -1.
        -13    1    3    3    0    0  0.52747802427E+02 -0.20010795371E+02 -0.19894699521E+03  0.20679136707E+03  0.00000000000E+00 0. -1.
         13    1    3    3    0    0  0.22541127884E+02  0.16857699233E+02 -0.48517332091E+01  0.28562629166E+02  0.00000000000E+00 0.  1.
         21    1    1    2  502  501 -0.23915506016E+02 -0.13460375871E+02  0.12248452520E+02  0.30052582846E+02  0.00000000000E+00 0.  1.
         21    1    1    2  503  502  0.62540366375E+01  0.41204455272E+02 -0.14144203064E+03  0.14745429170E+03  0.00000000000E+00 0. -1.
<scales pt_clust_5="13000.00000" pt_clust_6="13000.00000" pt_clust_7="13000.00000" pt_clust_8="13000.00000" pt_clust_9="27.44327" pt_clust_10="40.05297"></scales>
<clustering>
<clus scale="   27.443">  1  9  2 -1</clus>
<clus scale="   40.053">  2 10  1 -1</clus>
<clus scale="   90.439">  7  8 -1 -1</clus>
<clus scale="   90.818">  5  6 -1 -1</clus>
<clus scale="  111.147">  1  7  2 -1</clus>
<clus scale="   40.053">  2  5  1 -1</clus>
</clustering>
</event>
<event>
10    2  0.1133532E-006  0.1279222E+03  0.7546771E-02  0.1231543E+00
         -1   -1    0    0    0  501 -0.00000000000E+00  0.00000000000E+00  0.21579944977E+03  0.21579944977E+03  0.00000000000E+00 0.  1.
          1   -1    0    0  503    0  0.00000000000E+00 -0.00000000000E+00 -0.68980440493E+03  0.68980440493E+03  0.00000000000E+00 0. -1.
         23    2    1    2    0    0  0.32727234789E+02  0.78921824261E+02  0.15170801929E+03  0.19660207871E+03  0.91308969968E+02 0.  0.
         23    2    1    2    0    0 -0.72343609994E+02 -0.15581035475E+03 -0.42246660424E+03  0.46441711614E+03  0.87719789730E+02 0.  0.
        -11    1    4    4    0    0 -0.53520884241E+02 -0.29401966097E+02 -0.95427605569E+02  0.11329337388E+03  0.00000000000E+00 0.  1.
         11    1    4    4    0    0 -0.18822725753E+02 -0.12640838865E+03 -0.32703899867E+03  0.35112374226E+03  0.00000000000E+00 0. -1.
        -13    1    3    3    0    0  0.57755977647E+02  0.24083751918E+02  0.95545416487E+02  0.11421342597E+03  0.00000000000E+00 0.  1.
         13    1    3    3    0    0 -0.25028742857E+02  0.54838072344E+02  0.56162602802E+02  0.82388652744E+02  0.00000000000E+00 0. -1.
         21    1    1    2  502  501  0.36319137249E+02  0.54194416209E+02 -0.33576996164E+02  0.73372536756E+02  0.00000000000E+00 0.  1.
         21    1    1    2  503  502  0.32972379562E+01  0.22694114279E+02 -0.16966937405E+03  0.17121212308E+03  0.00000000000E+00 0. -1.
<scales pt_clust_5="13000.00000" pt_clust_6="13000.00000" pt_clust_7="13000.00000" pt_clust_8="13000.00000" pt_clust_9="67.37666" pt_clust_10="22.93239"></scales>
<clustering>
<clus scale="   22.932">  2 10  1 -1</clus>
<clus scale="   67.377">  2  9  1 -1</clus>
<clus scale="   87.720">  5  6 -1 -1</clus>
<clus scale="   91.309">  7  8 -1 -1</clus>
<clus scale="  125.386">  2  5  1 -1</clus>
<clus scale="   22.932">  2  5  1 -1</clus>
</clustering>
</event>
<event>
10    2  0.1133532E-006  0.1909689E+03  0.7546771E-02  0.1158116E+00
          2   -1    0    0  503    0  0.00000000000E+00  0.00000000000E+00  0.60607498704E+03  0.60607498704E+03  0.00000000000E+00 0. -1.
         -2   -1    0    0    0  501 -0.00000000000E+00 -0.00000000000E+00 -0.15732895271E+03  0.15732895271E+03  0.00000000000E+00 0.  1.
         23    2    1    2    0    0  0.91913586713E+02  0.11214067549E+03  0.37616523356E+01  0.16955094085E+03  0.87805085224E+02 0.  0.
         23    2    1    2    0    0 -0.35012801831E+02 -0.22222535455E+03  0.32218534282E+03  0.40374222988E+03  0.92705925182E+02 0.  0.
        -11    1    4    4    0    0  0.20223452943E+02 -0.11956852747E+02  0.16824187523E+02  0.28896499137E+02  0.00000000000E+00 0.  1.
         11    1    4    4    0    0 -0.55236254775E+02 -0.21026850180E+03  0.30536115530E+03  0.37484573075E+03  0.00000000000E+00 0. -1.
        -13    1    3    3    0    0  0.70968793795E+02  0.10513133346E+03 -0.28927425215E+02  0.13009981897E+03  0.00000000000E+00 0.  1.
         13    1    3    3    0    0  0.20944792918E+02  0.70093420391E+01  0.32689077550E+02  0.39451121876E+02  0.00000000000E+00 0. -1.
         21    1    1    2  502  501 -0.19341565443E+02  0.32572023629E+02 -0.26099360787E+01  0.37971629454E+02  0.00000000000E+00 0. -1.
         21    1    1    2  503  502 -0.37559219439E+02  0.77512655428E+02  0.12540897524E+03  0.15213913957E+03  0.00000000000E+00 0. -1.
<scales pt_clust_5="13000.00000" pt_clust_6="13000.00000" pt_clust_7="13000.00000" pt_clust_8="13000.00000" pt_clust_9="37.88183" pt_clust_10="89.81494"></scales>
<clustering>
<clus scale="   37.882">  2  9  1 -1</clus>
<clus scale="   87.805">  7  8 -1 -1</clus>
<clus scale="   89.815">  1 10  2 -1</clus>
<clus scale="   92.706">  5  6 -1 -1</clus>
<clus scale="  188.638">  2  7  1 -1</clus>
<clus scale="   89.815">  1  5  2 -1</clus>
</clustering>
</event>
<event>
10    2  0.1133532E-006  0.1179613E+03  0.7546771E-02  0.1246628E+00
         -1   -1    0    0    0  501 -0.00000000000E+00  0.00000000000E+00  0.19790994232E+03  0.19790994232E+03  0.00000000000E+00 0.  1.
          1   -1    0    0  503    0  0.00000000000E+00 -0.00000000000E+00 -0.24735636527E+03  0.24735636527E+03  0.00000000000E+00 0. -1.
         23    2    1    2    0    0  0.20849066654E+02 -0.55590929312E+02  0.64555237209E+02  0.12665898345E+03  0.91378796417E+02 0.  0.
         23    2    1    2    0    0 -0.91561876618E+01  0.77668490573E+02 -0.38087534129E+02  0.12644871096E+03  0.91773558540E+02 0.  0.
        -13    1    4    4    0    0 -0.48315688574E+02  0.54255355556E+02 -0.11250791839E+02  0.73516186557E+02  0.00000000000E+00 0.  1.
         13    1    4    4    0    0  0.39159500912E+02  0.23413135016E+02 -0.26836742290E+02  0.52932524403E+02  0.00000000000E+00 0. -1.
        -13    1    3    3    0    0 -0.31893548475E+02 -0.29017787168E+02  0.49627911718E+02  0.65743136737E+02  0.00000000000E+00 0.  1.
         13    1    3    3    0    0  0.52742615129E+02 -0.26573142144E+02  0.14927325490E+02  0.60915846710E+02  0.00000000000E+00 0. -1.
         21    1    1    2  502  501  0.10388264236E+02 -0.23891605318E+02  0.54218785133E+02  0.60153150373E+02  0.00000000000E+00 0. -1.
         21    1    1    2  503  502 -0.22081143229E+02  0.18140440573E+01 -0.13013291117E+03  0.13200546281E+03  0.00000000000E+00 0. -1.
<scales pt_clust_5="13000.00000" pt_clust_6="13000.00000" pt_clust_7="13000.00000" pt_clust_8="13000.00000" pt_clust_9="25.79005" pt_clust_10="22.15553"></scales>
<clustering>
<clus scale="   22.156">  2 10  1 -1</clus>
<clus scale="   25.790">  1  9  2 -1</clus>
<clus scale="   91.379">  7  8 -1 -1</clus>
<clus scale="   91.774">  5  6 -1 -1</clus>
<clus scale="  117.654">  1  7  2 -1</clus>
<clus scale="   22.156">  2  5  1 -1</clus>
</clustering>
</event>
<event>
10    2  0.1133532E-006  0.1030870E+03  0.7546771E-02  0.1274553E+00
          2   -1    0    0  503    0  0.00000000000E+00  0.00000000000E+00  0.66732966254E+02  0.66732966254E+02  0.00000000000E+00 0. -1.
         -2   -1    0    0    0  501 -0.00000000000E+00 -0.00000000000E+00 -0.34702289708E+03  0.34702289708E+03  0.00000000000E+00 0.  1.
         23    2    1    2    0    0  0.16926428050E+02 -0.37113450331E+02 -0.16176038115E+03  0.19043073258E+03  0.91834257425E+02 0.  0.
         23    2    1    2    0    0 -0.33280286522E+02  0.25723327520E+02 -0.42735272304E+02  0.10853528766E+03  0.90467331776E+02 0.  0.
        -11    1    4    4    0    0  0.10033664013E+02 -0.18227765158E+02  0.13700440609E+02  0.24912404723E+02  0.00000000000E+00 0. -1.
         11    1    4    4    0    0 -0.43313950535E+02  0.43951092678E+02 -0.56435712913E+02  0.83622882936E+02  0.00000000000E+00 0.  1.
        -13    1    3    3    0    0  0.46180887846E+02 -0.45030763839E+02 -0.13651720337E+03  0.15098804890E+03  0.00000000000E+00 0. -1.
         13    1    3    3    0    0 -0.29254459796E+02  0.79173135076E+01 -0.25243177784E+02  0.39442683679E+02  0.00000000000E+00 0.  1.
         21    1    1    2  502  501  0.15558424715E+02 -0.13138028394E+02 -0.85876963380E+02  0.88258286915E+02  0.00000000000E+00 0. -1.
         21    1    1    2  503  502  0.79543375678E+00  0.24528151205E+02  0.10082686011E+02  0.26531556184E+02  0.00000000000E+00 0.  1.
<scales pt_clust_5="13000.00000" pt_clust_6="13000.00000" pt_clust_7="13000.00000" pt_clust_8="13000.00000" pt_clust_9="20.36351" pt_clust_10="24.14685"></scales>
<clustering>
<clus scale="   20.364">  2  9  1 -1</clus>
<clus scale="   24.147">  1 10  2 -1</clus>
<clus scale="   90.467">  5  6 -1 -1</clus>
<clus scale="   91.834">  7  8 -1 -1</clus>
<clus scale="  101.871">  1  5  2 -1</clus>
<clus scale="   24.147">  1  5  2 -1</clus>
</clustering>
</event>
<event>
10    2  0.1133532E-006  0.2460696E+03  0.7546771E-02  0.1143097E+00
         -2   -1    0    0    0  501 -0.00000000000E+00  0.00000000000E+00  0.81848196055E+03  0.81848196055E+03  0.00000000000E+00 0.  1.
          2   -1    0    0  503    0  0.00000000000E+00 -0.00000000000E+00 -0.50787202955E+03  0.50787202955E+03  0.00000000000E+00 0. -1.
         23    2    1    2    0    0  0.13482739523E+03 -0.15775127959E+03  0.67254512232E+03  0.70955660062E+03  0.89942955269E+02 0.  0.
         23    2    1    2    0    0 -0.81666733654E+02  0.37567546986E+02 -0.13754018312E+03  0.18707380152E+03  0.89434497090E+02 0.  0.
        -13    1    4    4    0    0 -0.55747408999E+02 -0.23447686658E+02 -0.63451859752E+02  0.87656751740E+02  0.00000000000E+00 0.  1.
         13    1    4    4    0    0 -0.25919324655E+02  0.61015233644E+02 -0.74088323369E+02  0.99417049779E+02  0.00000000000E+00 0. -1.
        -13    1    3    3    0    0  0.43596022865E+02 -0.27961772983E+02  0.30304007821E+03  0.30743416037E+03  0.00000000000E+00 0. -1.
         13    1    3    3    0    0  0.91231372361E+02 -0.12978950661E+03  0.36950504411E+03  0.40212244025E+03  0.00000000000E+00 0.  1.
         21    1    1    2  502  501  0.48080184900E+02  0.48348766525E+01  0.77342054042E+02  0.91196894331E+02  0.00000000000E+00 0.  1.
         21    1    1    2  503  502 -0.10124084647E+03  0.11534885596E+03 -0.30173706225E+03  0.33852669363E+03  0.00000000000E+00 0. -1.
<scales pt_clust_5="13000.00000" pt_clust_6="13000.00000" pt_clust_7="13000.00000" pt_clust_8="13000.00000" pt_clust_9="48.32267" pt_clust_10="229.04262"></scales>
<clustering>
<clus scale="   48.323">  1  9  2 -1</clus>
<clus scale="   89.434">  5  6 -1 -1</clus>
<clus scale="   89.943">  7  8 -1 -1</clus>
<clus scale="  125.815">  2  5  1 -1</clus>
<clus scale="  229.043">  2 10  1 -1</clus>
<clus scale="  125.815">  2  5  1 -1</clus>
</clustering>
</event>
<event>
10    2  0.1133532E-006  0.1229908E+03  0.7546771E-02  0.1244450E+00
          2   -1    0    0  503    0  0.00000000000E+00  0.00000000000E+00  0.35257031034E+03  0.35257031034E+03  0.00000000000E+00 0. -1.
         -2   -1    0    0    0  501 -0.00000000000E+00 -0.00000000000E+00 -0.11309195102E+03  0.11309195102E+03  0.00000000000E+00 0.  1.
         23    2    1    2    0    0 -0.56464015031E+01  0.29465891627E+02  0.14483204106E+02  0.11843486343E+03  0.11365268609E+03 0.  0.
         23    2    1    2    0    0  0.61063823851E+02 -0.26405132058E+02  0.18943369024E+03  0.22330171891E+03  0.97736958660E+02 0.  0.
        -11    1    3    3    0    0 -0.40663728619E+02  0.19997574497E+02 -0.34874409992E+02  0.57180995823E+02  0.00000000000E+00 0.  1.
         11    1    3    3    0    0  0.35017327116E+02  0.94683171304E+01  0.49357614099E+02  0.61253867610E+02  0.00000000000E+00 0. -1.
        -11    1    4    4    0    0  0.18272868624E+02  0.21745605937E+02  0.13793601729E+03  0.14083008901E+03  0.00000000000E+00 0. -1.
         11    1    4    4    0    0  0.42790955226E+02 -0.48150737995E+02  0.51497672946E+02  0.82471629894E+02  0.00000000000E+00 0.  1.
         21    1    1    2  502  501 -0.21718748198E+02  0.15601449694E+02 -0.34693207854E+02  0.43803286715E+02  0.00000000000E+00 0.  1.
         21    1    1    2  503  502 -0.33698674149E+02 -0.18662209263E+02  0.70254672828E+02  0.80122392302E+02  0.00000000000E+00 0. -1.
<scales pt_clust_5="13000.00000" pt_clust_6="13000.00000" pt_clust_7="13000.00000" pt_clust_8="13000.00000" pt_clust_9="26.74153" pt_clust_10="39.31878"></scales>
<clustering>
<clus scale="   26.742">  2  9  1 -1</clus>
<clus scale="   39.319">  1 10  2 -1</clus>
<clus scale="   97.737">  7  8 -1 -1</clus>
<clus scale="  108.454">  1  7  2 -1</clus>
<clus scale="  113.653">  5  6 -1 -1</clus>
<clus scale="   39.319">  1  5  2 -1</clus>
</clustering>
</event>
<event>
10    2  0.1133532E-006  0.1434468E+03  0.7546771E-02  0.1209754E+00
         -1   -1    0    0    0  501 -0.00000000000E+00  0.00000000000E+00  0.11688672078E+03  0.11688672078E+03  0.00000000000E+00 0.  1.
          1   -1    0    0  503    0  0.00000000000E+00 -0.00000000000E+00 -0.34082293700E+03  0.34082293700E+03  0.00000000000E+00 0. -1.
         23    2    1    2    0    0 -0.55868383294E+02  0.10610117635E+03 -0.59730705027E+02  0.16237918752E+03  0.91763323515E+02 0.  0.
         23    2    1    2    0    0  0.85816252646E+02 -0.53569466625E+02 -0.14816603020E+03  0.19938750194E+03  0.86994749564E+02 0.  0.
        -11    1    4    4    0    0  0.42523524112E+02 -0.20939831530E+02 -0.66762699066E+01  0.47867517454E+02  0.00000000000E+00 0.  1.
         11    1    4    4    0    0  0.43292728534E+02 -0.32629635096E+02 -0.14148976029E+03  0.15151998448E+03  0.00000000000E+00 0. -1.
        -11    1    3    3    0    0  0.14813459001E+02  0.67546118338E+02 -0.16918660413E+02  0.71190994797E+02  0.00000000000E+00 0.  1.
         11    1    3    3    0    0 -0.70681842294E+02  0.38555058014E+02 -0.42812044614E+02  0.91188192726E+02  0.00000000000E+00 0. -1.
         21    1    1    2  502  501 -0.22994952067E+02 -0.10070312102E+02  0.25750486304E+02  0.35962015396E+02  0.00000000000E+00 0. -1.
         21    1    1    2  503  502 -0.69529172848E+01 -0.42461397624E+02 -0.41789967295E+02  0.59980952923E+02  0.00000000000E+00 0.  1.
<scales pt_clust_5="13000.00000" pt_clust_6="13000.00000" pt_clust_7="13000.00000" pt_clust_8="13000.00000" pt_clust_9="25.10337" pt_clust_10="44.52616"></scales>
<clustering>
<clus scale="   25.103">  1  9  2 -1</clus>
<clus scale="   44.526">  2 10  1 -1</clus>
<clus scale="   86.995">  5  6 -1 -1</clus>
<clus scale="   91.763">  7  8 -1 -1</clus>
<clus scale="  140.444">  2  5  1 -1</clus>
<clus scale="   44.526">  2  5  1 -1</clus>
</clustering>
</event>
<event>
10    2  0.1133532E-006  0.1078641E+03  0.7546771E-02  0.1265508E+00
          1   -1    0    0  503    0  0.00000000000E+00  0.00000000000E+00  0.48664423112E+03  0.48664423112E+03  0.00000000000E+00 0. -1.
         -1   -1    0    0    0  501 -0.00000000000E+00 -0.00000000000E+00 -0.45215382169E+02  0.45215382169E+02  0.00000000000E+00 0.  1.
         23    2    1    2    0    0  0.50081906106E+01 -0.36580349081E+02  0.10597737675E+03  0.14737748162E+03  0.95528601961E+02 0.  0.
         23    2    1    2    0    0 -0.24529781590E+02  0.52429601636E+02  0.20357230368E+03  0.23130761510E+03  0.93332505938E+02 0.  0.
        -11    1    3    3    0    0  0.38016364982E+02 -0.33149437738E+01  0.83185247044E+01  0.39056762691E+02  0.00000000000E+00 0.  1.
         11    1    3    3    0    0 -0.33008174371E+02 -0.33265405307E+02  0.97658852045E+02  0.10832071892E+03  0.00000000000E+00 0. -1.
        -13    1    4    4    0    0  0.16201304542E+02 -0.18300159524E+02  0.24978977254E+02  0.34947495077E+02  0.00000000000E+00 0.  1.
         13    1    4    4    0    0 -0.40731086133E+02  0.70729761160E+02  0.17859332643E+03  0.19636012002E+03  0.00000000000E+00 0. -1.
         21    1    1    2  502  501  0.41098076329E+02 -0.16379019337E+02  0.42938510178E+02  0.61652573415E+02  0.00000000000E+00 0.  1.
         21    1    1    2  503  502 -0.21576485349E+02  0.52976678170E+00  0.88940658339E+02  0.91521943154E+02  0.00000000000E+00 0. -1.
<scales pt_clust_5="13000.00000" pt_clust_6="13000.00000" pt_clust_7="13000.00000" pt_clust_8="13000.00000" pt_clust_9="41.58338" pt_clust_10="21.58299"></scales>
<clustering>
<clus scale="   21.583">  1 10  2 -1</clus>
<clus scale="   41.583">  2  9  1 -1</clus>
<clus scale="   93.333">  7  8 -1 -1</clus>
<clus scale="   95.529">  5  6 -1 -1</clus>
<clus scale="  105.924">  1  7  2 -1</clus>
<clus scale="   21.583">  1  5  2 -1</clus>
</clustering>
</event>
<event>
10    2  0.1133532E-006  0.9659841E+02  0.7546771E-02  0.1287869E+00
         -4   -1    0    0    0  501 -0.00000000000E+00  0.00000000000E+00  0.66884502876E+03  0.66884502876E+03  0.00000000000E+00 0.  1.
          4   -1    0    0  503    0  0.00000000000E+00 -0.00000000000E+00 -0.57426427529E+02  0.57426427529E+02  0.00000000000E+00 0. -1.
         23    2    1    2    0    0  0.22498357762E+02  0.24017964097E+02  0.19101643364E+03  0.21361239584E+03  0.89777163220E+02 0.  0.
         23    2    1    2    0    0 -0.21009478415E+02  0.60649952788E+00  0.94048179908E+02  0.13204146258E+03  0.90266946733E+02 0.  0.
        -11    1    4    4    0    0 -0.42201271785E+01  0.26934988173E+02  0.96921822145E+02  0.10068337832E+03  0.00000000000E+00 0.  1.
         11    1    4    4    0    0 -0.16789351237E+02 -0.26328488645E+02 -0.28736422371E+01  0.31358084268E+02  0.00000000000E+00 0. -1.
        -13    1    3    3    0    0 -0.25812144734E+02 -0.15063836155E+02  0.91808361047E+02  0.96550303643E+02  0.00000000000E+00 0. -1.
         13    1    3    3    0    0  0.48310502497E+02  0.39081800252E+02  0.99208072589E+02  0.11706209220E+03  0.00000000000E+00 0.  1.
         21    1    1    2  502  501  0.77328316663E+02  0.12814101002E+02  0.25838417421E+03  0.27001157609E+03  0.00000000000E+00 0.  1.
         21    1    1    2  503  502 -0.78817196011E+02 -0.37438564627E+02  0.67969813479E+02  0.11060602177E+03  0.00000000000E+00 0. -1.
<scales pt_clust_5="13000.00000" pt_clust_6="13000.00000" pt_clust_7="13000.00000" pt_clust_8="13000.00000" pt_clust_9="78.38284" pt_clust_10="70.79201"></scales>
<clustering>
<clus scale="   78.383">  1  9  2 -1</clus>
<clus scale="   70.792">  2 10  1 -1</clus>
<clus scale="   89.777">  7  8 -1 -1</clus>
<clus scale="   90.267">  5  6 -1 -1</clus>
<clus scale="   96.141">  1  7  2 -1</clus>
<clus scale="   70.792">  2  5  1 -1</clus>
</clustering>
</event>
<event>
10    2  0.1133532E-006  0.1111505E+03  0.7546771E-02  0.1259885E+00
          1   -1    0    0  503    0  0.00000000000E+00  0.00000000000E+00  0.72292195337E+02  0.72292195337E+02  0.00000000000E+00 0. -1.
         -1   -1    0    0    0  501 -0.00000000000E+00 -0.00000000000E+00 -0.42996537642E+03  0.42996537642E+03  0.00000000000E+00 0.  1.
         23    2    1    2    0    0 -0.44319217653E+02  0.71947689822E+02 -0.25250340630E+03  0.28245081351E+03  0.94232843179E+02 0.  0.
         23    2    1    2    0    0  0.28005637727E+02 -0.28841622386E+02 -0.23734800903E+02  0.10189417496E+03  0.90570012651E+02 0.  0.
        -11    1    4    4    0    0  0.41391907328E+01 -0.59658949917E+02 -0.10413343667E+02  0.60702231685E+02  0.00000000000E+00 0.  1.
         11    1    4    4    0    0  0.23866446994E+02  0.30817327532E+02 -0.13321457236E+02  0.41191943280E+02  0.00000000000E+00 0. -1.
        -11    1    3    3    0    0 -0.44987189215E+02  0.93822016610E+02 -0.19702857495E+03  0.22281534360E+03  0.00000000000E+00 0.  1.
         11    1    3    3    0    0  0.66797156172E+00 -0.21874326788E+02 -0.55474831350E+02  0.59635469913E+02  0.00000000000E+00 0. -1.
         21    1    1    2  502  501 -0.62760234568E+01 -0.38004392308E+02 -0.86068746843E+02  0.94295023666E+02  0.00000000000E+00 0.  1.
         21    1    1    2  503  502  0.22589603384E+02 -0.51016751291E+01  0.46337729690E+01  0.23617559613E+02  0.00000000000E+00 0. -1.
<scales pt_clust_5="13000.00000" pt_clust_6="13000.00000" pt_clust_7="13000.00000" pt_clust_8="13000.00000" pt_clust_9="38.64938" pt_clust_10="23.15852"></scales>
<clustering>
<clus scale="   23.159">  1 10  2 -1</clus>
<clus scale="   38.649">  2  9  1 -1</clus>
<clus scale="   90.570">  5  6 -1 -1</clus>
<clus scale="   94.233">  7  8 -1 -1</clus>
<clus scale="  108.063">  1  5  2 -1</clus>
<clus scale="   23.159">  1  5  2 -1</clus>
</clustering>
</event>
<event>
10    2  0.1133532E-006  0.1055671E+03  0.7546771E-02  0.1276107E+00
          1   -1    0    0  503    0  0.00000000000E+00  0.00000000000E+00  0.48658451446E+03  0.48658451446E+03  0.00000000000E+00 0. -1.
         -1   -1    0    0    0  501 -0.00000000000E+00 -0.00000000000E+00 -0.15174438136E+03  0.15174438136E+03  0.00000000000E+00 0.  1.
         23    2    1    2    0    0 -0.37740344449E+01  0.71125134706E+02 -0.80814107488E+01  0.12746849373E+03  0.10540341347E+03 0.  0.
         23    2    1    2    0    0  0.20037119575E+02  0.22373485324E+02  0.25509287514E+03  0.27279546160E+03  0.91885417320E+02 0.  0.
        -11    1    4    4    0    0 -0.26321426499E+02  0.10511919072E+02  0.25043123131E+02  0.37821633382E+02  0.00000000000E+00 0. -1.
         11    1    4    4    0    0  0.46358546074E+02  0.11861566252E+02  0.23004975201E+03  0.23497382822E+03  0.00000000000E+00 0.  1.
        -11    1    3    3    0    0 -0.12564561746E+02  0.96828093732E+02  0.40371724439E+01  0.97723317120E+02  0.00000000000E+00 0. -1.
         11    1    3    3    0    0  0.87905273012E+01 -0.25702959026E+02 -0.12118583193E+02  0.29745176609E+02  0.00000000000E+00 0.  1.
         21    1    1    2  502  501  0.16202299541E+02 -0.71267261674E+02 -0.54005348497E+02  0.90874169945E+02  0.00000000000E+00 0.  1.
         21    1    1    2  503  502 -0.32465384671E+02 -0.22231358356E+02  0.14183401721E+03  0.14719077054E+03  0.00000000000E+00 0. -1.
<scales pt_clust_5="13000.00000" pt_clust_6="13000.00000" pt_clust_7="13000.00000" pt_clust_8="13000.00000" pt_clust_9="73.89251" pt_clust_10="39.34761"></scales>
<clustering>
<clus scale="   39.348">  1 10  2 -1</clus>
<clus scale="   73.893">  2  9  1 -1</clus>
<clus scale="   91.885">  5  6 -1 -1</clus>
<clus scale="   92.073">  1  5  2 -1</clus>
<clus scale="  105.403">  7  8 -1 -1</clus>
<clus scale="   39.348">  1  5  2 -1</clus>
</clustering>
</event>
<event>
10    2  0.1133532E-006  0.1035697E+03  0.7546771E-02  0.1274898E+00
         -4   -1    0    0    0  501 -0.00000000000E+00  0.00000000000E+00  0.18094022163E+03  0.18094022163E+03  0.00000000000E+00 0.  1.
          4   -1    0    0  503    0  0.00000000000E+00 -0.00000000000E+00 -0.19943411391E+03  0.19943411391E+03  0.00000000000E+00 0. -1.
         23    2    1    2    0    0 -0.29411104814E+02  0.30356263487E+02  0.10315283126E+03  0.14239821366E+03  0.88601517133E+02 0.  0.
         23    2    1    2    0    0 -0.67666348508E+01 -0.33644792018E+02 -0.10383572509E+03  0.14345255157E+03  0.92838663118E+02 0.  0.
        -11    1    3    3    0    0 -0.29228798816E+02  0.55444907108E+02  0.98696130932E+02  0.11691615229E+03  0.00000000000E+00 0.  1.
         11    1    3    3    0    0 -0.18230599841E+00 -0.25088643621E+02  0.44567003273E+01  0.25482061377E+02  0.00000000000E+00 0. -1.
        -13    1    4    4    0    0 -0.35856544806E+02  0.10052304529E+02 -0.14756019530E+02  0.40055970144E+02  0.00000000000E+00 0.  1.
         13    1    4    4    0    0  0.29089909955E+02 -0.43697096547E+02 -0.89079705557E+02  0.10339658142E+03  0.00000000000E+00 0. -1.
         21    1    1    2  502  501  0.23512125449E+02  0.21776446200E+02  0.28620318691E+02  0.42966920930E+02  0.00000000000E+00 0. -1.
         21    1    1    2  503  502  0.12665614216E+02 -0.18487917669E+02 -0.46431317150E+02  0.51556649382E+02  0.00000000000E+00 0. -1.
<scales pt_clust_5="13000.00000" pt_clust_6="13000.00000" pt_clust_7="13000.00000" pt_clust_8="13000.00000" pt_clust_9="31.90895" pt_clust_10="22.41029"></scales>
<clustering>
<clus scale="   22.410">  2 10  1 -1</clus>
<clus scale="   31.909">  1  9  2 -1</clus>
<clus scale="   88.602">  5  6 -1 -1</clus>
<clus scale="   92.839">  7  8 -1 -1</clus>
<clus scale="   99.789">  1  5  2 -1</clus>
<clus scale="   22.410">  2  5  1 -1</clus>
</clustering>
</event>
<event>
10    2  0.1133532E-006  0.9041266E+02  0.7546771E-02  0.1302400E+00
         -2   -1    0    0    0  501 -0.00000000000E+00  0.00000000000E+00  0.16964199365E+03  0.16964199365E+03  0.00000000000E+00 0.  1.
          2   -1    0    0  503    0  0.00000000000E+00 -0.00000000000E+00 -0.12049008332E+03  0.12049008332E+03  0.00000000000E+00 0. -1.
         23    2    1    2    0    0  0.93394241803E+01  0.16417171503E+01  0.31152234564E+02  0.94814079191E+02  0.89046773189E+02 0.  0.
         23    2    1    2    0    0 -0.70341845010E+01  0.13089576876E+02  0.19241292708E+02  0.93178693971E+02  0.89951236182E+02 0.  0.
        -11    1    4    4    0    0 -0.27535759113E+02  0.45219481999E+02  0.13474279247E+02  0.54631271112E+02  0.00000000000E+00 0. -1.
         11    1    4    4    0    0  0.20501574612E+02 -0.32129905123E+02  0.57670134614E+01  0.38547422859E+02  0.00000000000E+00 0.  1.
        -13    1    3    3    0    0  0.40456897499E+02  0.21599930246E+02 -0.92231468452E+00  0.45871213263E+02  0.00000000000E+00 0. -1.
         13    1    3    3    0    0 -0.31117473319E+02 -0.19958213096E+02  0.32074549248E+02  0.48942865928E+02  0.00000000000E+00 0.  1.
         21    1    1    2  502  501 -0.23341315276E+02 -0.14568695152E+02  0.44200059570E+02  0.52064471026E+02  0.00000000000E+00 0.  1.
         21    1    1    2  503  502  0.21036075596E+02 -0.16259887392E+00 -0.45441676508E+02  0.50074832788E+02  0.00000000000E+00 0. -1.
<scales pt_clust_5="13000.00000" pt_clust_6="13000.00000" pt_clust_7="13000.00000" pt_clust_8="13000.00000" pt_clust_9="26.56165" pt_clust_10="21.03670"></scales>
<clustering>
<clus scale="   21.037">  2 10  1 -1</clus>
<clus scale="   26.562">  1  9  2 -1</clus>
<clus scale="   89.047">  7  8 -1 -1</clus>
<clus scale="   89.513">  1  7  2 -1</clus>
<clus scale="   89.951">  5  6 -1 -1</clus>
<clus scale="   21.037">  2  5  1 -1</clus>
</clustering>
</event>
<event>
10    2  0.1133532E-006  0.9757462E+02  0.7546771E-02  0.1286589E+00
          1   -1    0    0  503    0  0.00000000000E+00  0.00000000000E+00  0.89971890643E+02  0.89971890643E+02  0.00000000000E+00 0. -1.
         -1   -1    0    0    0  501 -0.00000000000E+00 -0.00000000000E+00 -0.44465161011E+03  0.44465161011E+03  0.00000000000E+00 0.  1.
         23    2    1    2    0    0 -0.51851721003E+01 -0.15257731673E+02 -0.15902179601E+03  0.18428461392E+03  0.91723513539E+02 0.  0.
         23    2    1    2    0    0 -0.35379862676E+02  0.21927585693E+02  0.30210954788E+02  0.10329066544E+03  0.89575142087E+02 0.  0.
        -11    1    4    4    0    0 -0.65823250694E+02  0.15656058099E+02  0.19484283356E+02  0.70409159809E+02  0.00000000000E+00 0. -1.
         11    1    4    4    0    0  0.30443388018E+02  0.62715275936E+01  0.10726671432E+02  0.32881505628E+02  0.00000000000E+00 0.  1.
        -13    1    3    3    0    0 -0.20855349018E+02  0.13597015523E+02 -0.32709190319E+01  0.25110223518E+02  0.00000000000E+00 0. -1.
         13    1    3    3    0    0  0.15670176918E+02 -0.28854747195E+02 -0.15575087698E+03  0.15917439040E+03  0.00000000000E+00 0.  1.
         21    1    1    2  502  501  0.23508806781E+02 -0.20657097719E+02 -0.22255272459E+03  0.22474228553E+03  0.00000000000E+00 0.  1.
         21    1    1    2  503  502  0.17056227995E+02  0.13987243698E+02 -0.33161536528E+01  0.22305935864E+02  0.00000000000E+00 0.  1.
<scales pt_clust_5="13000.00000" pt_clust_6="13000.00000" pt_clust_7="13000.00000" pt_clust_8="13000.00000" pt_clust_9="31.34514" pt_clust_10="22.05806"></scales>
<clustering>
<clus scale="   22.058">  1 10  2 -1</clus>
<clus scale="   31.345">  2  9  1 -1</clus>
<clus scale="   89.575">  5  6 -1 -1</clus>
<clus scale="   91.724">  7  8 -1 -1</clus>
<clus scale="   95.558">  1  5  2 -1</clus>
<clus scale="   22.058">  1  5  2 -1</clus>
</clustering>
</event>
<event>
10    2  0.1133532E-006  0.1325751E+03  0.7546771E-02  0.1224362E+00
          2   -1    0    0  503    0  0.00000000000E+00  0.00000000000E+00  0.21658589570E+03  0.21658589570E+03  0.00000000000E+00 0. -1.
         -2   -1    0    0    0  501 -0.00000000000E+00 -0.00000000000E+00 -0.19893409676E+03  0.19893409676E+03  0.00000000000E+00 0.  1.
         23    2    1    2    0    0  0.69753958126E+02 -0.27337214916E+02 -0.77569110738E+02  0.14049968758E+03  0.90056966834E+02 0.  0.
         23    2    1    2    0    0 -0.68798328745E+02  0.67098218004E+02  0.96540340811E+02  0.16479091563E+03  0.92739568532E+02 0.  0.
        -13    1    3    3    0    0  0.21537198272E+02 -0.51370916951E+02 -0.14512786368E+02  0.57562513722E+02  0.00000000000E+00 0. -1.
         13    1    3    3    0    0  0.48216759854E+02  0.24033702035E+02 -0.63056324370E+02  0.82937173857E+02  0.00000000000E+00 0.  1.
        -13    1    4    4    0    0 -0.17458143979E+02 -0.17851843410E+02  0.48428048489E+02  0.54486245831E+02  0.00000000000E+00 0. -1.
         13    1    4    4    0    0 -0.51340184766E+02  0.84950061414E+02  0.48112292323E+02  0.11030466979E+03  0.00000000000E+00 0.  1.
         21    1    1    2  502  501  0.20302694515E+02 -0.28898250234E+02 -0.46938593844E+02  0.58741296063E+02  0.00000000000E+00 0. -1.
         21    1    1    2  503  502 -0.21258323896E+02 -0.10862752853E+02  0.45619162714E+02  0.51488093198E+02  0.00000000000E+00 0. -1.
<scales pt_clust_5="13000.00000" pt_clust_6="13000.00000" pt_clust_7="13000.00000" pt_clust_8="13000.00000" pt_clust_9="35.21001" pt_clust_10="23.87291"></scales>
<clustering>
<clus scale="   23.873">  1 10  2 -1</clus>
<clus scale="   35.210">  2  9  1 -1</clus>
<clus scale="   90.057">  5  6 -1 -1</clus>
<clus scale="   92.740">  7  8 -1 -1</clus>
<clus scale="  130.713">  2  5  1 -1</clus>
<clus scale="   23.873">  1  5  2 -1</clus>
</clustering>
</event>
<event>
10    2  0.1133532E-006  0.1609894E+03  0.7546771E-02  0.1188135E+00
          3   -1    0    0  503    0  0.00000000000E+00  0.00000000000E+00  0.33926223941E+03  0.33926223941E+03  0.00000000000E+00 0. -1.
         -3   -1    0    0    0  501 -0.00000000000E+00 -0.00000000000E+00 -0.25213781991E+03  0.25213781991E+03  0.00000000000E+00 0.  1.
         23    2    1    2    0    0 -0.85887825809E+02  0.11689348582E+03 -0.34662225363E+02  0.17529620131E+03  0.92122107418E+02 0.  0.
         23    2    1    2    0    0 -0.31331347955E+02 -0.13631159901E+03 -0.18669933886E+02  0.17036238914E+03  0.95458220243E+02 0.  0.
        -13    1    4    4    0    0  0.26830093366E+02 -0.10302915512E+02 -0.12780036386E+02  0.31453669231E+02  0.00000000000E+00 0.  1.
         13    1    4    4    0    0 -0.58161441321E+02 -0.12600868350E+03 -0.58898975000E+01  0.13890871990E+03  0.00000000000E+00 0. -1.
        -13    1    3    3    0    0 -0.17928989358E+02  0.99717678698E+02 -0.14430724742E+02  0.10233919054E+03  0.00000000000E+00 0.  1.
         13    1    3    3    0    0 -0.67958836450E+02  0.17175807124E+02 -0.20231500621E+02  0.72957010762E+02  0.00000000000E+00 0. -1.
         21    1    1    2  502  501  0.10912421350E+03 -0.21755902472E+02  0.13569882802E+02  0.11209618630E+03  0.00000000000E+00 0.  1.
         21    1    1    2  503  502  0.80949602636E+01  0.41174015658E+02  0.12688669594E+03  0.13364528258E+03  0.00000000000E+00 0. -1.
<scales pt_clust_5="13000.00000" pt_clust_6="13000.00000" pt_clust_7="13000.00000" pt_clust_8="13000.00000" pt_clust_9="111.95132" pt_clust_10="41.96222"></scales>
<clustering>
<clus scale="   41.962">  1 10  2 -1</clus>
<clus scale="   92.122">  7  8 -1 -1</clus>
<clus scale="   95.458">  5  6 -1 -1</clus>
<clus scale="  111.951">  1  9  2 -1</clus>
<clus scale="  159.034">  2  7  1 -1</clus>
<clus scale="   41.962">  1  5  2 -1</clus>
</clustering>
</event>
<event>
10    2  0.1133532E-006  0.1004121E+03  0.7546771E-02  0.1281572E+00
          1   -1    0    0  503    0  0.00000000000E+00  0.00000000000E+00  0.84165797790E+03  0.84165797790E+03  0.00000000000E+00 0. -1.
         -1   -1    0    0    0  501 -0.00000000000E+00 -0.00000000000E+00 -0.42726309924E+02  0.42726309924E+02  0.00000000000E+00 0.  1.
         23    2    1    2    0    0  0.22681854169E+02  0.70149597483E+02  0.18752137919E+03  0.22130552672E+03  0.91522871300E+02 0.  0.
         23    2    1    2    0    0  0.16915517931E+02 -0.30410860596E+02  0.47667319736E+03  0.48581549141E+03  0.87111419604E+02 0.  0.
        -11    1    4    4    0    0  0.43163833608E+02  0.11060148815E+02  0.24133353363E+03  0.24541254629E+03  0.00000000000E+00 0. -1.
         11    1    4    4    0    0 -0.26248315676E+02 -0.41471009411E+02  0.23533966373E+03  0.24040294512E+03  0.00000000000E+00 0.  1.
        -13    1    3    3    0    0  0.25078659226E+02  0.92094460294E+02  0.15204502736E+03  0.17952163967E+03  0.00000000000E+00 0.  1.
         13    1    3    3    0    0 -0.23968050573E+01 -0.21944862811E+02  0.35476351825E+02  0.41783887051E+02  0.00000000000E+00 0. -1.
         21    1    1    2  502  501 -0.16650108283E+02 -0.37107694579E+02  0.11299319133E+00  0.40672101867E+02  0.00000000000E+00 0.  1.
         21    1    1    2  503  502 -0.22947263817E+02 -0.26310423076E+01  0.13462409825E+03  0.13659116783E+03  0.00000000000E+00 0.  1.
<scales pt_clust_5="13000.00000" pt_clust_6="13000.00000" pt_clust_7="13000.00000" pt_clust_8="13000.00000" pt_clust_9="41.01661" pt_clust_10="23.09760"></scales>
<clustering>
<clus scale="   23.098">  1 10  2 -1</clus>
<clus scale="   41.017">  2  9  1 -1</clus>
<clus scale="   87.111">  5  6 -1 -1</clus>
<clus scale="   91.523">  7  8 -1 -1</clus>
<clus scale="   96.408">  1  5  2 -1</clus>
<clus scale="   23.098">  1  5  2 -1</clus>
</clustering>
</event>
<event>
10    2  0.1133532E-006  0.1768790E+03  0.7546771E-02  0.1172795E+00
          1   -1    0    0  503    0  0.00000000000E+00  0.00000000000E+00  0.41404468439E+03  0.41404468439E+03  0.00000000000E+00 0. -1.
         -1   -1    0    0    0  501 -0.00000000000E+00 -0.00000000000E+00 -0.27285892345E+03  0.27285892345E+03  0.00000000000E+00 0.  1.
         23    2    1    2    0    0  0.70362998192E+02  0.45907648348E+02 -0.11554166295E+03  0.17800976343E+03  0.10620327824E+03 0.  0.
         23    2    1    2    0    0 -0.16735189569E+03 -0.23728645366E+02  0.20348997894E+03  0.28037900694E+03  0.92922066288E+02 0.  0.
        -11    1    4    4    0    0 -0.71245017068E+02 -0.11597731787E+02  0.23385646545E+02  0.75876533289E+02  0.00000000000E+00 0.  1.
         11    1    4    4    0    0 -0.96106878620E+02 -0.12130913579E+02  0.18010433240E+03  0.20450247366E+03  0.00000000000E+00 0. -1.
        -13    1    3    3    0    0  0.84585938045E+02  0.63186948864E+02 -0.68332517302E+02  0.12576447965E+03  0.00000000000E+00 0.  1.
         13    1    3    3    0    0 -0.14222939853E+02 -0.17279300516E+02 -0.47209145645E+02  0.52245283777E+02  0.00000000000E+00 0. -1.
         21    1    1    2  502  501  0.86562132634E+02 -0.60871601342E+02 -0.50538180996E+02  0.11727089321E+03  0.00000000000E+00 0.  1.
         21    1    1    2  503  502  0.10426764862E+02  0.38692598359E+02  0.10377562594E+03  0.11124394425E+03  0.00000000000E+00 0.  1.
<scales pt_clust_5="13000.00000" pt_clust_6="13000.00000" pt_clust_7="13000.00000" pt_clust_8="13000.00000" pt_clust_9="104.40845" pt_clust_10="40.07287"></scales>
<clustering>
<clus scale="   40.073">  1 10  2 -1</clus>
<clus scale="   92.922">  5  6 -1 -1</clus>
<clus scale="  104.408">  2  9  1 -1</clus>
<clus scale="  106.203">  7  8 -1 -1</clus>
<clus scale="  169.238">  1  5  2 -1</clus>
<clus scale="   40.073">  1  5  2 -1</clus>
</clustering>
</event>
<event>
10    2  0.1133532E-006  0.1401387E+03  0.7546771E-02  0.1214127E+00
         -2   -1    0    0    0  501 -0.00000000000E+00  0.00000000000E+00  0.10995631426E+03  0.10995631426E+03  0.00000000000E+00 0.  1.
          2   -1    0    0  503    0  0.00000000000E+00 -0.00000000000E+00 -0.55072096596E+03  0.55072096596E+03  0.00000000000E+00 0. -1.
         23    2    1    2    0    0  0.75443966207E+02 -0.16443379827E+01 -0.68168257207E+02  0.13770479286E+03  0.92850432431E+02 0.  0.
         23    2    1    2    0    0 -0.13148083683E+03 -0.19361980262E+02 -0.38646518617E+03  0.41813287301E+03  0.88417547103E+02 0.  0.
        -11    1    3    3    0    0 -0.53347805086E+01 -0.30807053277E+02 -0.63909525113E+01  0.31912046138E+02  0.00000000000E+00 0. -1.
         11    1    3    3    0    0  0.80778746716E+02  0.29162715295E+02 -0.61777304696E+02  0.10579274673E+03  0.00000000000E+00 0.  1.
        -11    1    4    4    0    0 -0.79959635500E+02  0.13822257854E+02 -0.30834415314E+03  0.31884277457E+03  0.00000000000E+00 0. -1.
         11    1    4    4    0    0 -0.51521201333E+02 -0.33184238116E+02 -0.78121033036E+02  0.99290098443E+02  0.00000000000E+00 0.  1.
         21    1    1    2  502  501  0.34483612848E+02  0.17892785294E+02  0.49594980320E+02  0.62999471376E+02  0.00000000000E+00 0.  1.
         21    1    1    2  503  502  0.21553257777E+02  0.31135329501E+01 -0.35726188646E+02  0.41840142966E+02  0.00000000000E+00 0. -1.
<scales pt_clust_5="13000.00000" pt_clust_6="13000.00000" pt_clust_7="13000.00000" pt_clust_8="13000.00000" pt_clust_9="39.11869" pt_clust_10="21.77698"></scales>
<clustering>
<clus scale="   21.777">  2 10  1 -1</clus>
<clus scale="   39.119">  1  9  2 -1</clus>
<clus scale="   88.418">  7  8 -1 -1</clus>
<clus scale="   92.850">  5  6 -1 -1</clus>
<clus scale="  137.242">  2  7  1 -1</clus>
<clus scale="   21.777">  2  5  1 -1</clus>
</clustering>
</event>
<event>
10    2  0.1133532E-006  0.2457296E+03  0.7546771E-02  0.1116145E+00
         -3   -1    0    0    0  501 -0.00000000000E+00  0.00000000000E+00  0.14334807060E+04  0.14334807060E+04  0.00000000000E+00 0.  1.
          3   -1    0    0  502    0  0.00000000000E+00 -0.00000000000E+00 -0.82023701136E+02  0.82023701136E+02  0.00000000000E+00 0. -1.
         23    2    1    2    0    0  0.13272171848E+03 -0.21664087539E+03  0.95271137985E+03  0.99022622295E+03  0.91327300856E+02 0.  0.
         23    2    1    2    0    0 -0.83660776404E+02  0.20569880391E+03  0.19597059035E+03  0.30938573217E+03  0.89464716782E+02 0.  0.
        -13    1    4    4    0    0 -0.63352142400E+02  0.16078060992E+03  0.19434206810E+03  0.26006294989E+03  0.00000000000E+00 0.  1.
         13    1    4    4    0    0 -0.20308634005E+02  0.44918193995E+02  0.16285222459E+01  0.49322782278E+02  0.00000000000E+00 0. -1.
        -13    1    3    3    0    0  0.16773386461E+02 -0.48681756116E+02  0.89869786797E+02  0.10357527915E+03  0.00000000000E+00 0. -1.
         13    1    3    3    0    0  0.11594833202E+03 -0.16795911927E+03  0.86284159305E+03  0.88665094380E+03  0.00000000000E+00 0.  1.
         21    1    1    2  502  503 -0.38967300755E+02 -0.17732932184E+02  0.13465278308E+03  0.14129500841E+03  0.00000000000E+00 0.  1.
         21    1    1    2  503  501 -0.10093641322E+02  0.28675003658E+02  0.68122251576E+02  0.74597443587E+02  0.00000000000E+00 0.  1.
<scales pt_clust_5="13000.00000" pt_clust_6="13000.00000" pt_clust_7="13000.00000" pt_clust_8="13000.00000" pt_clust_9="42.65041" pt_clust_10="30.39963"></scales>
<clustering>
<clus scale="   30.400">  1 10  2 -1</clus>
<clus scale="   42.650">  1  9  2 -1</clus>
<clus scale="   89.465">  5  6 -1 -1</clus>
<clus scale="   91.327">  7  8 -1 -1</clus>
<clus scale="  245.043">  2  5  1 -1</clus>
<clus scale="  245.043">  2  5  1 -1</clus>
</clustering>
</event>
<event>
10    2  0.1133532E-006  0.2571161E+03  0.7546771E-02  0.1118710E+00
          4   -1    0    0  502    0  0.00000000000E+00  0.00000000000E+00  0.32466099840E+03  0.32466099840E+03  0.00000000000E+00 0. -1.
         -4   -1    0    0    0  501 -0.00000000000E+00 -0.00000000000E+00 -0.48247204951E+03  0.48247204951E+03  0.00000000000E+00 0.  1.
         23    2    1    2    0    0  0.23260811447E+03 -0.17219646512E+03 -0.24385599605E+03  0.38942949395E+03  0.91822799069E+02 0.  0.
         23    2    1    2    0    0 -0.18537998865E+03 -0.18209025086E+02  0.67499669401E+02  0.21160907978E+03  0.74329593621E+02 0.  0.
        -11    1    4    4    0    0 -0.86209751971E+02 -0.28477866760E+02 -0.73496641477E+00  0.90794550529E+02  0.00000000000E+00 0. -1.
         11    1    4    4    0    0 -0.99170236680E+02  0.10268841674E+02  0.68234635816E+02  0.12081452925E+03  0.00000000000E+00 0.  1.
        -11    1    3    3    0    0  0.20714560047E+03 -0.16432204249E+03 -0.17896869710E+03  0.31928173763E+03  0.00000000000E+00 0.  1.
         11    1    3    3    0    0  0.25462514006E+02 -0.78744226264E+01 -0.64887298957E+02  0.70147756323E+02  0.00000000000E+00 0. -1.
         21    1    1    2  502  503 -0.36841011893E+02  0.52388088445E+02  0.21785183472E+02  0.67648844684E+02  0.00000000000E+00 0.  1.
         21    1    1    2  503  501 -0.10387113931E+02  0.13801740176E+03 -0.32399079285E+01  0.13844562950E+03  0.00000000000E+00 0. -1.
<scales pt_clust_5="13000.00000" pt_clust_6="13000.00000" pt_clust_7="13000.00000" pt_clust_8="13000.00000" pt_clust_9="41.07584" pt_clust_10="247.63591"></scales>
<clustering>
<clus scale="   41.076">  9 10 -1 -1</clus>
<clus scale="   74.330">  5  6 -1 -1</clus>
<clus scale="   91.823">  7  8 -1 -1</clus>
<clus scale="  200.555">  1  5  2 -1</clus>
<clus scale="  247.636">  1  9  2 -1</clus>
<clus scale="  200.555">  1  5  2 -1</clus>
</clustering>
</event>
<event>
10    2  0.1133532E-006  0.1397317E+03  0.7546771E-02  0.1214845E+00
          2   -1    0    0  503    0  0.00000000000E+00  0.00000000000E+00  0.75955745765E+03  0.75955745765E+03  0.00000000000E+00 0. -1.
         -2   -1    0    0    0  501 -0.00000000000E+00 -0.00000000000E+00 -0.41558368916E+03  0.41558368916E+03  0.00000000000E+00 0.  1.
         23    2    1    2    0    0 -0.14794868131E+03  0.90326665560E+02 -0.83689109953E+02  0.21348238809E+03  0.92320875693E+02 0.  0.
         23    2    1    2    0    0  0.65443199232E+02 -0.83446613946E+02  0.65075549920E+03  0.66647190098E+03  0.97241582425E+02 0.  0.
        -13    1    3    3    0    0 -0.10618440360E+03  0.71845338234E+02 -0.10244606204E+03  0.16410995040E+03  0.00000000000E+00 0.  1.
         13    1    3    3    0    0 -0.41764277705E+02  0.18481327326E+02  0.18756952083E+02  0.49372437689E+02  0.00000000000E+00 0. -1.
        -13    1    4    4    0    0 -0.12780983872E+02 -0.61246860042E+02  0.28498723116E+03  0.29177431919E+03  0.00000000000E+00 0.  1.
         13    1    4    4    0    0  0.78224183103E+02 -0.22199753905E+02  0.36576826803E+03  0.37469758179E+03  0.00000000000E+00 0. -1.
         21    1    1    2  502  501  0.76625129161E+02 -0.29291060518E+02 -0.24797257333E+03  0.26118915324E+03  0.00000000000E+00 0.  1.
         21    1    1    2  503  502  0.58803529158E+01  0.22411008904E+02  0.24879952581E+02  0.33997704496E+02  0.00000000000E+00 0.  1.
<scales pt_clust_5="13000.00000" pt_clust_6="13000.00000" pt_clust_7="13000.00000" pt_clust_8="13000.00000" pt_clust_9="82.01033" pt_clust_10="23.16963"></scales>
<clustering>
<clus scale="   23.170">  1 10  2 -1</clus>
<clus scale="   82.010">  2  9  1 -1</clus>
<clus scale="   92.321">  5  6 -1 -1</clus>
<clus scale="   97.242">  7  8 -1 -1</clus>
<clus scale="  136.353">  2  5  1 -1</clus>
<clus scale="   23.170">  1  5  2 -1</clus>
</clustering>
</event>
<event>
10    2  0.1133532E-006  0.9772684E+02  0.7546771E-02  0.1287562E+00
         -2   -1    0    0    0  501 -0.00000000000E+00  0.00000000000E+00  0.54855960745E+02  0.54855960745E+02  0.00000000000E+00 0.  1.
          2   -1    0    0  503    0  0.00000000000E+00 -0.00000000000E+00 -0.49095239480E+03  0.49095239480E+03  0.00000000000E+00 0. -1.
         23    2    1    2    0    0  0.10484697172E+02 -0.36150979560E+02 -0.81702473729E+02  0.13070840357E+03  0.94829164041E+02 0.  0.
         23    2    1    2    0    0  0.33414352798E+02  0.24093200764E+00 -0.24047336743E+03  0.25905036693E+03  0.90349737922E+02 0.  0.
        -11    1    4    4    0    0  0.63959157610E+02  0.51015472299E+01 -0.18062340493E+03  0.19168102159E+03  0.00000000000E+00 0. -1.
         11    1    4    4    0    0 -0.30544804812E+02 -0.48606152223E+01 -0.59849962501E+02  0.67369345349E+02  0.00000000000E+00 0.  1.
        -11    1    3    3    0    0 -0.34167148534E+02 -0.27770298162E+02 -0.71777113061E+02  0.84205329156E+02  0.00000000000E+00 0.  1.
         11    1    3    3    0    0  0.44651845706E+02 -0.83806813977E+01 -0.99253606683E+01  0.46503074415E+02  0.00000000000E+00 0. -1.
         21    1    1    2  502  501  0.18674465376E+02 -0.16280672926E+02 -0.21137312961E+02  0.32566577456E+02  0.00000000000E+00 0. -1.
         21    1    1    2  503  502 -0.62573515347E+02  0.52190720478E+02 -0.92783279931E+02  0.12348300758E+03  0.00000000000E+00 0.  1.
<scales pt_clust_5="13000.00000" pt_clust_6="13000.00000" pt_clust_7="13000.00000" pt_clust_8="13000.00000" pt_clust_9="24.77491" pt_clust_10="73.74531"></scales>
<clustering>
<clus scale="   24.775">  1  9  2 -1</clus>
<clus scale="   73.745">  1 10  2 -1</clus>
<clus scale="   90.350">  5  6 -1 -1</clus>
<clus scale="   93.387">  2  5  1 -1</clus>
<clus scale="   94.829">  7  8 -1 -1</clus>
<clus scale="   93.387">  2  5  1 -1</clus>
</clustering>
</event>
<event>
10    2  0.1133532E-006  0.1145525E+03  0.7546771E-02  0.1253000E+00
          2   -1    0    0  503    0  0.00000000000E+00  0.00000000000E+00  0.19834293804E+03  0.19834293804E+03  0.00000000000E+00 0. -1.
         -2   -1    0    0    0  501 -0.00000000000E+00 -0.00000000000E+00 -0.13101779436E+03  0.13101779436E+03  0.00000000000E+00 0.  1.
         23    2    1    2    0    0  0.45101847336E+02 -0.30641587170E+02 -0.28091578439E+02  0.10908214811E+03  0.90203629409E+02 0.  0.
         23    2    1    2    0    0 -0.59799401332E+02  0.42452848052E+02  0.11070318923E+03  0.16154883848E+03  0.92003360814E+02 0.  0.
        -11    1    4    4    0    0 -0.61872577373E+02  0.70200470096E+01  0.22056403143E+02  0.66060440585E+02  0.00000000000E+00 0.  1.
         11    1    4    4    0    0  0.20731760408E+01  0.35432801042E+02  0.88646786092E+02  0.95488397897E+02  0.00000000000E+00 0. -1.
        -13    1    3    3    0    0  0.62488843383E+02 -0.23186682886E+00 -0.37413986161E+02  0.72833479047E+02  0.00000000000E+00 0. -1.
         13    1    3    3    0    0 -0.17386996047E+02 -0.30409720342E+02  0.93224077217E+01  0.36248669059E+02  0.00000000000E+00 0.  1.
         21    1    1    2  502  501  0.14462825544E+02  0.20071684316E+02 -0.82483949982E+01  0.26078379053E+02  0.00000000000E+00 0. -1.
         21    1    1    2  503  502  0.23472845108E+00 -0.31882945197E+02 -0.70380721128E+01  0.32651366755E+02  0.00000000000E+00 0.  1.
<scales pt_clust_5="13000.00000" pt_clust_6="13000.00000" pt_clust_7="13000.00000" pt_clust_8="13000.00000" pt_clust_9="24.73956" pt_clust_10="28.51791"></scales>
<clustering>
<clus scale="   24.740">  2  9  1 -1</clus>
<clus scale="   28.518">  2 10  1 -1</clus>
<clus scale="   90.204">  7  8 -1 -1</clus>
<clus scale="   92.003">  5  6 -1 -1</clus>
<clus scale="  113.112">  2  7  1 -1</clus>
<clus scale="  114.552">  1  5  2 -1</clus>
</clustering>
</event>
<event>
10    2  0.1767678E-006  0.1046668E+03  0.7546771E-02  0.1282439E+00
          1   -1    0    0  503    0  0.00000000000E+00  0.00000000000E+00  0.29592965283E+03  0.29592965283E+03  0.00000000000E+00 0. -1.
         -1   -1    0    0    0  501 -0.00000000000E+00 -0.00000000000E+00 -0.12749025650E+03  0.12749025650E+03  0.00000000000E+00 0.  1.
         23    2    1    2    0    0  0.70549556178E+01  0.93476674992E+01 -0.59330740897E+02  0.10267610000E+03  0.82976462984E+02 0.  0.
         23    2    1    2    0    0  0.94148054726E+01  0.42537341392E+02  0.20356073104E+03  0.23273130711E+03  0.10406164575E+03 0.  0.
        -13    1    3    3    0    0 -0.19076074502E+02 -0.30289819396E+02 -0.19865820521E+02  0.40939230604E+02  0.00000000000E+00 0.  1.
         13    1    3    3    0    0  0.26131030120E+02  0.39637486895E+02 -0.39464920376E+02  0.61736869396E+02  0.00000000000E+00 0. -1.
        -13    1    4    4    0    0 -0.31643232116E+02  0.21447117003E+02  0.17346843450E+03  0.17763043302E+03  0.00000000000E+00 0. -1.
         13    1    4    4    0    0  0.41058037588E+02  0.21090224388E+02  0.30092296539E+02  0.55100874098E+02  0.00000000000E+00 0.  1.
         21    1    1    2  502  501 -0.14445498764E+01 -0.20356599069E+02 -0.22053056568E+02  0.30046882600E+02  0.00000000000E+00 0.  1.
         21    1    1    2  503  502 -0.15025211214E+02 -0.31528409822E+02  0.46262462753E+02  0.57965619620E+02  0.00000000000E+00 0.  1.
<scales pt_clust_5="13000.00000" pt_clust_6="13000.00000" pt_clust_7="13000.00000" pt_clust_8="13000.00000" pt_clust_9="20.40779" pt_clust_10="36.02406"></scales>
<clustering>
<clus scale="   20.408">  2  9  1 -1</clus>
<clus scale="   36.024">  1 10  2 -1</clus>
<clus scale="   82.976">  5  6 -1 -1</clus>
<clus scale="   83.734">  2  5  1 -1</clus>
<clus scale="  104.062">  7  8 -1 -1</clus>
<clus scale="   36.024">  1  5  2 -1</clus>
</clustering>
</event>
<event>
10    2  0.1133532E-006  0.3301416E+03  0.7546771E-02  0.1071086E+00
          3   -1    0    0  503    0  0.00000000000E+00  0.00000000000E+00  0.29116455151E+03  0.29116455151E+03  0.00000000000E+00 0. -1.
         -3   -1    0    0    0  501 -0.00000000000E+00 -0.00000000000E+00 -0.88129302122E+03  0.88129302122E+03  0.00000000000E+00 0.  1.
         23    2    1    2    0    0 -0.31682140720E+03  0.39362839858E+02 -0.29029955399E+03  0.44098047013E+03  0.90910432658E+02 0.  0.
         23    2    1    2    0    0  0.31375183492E+03  0.72221998254E+02  0.54953798183E+02  0.33912983054E+03  0.91284670555E+02 0.  0.
        -13    1    3    3    0    0 -0.98166138957E+02 -0.43730670079E+01 -0.14382937668E+03  0.17419128609E+03  0.00000000000E+00 0. -1.
         13    1    3    3    0    0 -0.21865526825E+03  0.43735906866E+02 -0.14647017731E+03  0.26678918404E+03  0.00000000000E+00 0.  1.
        -13    1    4    4    0    0  0.21203132555E+03  0.74684807323E+02  0.71813600134E+02  0.23599215374E+03  0.00000000000E+00 0. -1.
         13    1    4    4    0    0  0.10172050936E+03 -0.24628090687E+01 -0.16859801951E+02  0.10313767680E+03  0.00000000000E+00 0.  1.
         21    1    1    2  502  501  0.37847100791E+02 -0.10720507350E+02 -0.20325648726E+03  0.20702785303E+03  0.00000000000E+00 0. -1.
         21    1    1    2  503  502 -0.34777528504E+02 -0.10086433076E+03 -0.15152622664E+03  0.18531941903E+03  0.00000000000E+00 0.  1.
<scales pt_clust_5="13000.00000" pt_clust_6="13000.00000" pt_clust_7="13000.00000" pt_clust_8="13000.00000" pt_clust_9="39.33615" pt_clust_10="106.59300"></scales>
<clustering>
<clus scale="   39.336">  2  9  1 -1</clus>
<clus scale="   90.910">  5  6 -1 -1</clus>
<clus scale="   91.285">  7  8 -1 -1</clus>
<clus scale="  106.593">  2 10  1 -1</clus>
<clus scale="  330.038">  2  5  1 -1</clus>
<clus scale="  330.142">  1  5  2 -1</clus>
</clustering>
</event>
<event>
10    2  0.1133532E-006  0.9949410E+02  0.7546771E-02  0.1287080E+00
         -1   -1    0    0    0  501 -0.00000000000E+00  0.00000000000E+00  0.79283794554E+02  0.79283794554E+02  0.00000000000E+00 0.  1.
          1   -1    0    0  502    0  0.00000000000E+00 -0.00000000000E+00 -0.37240908687E+03  0.37240908687E+03  0.00000000000E+00 0. -1.
         23    2    1    2    0    0  0.19317265013E+02  0.39096112724E+01  0.20929610209E+02  0.83495199180E+02  0.78389781954E+02 0.  0.
         23    2    1    2    0    0 -0.43676757052E+02  0.47308322936E+02 -0.25202609554E+03  0.27519418087E+03  0.89827322284E+02 0.  0.
        -11    1    3    3    0    0  0.46957827076E+02 -0.12188368660E+02  0.89127704451E+01  0.49325767418E+02  0.00000000000E+00 0.  1.
         11    1    3    3    0    0 -0.27640562063E+02  0.16097979932E+02  0.12016839763E+02  0.34169431762E+02  0.00000000000E+00 0. -1.
        -13    1    4    4    0    0 -0.35542599849E+02 -0.15766734214E+02 -0.15010011834E+03  0.15505454472E+03  0.00000000000E+00 0.  1.
         13    1    4    4    0    0 -0.81341572032E+01  0.63075057150E+02 -0.10192597720E+03  0.12013963615E+03  0.00000000000E+00 0. -1.
         21    1    1    2  502  503 -0.40085841288E+00 -0.29665218820E+02 -0.49810806676E+02  0.57976739791E+02  0.00000000000E+00 0.  1.
         21    1    1    2  503  501  0.24760350452E+02 -0.21552715389E+02 -0.12218000311E+02  0.35026761579E+02  0.00000000000E+00 0. -1.
<scales pt_clust_5="13000.00000" pt_clust_6="13000.00000" pt_clust_7="13000.00000" pt_clust_8="13000.00000" pt_clust_9="29.66793" pt_clust_10="34.28993"></scales>
<clustering>
<clus scale="   29.668">  2  9  1 -1</clus>
<clus scale="   34.290">  1 10  2 -1</clus>
<clus scale="   78.390">  5  6 -1 -1</clus>
<clus scale="   89.303">  1  5  2 -1</clus>
<clus scale="   89.827">  7  8 -1 -1</clus>
<clus scale="   29.668">  2  5  1 -1</clus>
</clustering>
</event>
<event>
10    2  0.1133532E-006  0.1752644E+03  0.7546771E-02  0.1172575E+00
          2   -1    0    0  503    0  0.00000000000E+00  0.00000000000E+00  0.84828960827E+03  0.84828960827E+03  0.00000000000E+00 0. -1.
         -2   -1    0    0    0  501 -0.00000000000E+00 -0.00000000000E+00 -0.11291334371E+03  0.11291334371E+03  0.00000000000E+00 0.  1.
         23    2    1    2    0    0  0.42315984546E+02 -0.14930194101E+03  0.36800169424E+02  0.18388595494E+03  0.91531851385E+02 0.  0.
         23    2    1    2    0    0 -0.84698752986E+02  0.14556771572E+03  0.65201485470E+03  0.67971827908E+03  0.92356535010E+02 0.  0.
        -13    1    3    3    0    0  0.68741793630E+02 -0.12458259986E+03  0.39292847605E+02  0.14761499332E+03  0.00000000000E+00 0. -1.
         13    1    3    3    0    0 -0.26425809084E+02 -0.24719341148E+02 -0.24926781809E+01  0.36270961623E+02  0.00000000000E+00 0.  1.
        -13    1    4    4    0    0 -0.34296477800E+02 -0.36072455264E+01  0.10776628196E+03  0.11314960070E+03  0.00000000000E+00 0.  1.
         13    1    4    4    0    0 -0.50402275186E+02  0.14917496125E+03  0.54424857273E+03  0.56656867839E+03  0.00000000000E+00 0. -1.
         21    1    1    2  502  501  0.40425876249E+02  0.31263670679E+02  0.10472665059E+02  0.52166515010E+02  0.00000000000E+00 0. -1.
         21    1    1    2  503  502  0.19568921910E+01 -0.27529445391E+02  0.36088575379E+02  0.45432202934E+02  0.00000000000E+00 0. -1.
<scales pt_clust_5="13000.00000" pt_clust_6="13000.00000" pt_clust_7="13000.00000" pt_clust_8="13000.00000" pt_clust_9="50.51920" pt_clust_10="27.59891"></scales>
<clustering>
<clus scale="   27.599">  1 10  2 -1</clus>
<clus scale="   50.519">  2  9  1 -1</clus>
<clus scale="   91.532">  5  6 -1 -1</clus>
<clus scale="   92.357">  7  8 -1 -1</clus>
<clus scale="  174.831">  2  5  1 -1</clus>
<clus scale="   27.599">  1  5  2 -1</clus>
</clustering>
</event>
<event>
10    2  0.1133532E-006  0.4055950E+03  0.7546771E-02  0.1041896E+00
          4   -1    0    0  503    0  0.00000000000E+00  0.00000000000E+00  0.84684853374E+03  0.84684853374E+03  0.00000000000E+00 0. -1.
         -4   -1    0    0    0  501 -0.00000000000E+00 -0.00000000000E+00 -0.45208373166E+03  0.45208373166E+03  0.00000000000E+00 0.  1.
         23    2    1    2    0    0 -0.22687055253E+02  0.35180450967E+03  0.63244530254E+02  0.36986559649E+03  0.92301534981E+02 0.  0.
         23    2    1    2    0    0  0.10481965019E+02 -0.41066928728E+03  0.42138954831E+03  0.59540125714E+03  0.90412225221E+02 0.  0.
        -13    1    3    3    0    0  0.24198268380E+02  0.50168454559E+02  0.28700816526E+02  0.62659132572E+02  0.00000000000E+00 0. -1.
         13    1    3    3    0    0 -0.46885323632E+02  0.30163605511E+03  0.34543713728E+02  0.30720646392E+03  0.00000000000E+00 0.  1.
        -13    1    4    4    0    0 -0.12998045790E+02 -0.35820120875E+03  0.39080735575E+03  0.53028996262E+03  0.00000000000E+00 0. -1.
         13    1    4    4    0    0  0.23480010809E+02 -0.52468078529E+02  0.30582192559E+02  0.65111294518E+02  0.00000000000E+00 0.  1.
         21    1    1    2  502  501  0.16112592356E+02  0.80945343530E+02 -0.20257914332E+03  0.21874659673E+03  0.00000000000E+00 0.  1.
         21    1    1    2  503  502 -0.39075021229E+01 -0.22080565920E+02  0.11270986685E+03  0.11491881503E+03  0.00000000000E+00 0. -1.
<scales pt_clust_5="13000.00000" pt_clust_6="13000.00000" pt_clust_7="13000.00000" pt_clust_8="13000.00000" pt_clust_9="82.28619" pt_clust_10="22.42365"></scales>
<clustering>
<clus scale="   22.424">  1 10  2 -1</clus>
<clus scale="   82.286">  2  9  1 -1</clus>
<clus scale="   90.412">  7  8 -1 -1</clus>
<clus scale="   92.302">  5  6 -1 -1</clus>
<clus scale="  405.169">  1  7  2 -1</clus>
<clus scale="   22.424">  1  5  2 -1</clus>
</clustering>
</event>
<event>
10    2  0.1133532E-006  0.9866699E+02  0.7546771E-02  0.1284359E+00
         -1   -1    0    0    0  501 -0.00000000000E+00  0.00000000000E+00  0.32921899112E+03  0.32921899112E+03  0.00000000000E+00 0.  1.
          1   -1    0    0  503    0  0.00000000000E+00 -0.00000000000E+00 -0.18551017238E+03  0.18551017238E+03  0.00000000000E+00 0. -1.
         23    2    1    2    0    0 -0.13989512338E+02 -0.27664320128E+02  0.92063170918E+02  0.13281780836E+03  0.90575502838E+02 0.  0.
         23    2    1    2    0    0 -0.31527041049E+02  0.19146518479E+02 -0.87734662289E+02  0.12968219302E+03  0.88088346173E+02 0.  0.
        -11    1    4    4    0    0 -0.27619145901E+02 -0.16905813089E+02 -0.87626458249E+02  0.93418520229E+02  0.00000000000E+00 0. -1.
         11    1    4    4    0    0 -0.39078951476E+01  0.36052331568E+02 -0.10820404057E+00  0.36263672788E+02  0.00000000000E+00 0.  1.
        -11    1    3    3    0    0 -0.21317983174E+02 -0.58413084464E+02  0.47821195399E+02  0.78443684084E+02  0.00000000000E+00 0. -1.
         11    1    3    3    0    0  0.73284708352E+01  0.30748764336E+02  0.44241975518E+02  0.54374124276E+02  0.00000000000E+00 0.  1.
         21    1    1    2  502  501  0.37633029651E+02 -0.13195467876E+02  0.19129469934E+03  0.19540733683E+03  0.00000000000E+00 0.  1.
         21    1    1    2  503  502  0.78835237356E+01  0.21713269525E+02 -0.51914389234E+02  0.56821825292E+02  0.00000000000E+00 0.  1.
<scales pt_clust_5="13000.00000" pt_clust_6="13000.00000" pt_clust_7="13000.00000" pt_clust_8="13000.00000" pt_clust_9="39.88503" pt_clust_10="23.10013"></scales>
<clustering>
<clus scale="   23.100">  2 10  1 -1</clus>
<clus scale="   39.885">  1  9  2 -1</clus>
<clus scale="   88.088">  5  6 -1 -1</clus>
<clus scale="   90.576">  7  8 -1 -1</clus>
<clus scale="   96.389">  2  5  1 -1</clus>
<clus scale="   23.100">  2  5  1 -1</clus>
</clustering>
</event>
<event>
10    2  0.1133532E-006  0.3395504E+03  0.7546771E-02  0.1067012E+00
          1   -1    0    0  503    0  0.00000000000E+00  0.00000000000E+00  0.51707286701E+03  0.51707286701E+03  0.00000000000E+00 0. -1.
         -1   -1    0    0    0  501 -0.00000000000E+00 -0.00000000000E+00 -0.27894464555E+03  0.27894464555E+03  0.00000000000E+00 0.  1.
         23    2    1    2    0    0 -0.66513588428E+02 -0.30574364974E+03  0.56565219093E+02  0.33064033563E+03  0.90665157213E+02 0.  0.
         23    2    1    2    0    0  0.97337060786E+02  0.32806467486E+03  0.17268008270E+03  0.39367838879E+03  0.89796038579E+02 0.  0.
        -11    1    4    4    0    0  0.28525461227E+02  0.13096237282E+02  0.15313054325E+02  0.34924246620E+02  0.00000000000E+00 0. -1.
         11    1    4    4    0    0  0.68811599559E+02  0.31496843757E+03  0.15736702837E+03  0.35875414217E+03  0.00000000000E+00 0.  1.
        -13    1    3    3    0    0 -0.56196080509E+02 -0.91340024027E+02  0.43058806562E+02  0.11556409597E+03  0.00000000000E+00 0.  1.
         13    1    3    3    0    0 -0.10317507919E+02 -0.21440362571E+03  0.13506412531E+02  0.21507623966E+03  0.00000000000E+00 0. -1.
         21    1    1    2  502  501 -0.46081445306E+02 -0.42629502686E+01 -0.45477774342E+00  0.46280440461E+02  0.00000000000E+00 0.  1.
         21    1    1    2  503  502  0.15257972947E+02 -0.18058074848E+02  0.93376974146E+01  0.25418347678E+02  0.00000000000E+00 0.  1.
<scales pt_clust_5="13000.00000" pt_clust_6="13000.00000" pt_clust_7="13000.00000" pt_clust_8="13000.00000" pt_clust_9="45.66647" pt_clust_10="23.64106"></scales>
<clustering>
<clus scale="   23.641">  1 10  2 -1</clus>
<clus scale="   45.666">  2  9  1 -1</clus>
<clus scale="   89.796">  5  6 -1 -1</clus>
<clus scale="   90.665">  7  8 -1 -1</clus>
<clus scale="  339.319">  1  5  2 -1</clus>
<clus scale="   23.641">  1  5  2 -1</clus>
</clustering>
</event>
<event>
10    2  0.1133532E-006  0.1461080E+03  0.7546771E-02  0.1225252E+00
         -3   -1    0    0    0  501 -0.00000000000E+00  0.00000000000E+00  0.43175226089E+03  0.43175226089E+03  0.00000000000E+00 0.  1.
          3   -1    0    0  503    0  0.00000000000E+00 -0.00000000000E+00 -0.17540247180E+03  0.17540247180E+03  0.00000000000E+00 0. -1.
         23    2    1    2    0    0  0.16241148975E+02  0.15663607531E+02  0.19521748464E+03  0.21606482865E+03  0.89805458344E+02 0.  0.
         23    2    1    2    0    0 -0.57525453618E+02  0.96772790709E+02  0.13663718826E+03  0.20154137747E+03  0.96307085822E+02 0.  0.
        -11    1    4    4    0    0 -0.31580727556E+02  0.11277986119E+03  0.11515257406E+03  0.16424601900E+03  0.00000000000E+00 0.  1.
         11    1    4    4    0    0 -0.25944726062E+02 -0.16007070486E+02  0.21484614206E+02  0.37295358471E+02  0.00000000000E+00 0. -1.
        -13    1    3    3    0    0  0.35189265481E+02 -0.52941752825E+01  0.18094509510E+03  0.18441106295E+03  0.00000000000E+00 0.  1.
         13    1    3    3    0    0 -0.18948116506E+02  0.20957782813E+02  0.14272389534E+02  0.31653765694E+02  0.00000000000E+00 0. -1.
         21    1    1    2  502  501  0.27322727674E+02 -0.26644471850E+01  0.27148860520E+02  0.38609472334E+02  0.00000000000E+00 0. -1.
         21    1    1    2  503  502  0.13961576968E+02 -0.10977195105E+03 -0.10265374433E+03  0.15093905424E+03  0.00000000000E+00 0. -1.
<scales pt_clust_5="13000.00000" pt_clust_6="13000.00000" pt_clust_7="13000.00000" pt_clust_8="13000.00000" pt_clust_9="27.45234" pt_clust_10="109.87486"></scales>
<clustering>
<clus scale="   27.452">  1  9  2 -1</clus>
<clus scale="   89.805">  7  8 -1 -1</clus>
<clus scale="   95.859">  1  7  2 -1</clus>
<clus scale="   96.307">  5  6 -1 -1</clus>
<clus scale="  109.875">  2 10  1 -1</clus>
<clus scale="  109.875">  2  5  1 -1</clus>
</clustering>
</event>
<event>
10    2  0.1133532E-006  0.1177501E+03  0.7546771E-02  0.1247527E+00
          1   -1    0    0  503    0  0.00000000000E+00  0.00000000000E+00  0.15054927550E+03  0.15054927550E+03  0.00000000000E+00 0. -1.
         -1   -1    0    0    0  501 -0.00000000000E+00 -0.00000000000E+00 -0.20332631320E+03  0.20332631320E+03  0.00000000000E+00 0.  1.
         23    2    1    2    0    0 -0.63633397500E+01 -0.73127584819E+02 -0.19295387168E+02  0.11809730753E+03  0.90479424874E+02 0.  0.
         23    2    1    2    0    0 -0.22319210835E+02  0.71585873090E+02 -0.20634303635E+01  0.11909009282E+03  0.92495989451E+02 0.  0.
        -11    1    3    3    0    0  0.28392176011E+02 -0.66712842078E+02  0.86823931167E+01  0.73021249695E+02  0.00000000000E+00 0. -1.
         11    1    3    3    0    0 -0.34755515761E+02 -0.64147427411E+01 -0.27977780285E+02  0.45076057835E+02  0.00000000000E+00 0.  1.
        -13    1    4    4    0    0 -0.39927682213E+02  0.85969869273E+02 -0.92624478404E+01  0.95240911218E+02  0.00000000000E+00 0.  1.
         13    1    4    4    0    0  0.17608471378E+02 -0.14383996182E+02  0.71990174769E+01  0.23849181602E+02  0.00000000000E+00 0. -1.
         21    1    1    2  502  501  0.49905652837E+02  0.40096884974E+01 -0.61806418232E+02  0.79540462166E+02  0.00000000000E+00 0.  1.
         21    1    1    2  503  502 -0.21223102252E+02 -0.24679767687E+01  0.30388198068E+02  0.37147726180E+02  0.00000000000E+00 0. -1.
<scales pt_clust_5="13000.00000" pt_clust_6="13000.00000" pt_clust_7="13000.00000" pt_clust_8="13000.00000" pt_clust_9="48.44524" pt_clust_10="21.36612"></scales>
<clustering>
<clus scale="   21.366">  1 10  2 -1</clus>
<clus scale="   48.445">  2  9  1 -1</clus>
<clus scale="   90.479">  5  6 -1 -1</clus>
<clus scale="   92.496">  7  8 -1 -1</clus>
<clus scale="  116.173">  2  5  1 -1</clus>
<clus scale="   21.366">  1  5  2 -1</clus>
</clustering>
</event>
<event>
10    2  0.1133532E-006  0.1670618E+03  0.7546771E-02  0.1181011E+00
          2   -1    0    0  503    0  0.00000000000E+00  0.00000000000E+00  0.43479333507E+03  0.43479333507E+03  0.00000000000E+00 0. -1.
         -2   -1    0    0    0  501 -0.00000000000E+00 -0.00000000000E+00 -0.27609232372E+03  0.27609232372E+03  0.00000000000E+00 0.  1.
         23    2    1    2    0    0 -0.18136014809E+03  0.11316967058E+02 -0.15522998298E+03  0.25553605621E+03  0.90458561514E+02 0.  0.
         23    2    1    2    0    0  0.79536573946E+02 -0.79489667797E+02  0.11086409757E+03  0.18220287835E+03  0.90897562490E+02 0.  0.
        -13    1    4    4    0    0  0.48204075714E+02 -0.97269904200E+02  0.84054246694E+02  0.13729597068E+03  0.00000000000E+00 0.  1.
         13    1    4    4    0    0  0.31332498233E+02  0.17780236403E+02  0.26809850879E+02  0.44906907667E+02  0.00000000000E+00 0. -1.
        -13    1    3    3    0    0 -0.11203798309E+03 -0.21879664651E+02 -0.13352253878E+03  0.17566871589E+03  0.00000000000E+00 0.  1.
         13    1    3    3    0    0 -0.69322164991E+02  0.33196631709E+02 -0.21707444199E+02  0.79867340318E+02  0.00000000000E+00 0. -1.
         21    1    1    2  502  501  0.37218532584E+02  0.23444759118E+02 -0.10806651137E+02  0.45295249271E+02  0.00000000000E+00 0. -1.
         21    1    1    2  503  502  0.64605041555E+02  0.44727941621E+02  0.21387354789E+03  0.22785147497E+03  0.00000000000E+00 0.  1.
<scales pt_clust_5="13000.00000" pt_clust_6="13000.00000" pt_clust_7="13000.00000" pt_clust_8="13000.00000" pt_clust_9="43.98722" pt_clust_10="79.81561"></scales>
<clustering>
<clus scale="   43.987">  2  9  1 -1</clus>
<clus scale="   79.816">  1 10  2 -1</clus>
<clus scale="   90.459">  7  8 -1 -1</clus>
<clus scale="   90.898">  5  6 -1 -1</clus>
<clus scale="  166.823">  2  7  1 -1</clus>
<clus scale="   79.816">  1  5  2 -1</clus>
</clustering>
</event>
<event>
10    2  0.1133532E-006  0.1474143E+03  0.7546771E-02  0.1207685E+00
          4   -1    0    0  503    0  0.00000000000E+00  0.00000000000E+00  0.83767795655E+02  0.83767795655E+02  0.00000000000E+00 0. -1.
         -4   -1    0    0    0  501 -0.00000000000E+00 -0.00000000000E+00 -0.78638697971E+03  0.78638697971E+03  0.00000000000E+00 0.  1.
         23    2    1    2    0    0  0.46003049708E+01 -0.72321358994E+02 -0.42098203949E+03  0.43694878861E+03  0.91906607588E+02 0.  0.
         23    2    1    2    0    0  0.50830875585E+02  0.15636077655E+03 -0.18746882180E+03  0.27213575250E+03  0.10899925820E+03 0.  0.
        -11    1    3    3    0    0  0.47107687488E+02 -0.49153902140E+02 -0.26649426640E+03  0.27505351178E+03  0.00000000000E+00 0.  1.
         11    1    3    3    0    0 -0.42507382518E+02 -0.23167456853E+02 -0.15448777309E+03  0.16189527683E+03  0.00000000000E+00 0. -1.
        -13    1    4    4    0    0  0.70479673613E+02  0.11354496357E+03 -0.18038607765E+03  0.22449717182E+03  0.00000000000E+00 0. -1.
         13    1    4    4    0    0 -0.19648798028E+02  0.42815812973E+02 -0.70827441430E+01  0.47638580678E+02  0.00000000000E+00 0.  1.
         21    1    1    2  502  501 -0.10827587731E+02 -0.21229651585E+02 -0.79050798644E+02  0.82564904946E+02  0.00000000000E+00 0.  1.
         21    1    1    2  503  502 -0.44603592825E+02 -0.62809765967E+02 -0.15117524116E+02  0.78505329304E+02  0.00000000000E+00 0.  1.
<scales pt_clust_5="13000.00000" pt_clust_6="13000.00000" pt_clust_7="13000.00000" pt_clust_8="13000.00000" pt_clust_9="23.83138" pt_clust_10="78.60064"></scales>
<clustering>
<clus scale="   23.831">  2  9  1 -1</clus>
<clus scale="   78.601">  1 10  2 -1</clus>
<clus scale="   91.907">  5  6 -1 -1</clus>
<clus scale="  108.999">  7  8 -1 -1</clus>
<clus scale="  135.266">  2  5  1 -1</clus>
<clus scale="   78.601">  1  5  2 -1</clus>
</clustering>
</event>
<event>
10    2  0.1133532E-006  0.9867298E+02  0.7546771E-02  0.1284228E+00
          1   -1    0    0  503    0  0.00000000000E+00  0.00000000000E+00  0.21263129079E+03  0.21263129079E+03  0.00000000000E+00 0. -1.
         -1   -1    0    0    0  501 -0.00000000000E+00 -0.00000000000E+00 -0.15134179035E+03  0.15134179035E+03  0.00000000000E+00 0.  1.
         23    2    1    2    0    0 -0.25833826808E+02 -0.16151935885E+02 -0.90325441855E+02  0.13309667648E+03  0.92885780409E+02 0.  0.
         23    2    1    2    0    0  0.18116437847E+02 -0.40758197476E+01  0.87919178707E+02  0.12767037089E+03  0.90692469316E+02 0.  0.
        -11    1    3    3    0    0 -0.59244514185E+02 -0.22811510020E+02 -0.62808793353E+02  0.89304098298E+02  0.00000000000E+00 0.  1.
         11    1    3    3    0    0  0.33410687377E+02  0.66595741344E+01 -0.27516648501E+02  0.43792578177E+02  0.00000000000E+00 0. -1.
        -13    1    4    4    0    0  0.29314645886E+02 -0.28727717545E+02  0.91571304979E+02  0.10034906135E+03  0.00000000000E+00 0. -1.
         13    1    4    4    0    0 -0.11198208039E+02  0.24651897797E+02 -0.36521262719E+01  0.27321309533E+02  0.00000000000E+00 0.  1.
         21    1    1    2  502  501 -0.14926188495E+02  0.22729828317E+02 -0.77016308527E+01  0.28262188806E+02  0.00000000000E+00 0. -1.
         21    1    1    2  503  502  0.22643577456E+02 -0.25020726841E+01  0.71397394435E+02  0.74943844977E+02  0.00000000000E+00 0. -1.
<scales pt_clust_5="13000.00000" pt_clust_6="13000.00000" pt_clust_7="13000.00000" pt_clust_8="13000.00000" pt_clust_9="26.15422" pt_clust_10="22.78140"></scales>
<clustering>
<clus scale="   22.781">  1 10  2 -1</clus>
<clus scale="   26.154">  2  9  1 -1</clus>
<clus scale="   90.692">  7  8 -1 -1</clus>
<clus scale="   92.886">  5  6 -1 -1</clus>
<clus scale="   96.611">  1  7  2 -1</clus>
<clus scale="   22.781">  1  5  2 -1</clus>
</clustering>
</event>
<event>
10    2  0.1133532E-006  0.1142137E+03  0.7546771E-02  0.1253128E+00
         -2   -1    0    0    0  501 -0.00000000000E+00  0.00000000000E+00  0.82807535845E+02  0.82807535845E+02  0.00000000000E+00 0.  1.
          2   -1    0    0  503    0  0.00000000000E+00 -0.00000000000E+00 -0.38441471178E+03  0.38441471178E+03  0.00000000000E+00 0. -1.
         23    2    1    2    0    0  0.71160876424E+01  0.57365085282E+02 -0.57101501227E+02  0.12222554077E+03  0.91307774371E+02 0.  0.
         23    2    1    2    0    0 -0.14267499898E+02 -0.71791842472E+02 -0.23530417333E+03  0.26263229192E+03  0.90829711956E+02 0.  0.
        -13    1    4    4    0    0 -0.29336889933E+02 -0.84962067204E+02 -0.21930311015E+03  0.23700856544E+03  0.00000000000E+00 0.  1.
         13    1    4    4    0    0  0.15069390035E+02  0.13170224731E+02 -0.16001063185E+02  0.25623726477E+02  0.00000000000E+00 0. -1.
        -13    1    3    3    0    0  0.32119584346E+02 -0.10322203894E+02 -0.72101177440E+01  0.34499295496E+02  0.00000000000E+00 0.  1.
         13    1    3    3    0    0 -0.25003496704E+02  0.67687289177E+02 -0.49891383483E+02  0.87726245271E+02  0.00000000000E+00 0. -1.
         21    1    1    2  502  501 -0.24403204995E+02  0.13967687007E+02  0.23700824871E+02  0.36774200113E+02  0.00000000000E+00 0.  1.
         21    1    1    2  503  502  0.31554617250E+02  0.45907018317E+00 -0.32902326250E+02  0.45590214826E+02  0.00000000000E+00 0.  1.
<scales pt_clust_5="13000.00000" pt_clust_6="13000.00000" pt_clust_7="13000.00000" pt_clust_8="13000.00000" pt_clust_9="28.11784" pt_clust_10="28.69000"></scales>
<clustering>
<clus scale="   28.118">  1  9  2 -1</clus>
<clus scale="   28.690">  1 10  2 -1</clus>
<clus scale="   90.830">  5  6 -1 -1</clus>
<clus scale="   91.308">  7  8 -1 -1</clus>
<clus scale="  113.832">  2  5  1 -1</clus>
<clus scale="  113.832">  2  5  1 -1</clus>
</clustering>
</event>
<event>
10    2  0.1133532E-006  0.1268153E+03  0.7546771E-02  0.1232944E+00
         -1   -1    0    0    0  501 -0.00000000000E+00  0.00000000000E+00  0.11521605902E+03  0.11521605902E+03  0.00000000000E+00 0.  1.
          1   -1    0    0  503    0  0.00000000000E+00 -0.00000000000E+00 -0.37029799212E+03  0.37029799212E+03  0.00000000000E+00 0. -1.
         23    2    1    2    0    0 -0.92203988820E+02 -0.10134113840E+03 -0.91992911830E+02  0.18994428257E+03  0.94045376114E+02 0.  0.
         23    2    1    2    0    0  0.47855316496E+02  0.15159745506E+02 -0.44727575292E+02  0.11365883257E+03  0.91639647695E+02 0.  0.
        -13    1    4    4    0    0  0.67154993756E+01  0.42497258361E+02  0.53066348477E+01  0.43350608686E+02  0.00000000000E+00 0.  1.
         13    1    4    4    0    0  0.41139817120E+02 -0.27337512856E+02 -0.50034210140E+02  0.70308223887E+02  0.00000000000E+00 0. -1.
        -13    1    3    3    0    0 -0.54482955856E+02 -0.93968881918E+02 -0.10328228603E+03  0.14988586943E+03  0.00000000000E+00 0. -1.
         13    1    3    3    0    0 -0.37721032964E+02 -0.73722564797E+01  0.11289374199E+02  0.40058413140E+02  0.00000000000E+00 0.  1.
         21    1    1    2  502  501  0.54157103423E+02  0.51804034498E+02 -0.20460432500E+02  0.77687059023E+02  0.00000000000E+00 0.  1.
         21    1    1    2  503  502 -0.98084310990E+01  0.34377358394E+02 -0.97901013482E+02  0.10422387697E+03  0.00000000000E+00 0. -1.
<scales pt_clust_5="13000.00000" pt_clust_6="13000.00000" pt_clust_7="13000.00000" pt_clust_8="13000.00000" pt_clust_9="78.19637" pt_clust_10="35.74924"></scales>
<clustering>
<clus scale="   35.749">  2 10  1 -1</clus>
<clus scale="   78.196">  1  9  2 -1</clus>
<clus scale="   91.640">  5  6 -1 -1</clus>
<clus scale="   94.045">  7  8 -1 -1</clus>
<clus scale="  125.042">  2  5  1 -1</clus>
<clus scale="   35.749">  2  5  1 -1</clus>
</clustering>
</event>
<event>
10    2  0.1133532E-006  0.1631900E+03  0.7546771E-02  0.1185582E+00
         -2   -1    0    0    0  501 -0.00000000000E+00  0.00000000000E+00  0.15553242398E+03  0.15553242398E+03  0.00000000000E+00 0.  1.
          2   -1    0    0  503    0  0.00000000000E+00 -0.00000000000E+00 -0.12327844990E+04  0.12327844990E+04  0.00000000000E+00 0. -1.
         23    2    1    2    0    0 -0.62891900893E+02 -0.94666477018E+02  0.77818534540E+02  0.16541023106E+03  0.91584317176E+02 0.  0.
         23    2    1    2    0    0  0.10996665456E+03  0.16296568225E+03 -0.96732375495E+03  0.99107797121E+03  0.88712002709E+02 0.  0.
        -11    1    4    4    0    0  0.69470465635E+02  0.37263606864E+02 -0.26632454968E+03  0.27774716516E+03  0.00000000000E+00 0.  1.
         11    1    4    4    0    0  0.40496188925E+02  0.12570207539E+03 -0.70099920527E+03  0.71333080605E+03  0.00000000000E+00 0. -1.
        -11    1    3    3    0    0 -0.85239599808E+02 -0.70546170317E+02  0.72021504529E+02  0.13202139462E+03  0.00000000000E+00 0.  1.
         11    1    3    3    0    0  0.22347698915E+02 -0.24120306700E+02  0.57970300112E+01  0.33388836444E+02  0.00000000000E+00 0. -1.
         21    1    1    2  502  501  0.73366258114E+01 -0.27201029023E+02  0.38728666969E+01  0.28438023044E+02  0.00000000000E+00 0.  1.
         21    1    1    2  503  502 -0.54411379479E+02 -0.41098176213E+02 -0.19161972129E+03  0.20339069765E+03  0.00000000000E+00 0. -1.
<scales pt_clust_5="13000.00000" pt_clust_6="13000.00000" pt_clust_7="13000.00000" pt_clust_8="13000.00000" pt_clust_9="28.17307" pt_clust_10="68.64235"></scales>
<clustering>
<clus scale="   28.173">  1  9  2 -1</clus>
<clus scale="   68.642">  2 10  1 -1</clus>
<clus scale="   88.712">  5  6 -1 -1</clus>
<clus scale="   91.584">  7  8 -1 -1</clus>
<clus scale="  161.596">  2  5  1 -1</clus>
<clus scale="   68.642">  2  5  1 -1</clus>
</clustering>
</event>
<event>
10    2  0.1133532E-006  0.1353894E+03  0.7546771E-02  0.1219921E+00
          2   -1    0    0  503    0  0.00000000000E+00  0.00000000000E+00  0.10331029457E+04  0.10331029457E+04  0.00000000000E+00 0. -1.
         -2   -1    0    0    0  501 -0.00000000000E+00 -0.00000000000E+00 -0.73044978110E+02  0.73044978110E+02  0.00000000000E+00 0.  1.
         23    2    1    2    0    0  0.53048623653E+02 -0.12000148658E+03  0.18149654930E+03  0.24209465458E+03  0.91947327927E+02 0.  0.
         23    2    1    2    0    0 -0.71029889317E+02  0.95869966243E+02  0.57161786023E+03  0.59097048062E+03  0.90900138720E+02 0.  0.
        -11    1    3    3    0    0  0.36265933898E+02 -0.35206037803E+02  0.12182069864E+02  0.51991209694E+02  0.00000000000E+00 0. -1.
         11    1    3    3    0    0  0.16782689755E+02 -0.84795448776E+02  0.16931447944E+03  0.19010344488E+03  0.00000000000E+00 0.  1.
        -13    1    4    4    0    0 -0.48099808545E+01  0.81997021359E+02  0.32860819186E+03  0.33871815892E+03  0.00000000000E+00 0.  1.
         13    1    4    4    0    0 -0.66219908463E+02  0.13872944884E+02  0.24300966837E+03  0.25225232169E+03  0.00000000000E+00 0. -1.
         21    1    1    2  502  501  0.76724071608E+01  0.72800232062E+02  0.14905460646E+02  0.74705504329E+02  0.00000000000E+00 0. -1.
         21    1    1    2  503  502  0.10308858503E+02 -0.48668711726E+02  0.19203809737E+03  0.19837728425E+03  0.00000000000E+00 0.  1.
<scales pt_clust_5="13000.00000" pt_clust_6="13000.00000" pt_clust_7="13000.00000" pt_clust_8="13000.00000" pt_clust_9="70.67779" pt_clust_10="49.74853"></scales>
<clustering>
<clus scale="   49.749">  1 10  2 -1</clus>
<clus scale="   70.678">  2  9  1 -1</clus>
<clus scale="   90.900">  7  8 -1 -1</clus>
<clus scale="   91.947">  5  6 -1 -1</clus>
<clus scale="  134.680">  1  7  2 -1</clus>
<clus scale="   49.749">  1  5  2 -1</clus>
</clustering>
</event>
<event>
10    2  0.1133532E-006  0.3721734E+03  0.7546771E-02  0.1099253E+00
          1   -1    0    0  503    0  0.00000000000E+00  0.00000000000E+00  0.11504831896E+04  0.11504831896E+04  0.00000000000E+00 0. -1.
         -1   -1    0    0    0  501 -0.00000000000E+00 -0.00000000000E+00 -0.42312851139E+03  0.42312851139E+03  0.00000000000E+00 0.  1.
         23    2    1    2    0    0  0.65845158104E+02  0.18835145287E+02  0.11555228084E+01  0.11375463922E+03  0.90820896100E+02 0.  0.
         23    2    1    2    0    0 -0.56353791207E+02 -0.32096042564E+03 -0.50952628129E+02  0.34212722217E+03  0.90903912059E+02 0.  0.
        -13    1    3    3    0    0  0.40090840018E+02 -0.25795126642E+02  0.28376093430E+02  0.55478524585E+02  0.00000000000E+00 0. -1.
         13    1    3    3    0    0  0.25754318086E+02  0.44630271928E+02 -0.27220570622E+02  0.58276114639E+02  0.00000000000E+00 0.  1.
        -13    1    4    4    0    0 -0.17738769475E+02 -0.20312757698E+03 -0.72230119489E+02  0.21631612662E+03  0.00000000000E+00 0.  1.
         13    1    4    4    0    0 -0.38615021732E+02 -0.11783284865E+03  0.21277491361E+02  0.12581109555E+03  0.00000000000E+00 0. -1.
         21    1    1    2  502  501 -0.33503476025E+02 -0.64716007179E+02 -0.12436186527E+03  0.14414061893E+03  0.00000000000E+00 0. -1.
         21    1    1    2  503  502  0.24012109129E+02  0.36684128753E+03  0.90151364883E+03  0.97358922069E+03  0.00000000000E+00 0. -1.
<scales pt_clust_5="13000.00000" pt_clust_6="13000.00000" pt_clust_7="13000.00000" pt_clust_8="13000.00000" pt_clust_9="72.87417" pt_clust_10="360.90099"></scales>
<clustering>
<clus scale="   72.874">  2  9  1 -1</clus>
<clus scale="   90.821">  5  6 -1 -1</clus>
<clus scale="   90.904">  7  8 -1 -1</clus>
<clus scale="  108.653">  2  5  1 -1</clus>
<clus scale="  360.901">  1 10  2 -1</clus>
<clus scale="  360.901">  1  5  2 -1</clus>
</clustering>
</event>
<event>
10    2  0.1133532E-006  0.9458769E+02  0.7546771E-02  0.1292783E+00
          2   -1    0    0  503    0  0.00000000000E+00  0.00000000000E+00  0.81203989124E+03  0.81203989124E+03  0.00000000000E+00 0. -1.
         -2   -1    0    0    0  501 -0.00000000000E+00 -0.00000000000E+00 -0.40130680244E+02  0.40130680244E+02  0.00000000000E+00 0.  1.
         23    2    1    2    0    0  0.28780635665E+02  0.83617702070E+00  0.26406825240E+03  0.28144141897E+03  0.92995732177E+02 0.  0.
         23    2    1    2    0    0  0.47879976782E+02 -0.29353529166E+02  0.41459920688E+03  0.42833662836E+03  0.91791301340E+02 0.  0.
        -11    1    3    3    0    0 -0.15731687424E+02  0.33648263187E+02  0.65309706977E+02  0.75133543974E+02  0.00000000000E+00 0.  1.
         11    1    3    3    0    0  0.44512323089E+02 -0.32812086166E+02  0.19875854542E+03  0.20630787499E+03  0.00000000000E+00 0. -1.
        -13    1    4    4    0    0  0.44447341110E+02  0.22230620163E+02  0.27538077856E+03  0.27982912608E+03  0.00000000000E+00 0. -1.
         13    1    4    4    0    0  0.34326356721E+01 -0.51584149329E+02  0.13921842832E+03  0.14850750228E+03  0.00000000000E+00 0.  1.
         21    1    1    2  502  501 -0.63160780203E+02  0.20000787536E+01  0.25022573578E+02  0.67966268540E+02  0.00000000000E+00 0.  1.
         21    1    1    2  503  502 -0.13499832245E+02  0.26517273392E+02  0.68219178144E+02  0.74426255619E+02  0.00000000000E+00 0.  1.
<scales pt_clust_5="13000.00000" pt_clust_6="13000.00000" pt_clust_7="13000.00000" pt_clust_8="13000.00000" pt_clust_9="64.11297" pt_clust_10="29.75586"></scales>
<clustering>
<clus scale="   29.756">  1 10  2 -1</clus>
<clus scale="   64.113">  2  9  1 -1</clus>
<clus scale="   91.791">  7  8 -1 -1</clus>
<clus scale="   92.996">  5  6 -1 -1</clus>
<clus scale="   93.404">  1  7  2 -1</clus>
<clus scale="   29.756">  1  5  2 -1</clus>
</clustering>
</event>
<event>
10    2  0.1133532E-006  0.2988931E+03  0.7546771E-02  0.1086090E+00
          1   -1    0    0  503    0  0.00000000000E+00  0.00000000000E+00  0.11450456301E+04  0.11450456301E+04  0.00000000000E+00 0. -1.
         -1   -1    0    0    0  501 -0.00000000000E+00 -0.00000000000E+00 -0.15601247034E+03  0.15601247034E+03  0.00000000000E+00 0.  1.
         23    2    1    2    0    0 -0.67723854216E+02  0.25235721659E+03  0.19941132435E+03  0.34204853144E+03  0.94665919877E+02 0.  0.
         23    2    1    2    0    0  0.18037342603E+02 -0.28221931740E+03  0.78905359859E+03  0.84270424079E+03  0.87015901748E+02 0.  0.
        -11    1    3    3    0    0 -0.67191106667E+02  0.19407912842E+03  0.10391574387E+03  0.23017348833E+03  0.00000000000E+00 0.  1.
         11    1    3    3    0    0 -0.53274754901E+00  0.58278088166E+02  0.95495580479E+02  0.11187504311E+03  0.00000000000E+00 0. -1.
        -11    1    4    4    0    0 -0.10360846184E+02 -0.16397742194E+03  0.55687262138E+03  0.58060576856E+03  0.00000000000E+00 0. -1.
         11    1    4    4    0    0  0.28398188786E+02 -0.11824189546E+03  0.23218097721E+03  0.26209847223E+03  0.00000000000E+00 0.  1.
         21    1    1    2  502  501  0.55399989687E+02  0.50721489913E+02 -0.28271855183E+02  0.80256627089E+02  0.00000000000E+00 0. -1.
         21    1    1    2  503  502 -0.57134780729E+01 -0.20859389099E+02  0.28840092007E+02  0.36048701117E+02  0.00000000000E+00 0.  1.
<scales pt_clust_5="13000.00000" pt_clust_6="13000.00000" pt_clust_7="13000.00000" pt_clust_8="13000.00000" pt_clust_9="74.68507" pt_clust_10="21.62771"></scales>
<clustering>
<clus scale="   21.628">  1 10  2 -1</clus>
<clus scale="   74.685">  2  9  1 -1</clus>
<clus scale="   87.016">  7  8 -1 -1</clus>
<clus scale="   94.666">  5  6 -1 -1</clus>
<clus scale="  296.559">  1  7  2 -1</clus>
<clus scale="   21.628">  1  5  2 -1</clus>
</clustering>
</event>
<event>
10    2  0.1133532E-006  0.9808452E+02  0.7546771E-02  0.1284726E+00
         -1   -1    0    0    0  501 -0.00000000000E+00  0.00000000000E+00  0.24565892833E+03  0.24565892833E+03  0.00000000000E+00 0.  1.
          1   -1    0    0  503    0  0.00000000000E+00 -0.00000000000E+00 -0.18149559901E+03  0.18149559901E+03  0.00000000000E+00 0. -1.
         23    2    1    2    0    0 -0.15881070765E+02 -0.13197288535E+02  0.17238008594E+03  0.19622001570E+03  0.91438633505E+02 0.  0.
         23    2    1    2    0    0  0.38087185900E+02  0.35376725447E+02 -0.38533778100E+02  0.11145354392E+03  0.90746316538E+02 0.  0.
        -11    1    4    4    0    0 -0.29816386525E+02  0.14963394850E+02 -0.16399982170E+02  0.37173639935E+02  0.00000000000E+00 0.  1.
         11    1    4    4    0    0  0.67903572425E+02  0.20413330597E+02 -0.22133795930E+02  0.74279903988E+02  0.00000000000E+00 0. -1.
        -13    1    3    3    0    0 -0.25852315208E+01 -0.46545910202E+02  0.14110596872E+03  0.14860719897E+03  0.00000000000E+00 0. -1.
         13    1    3    3    0    0 -0.13295839244E+02  0.33348621667E+02  0.31274117225E+02  0.47612816725E+02  0.00000000000E+00 0.  1.
         21    1    1    2  502  501 -0.20550582558E+02  0.77764848749E+01  0.16981767386E+02  0.27770138351E+02  0.00000000000E+00 0.  1.
         21    1    1    2  503  502 -0.16555325775E+01 -0.29955921787E+02 -0.86664745909E+02  0.91710829359E+02  0.00000000000E+00 0. -1.
<scales pt_clust_5="13000.00000" pt_clust_6="13000.00000" pt_clust_7="13000.00000" pt_clust_8="13000.00000" pt_clust_9="21.97271" pt_clust_10="29.92765"></scales>
<clustering>
<clus scale="   21.973">  1  9  2 -1</clus>
<clus scale="   29.928">  2 10  1 -1</clus>
<clus scale="   90.746">  5  6 -1 -1</clus>
<clus scale="   91.439">  7  8 -1 -1</clus>
<clus scale="   97.439">  2  5  1 -1</clus>
<clus scale="   29.928">  2  5  1 -1</clus>
</clustering>
</event>
<event>
10    2  0.1133532E-006  0.1148182E+03  0.7546771E-02  0.1252356E+00
          3   -1    0    0  503    0  0.00000000000E+00  0.00000000000E+00  0.42293752009E+03  0.42293752009E+03  0.00000000000E+00 0. -1.
         -3   -1    0    0    0  501 -0.00000000000E+00 -0.00000000000E+00 -0.55660941891E+02  0.55660941891E+02  0.00000000000E+00 0.  1.
         23    2    1    2    0    0 -0.66436536859E+02  0.52947410177E+00  0.10784910432E+03  0.15607442051E+03  0.91179502415E+02 0.  0.
         23    2    1    2    0    0  0.65433991799E+02 -0.60209876164E+01  0.16328578191E+03  0.19882525573E+03  0.92473651219E+02 0.  0.
        -11    1    3    3    0    0 -0.88949708468E+02  0.47833928981E+01  0.92961501919E+02  0.12875081484E+03  0.00000000000E+00 0.  1.
         11    1    3    3    0    0  0.22513171609E+02 -0.42539187964E+01  0.14887602402E+02  0.27323605660E+02  0.00000000000E+00 0. -1.
        -13    1    4    4    0    0  0.70369278906E+02  0.30372090413E+02  0.11367870799E+03  0.13710269122E+03  0.00000000000E+00 0. -1.
         13    1    4    4    0    0 -0.49352871070E+01 -0.36393078030E+02  0.49607073919E+02  0.61722564514E+02  0.00000000000E+00 0.  1.
         21    1    1    2  502  501 -0.20282488639E+02  0.40527608713E+01 -0.42074281514E+01  0.21107028870E+02  0.00000000000E+00 0. -1.
         21    1    1    2  503  502  0.21285033699E+02  0.14387526433E+01  0.10034912013E+03  0.10259175688E+03  0.00000000000E+00 0. -1.
<scales pt_clust_5="13000.00000" pt_clust_6="13000.00000" pt_clust_7="13000.00000" pt_clust_8="13000.00000" pt_clust_9="20.68343" pt_clust_10="20.81355"></scales>
<clustering>
<clus scale="   20.683">  2  9  1 -1</clus>
<clus scale="   20.814">  1 10  2 -1</clus>
<clus scale="   91.180">  5  6 -1 -1</clus>
<clus scale="   92.474">  7  8 -1 -1</clus>
<clus scale="  113.779">  2  5  1 -1</clus>
<clus scale="   20.814">  1  5  2 -1</clus>
</clustering>
</event>
<event>
10    2  0.1133532E-006  0.1106990E+03  0.7546771E-02  0.1259632E+00
          2   -1    0    0  503    0  0.00000000000E+00  0.00000000000E+00  0.42795394192E+03  0.42795394192E+03  0.00000000000E+00 0. -1.
         -2   -1    0    0    0  501 -0.00000000000E+00 -0.00000000000E+00 -0.15842647175E+03  0.15842647175E+03  0.00000000000E+00 0.  1.
         23    2    1    2    0    0 -0.38586527284E+02 -0.36106164776E+02 -0.25177510372E+02  0.10726370459E+03  0.89883369273E+02 0.  0.
         23    2    1    2    0    0  0.68336254105E+02  0.62982281172E+02  0.23542744891E+03  0.26827899643E+03  0.88943380068E+02 0.  0.
        -11    1    3    3    0    0 -0.39062130843E+02  0.16397642237E+01 -0.48954616847E+02  0.62650565866E+02  0.00000000000E+00 0.  1.
         11    1    3    3    0    0  0.47560355919E+00 -0.37745928999E+02  0.23777106475E+02  0.44613138727E+02  0.00000000000E+00 0. -1.
        -11    1    4    4    0    0  0.23181637705E+02 -0.43429006177E+01  0.51382112392E+01  0.24138150866E+02  0.00000000000E+00 0.  1.
         11    1    4    4    0    0  0.45154616400E+02  0.67325181789E+02  0.23028923767E+03  0.24414084556E+03  0.00000000000E+00 0. -1.
         21    1    1    2  502  501  0.77089696255E+01 -0.18622765993E+02 -0.71637663122E+02  0.74419019098E+02  0.00000000000E+00 0. -1.
         21    1    1    2  503  502 -0.37458696447E+02 -0.82533504036E+01  0.13091519476E+03  0.13641869355E+03  0.00000000000E+00 0.  1.
<scales pt_clust_5="13000.00000" pt_clust_6="13000.00000" pt_clust_7="13000.00000" pt_clust_8="13000.00000" pt_clust_9="20.15529" pt_clust_10="38.24904"></scales>
<clustering>
<clus scale="   20.155">  2  9  1 -1</clus>
<clus scale="   38.249">  1 10  2 -1</clus>
<clus scale="   88.943">  7  8 -1 -1</clus>
<clus scale="   89.883">  5  6 -1 -1</clus>
<clus scale="  109.937">  1  7  2 -1</clus>
<clus scale="   38.249">  1  5  2 -1</clus>
</clustering>
</event>
<event>
10    2  0.1133532E-006  0.1091566E+03  0.7546771E-02  0.1263997E+00
         -2   -1    0    0    0  501 -0.00000000000E+00  0.00000000000E+00  0.51778557156E+03  0.51778557156E+03  0.00000000000E+00 0.  1.
          2   -1    0    0  503    0  0.00000000000E+00 -0.00000000000E+00 -0.23093139482E+03  0.23093139482E+03  0.00000000000E+00 0. -1.
         23    2    1    2    0    0  0.73569090622E+02  0.10208129981E+02  0.30145664467E+03  0.32319279137E+03  0.89782263070E+02 0.  0.
         23    2    1    2    0    0 -0.32442721055E+02  0.40845583832E+01 -0.10867862057E+03  0.14756761052E+03  0.94318308606E+02 0.  0.
        -13    1    4    4    0    0 -0.62244129450E+02  0.10690421518E+02 -0.95096234282E+02  0.11415739371E+03  0.00000000000E+00 0. -1.
         13    1    4    4    0    0  0.29801408396E+02 -0.66058631352E+01 -0.13582386290E+02  0.33410216813E+02  0.00000000000E+00 0.  1.
        -13    1    3    3    0    0  0.65532534583E+01 -0.24105164917E+02  0.20475261067E+02  0.32299232535E+02  0.00000000000E+00 0. -1.
         13    1    3    3    0    0  0.67015837164E+02  0.34313294899E+02  0.28098138361E+03  0.29089355883E+03  0.00000000000E+00 0.  1.
         21    1    1    2  502  501 -0.18458169804E+02 -0.17882748618E+02  0.18367536378E+03  0.18546464890E+03  0.00000000000E+00 0. -1.
         21    1    1    2  503  502 -0.22668199764E+02  0.35900602531E+01 -0.89599211143E+02  0.92491915595E+02  0.00000000000E+00 0. -1.
<scales pt_clust_5="13000.00000" pt_clust_6="13000.00000" pt_clust_7="13000.00000" pt_clust_8="13000.00000" pt_clust_9="25.78854" pt_clust_10="22.95073"></scales>
<clustering>
<clus scale="   22.951">  2 10  1 -1</clus>
<clus scale="   25.789">  1  9  2 -1</clus>
<clus scale="   89.782">  7  8 -1 -1</clus>
<clus scale="   94.318">  5  6 -1 -1</clus>
<clus scale="  105.262">  1  7  2 -1</clus>
<clus scale="   22.951">  2  5  1 -1</clus>
</clustering>
</event>
<event>
10    2  0.1133532E-006  0.2142895E+03  0.7546771E-02  0.1138627E+00
         -2   -1    0    0    0  501 -0.00000000000E+00  0.00000000000E+00  0.97777209406E+02  0.97777209406E+02  0.00000000000E+00 0.  1.
          2   -1    0    0  503    0  0.00000000000E+00 -0.00000000000E+00 -0.77925611895E+03  0.77925611895E+03  0.00000000000E+00 0. -1.
         23    2    1    2    0    0 -0.66587462376E+02 -0.18813653895E+03 -0.26893641958E+03  0.34787677365E+03  0.94139282081E+02 0.  0.
         23    2    1    2    0    0  0.31299615905E+02  0.18768692768E+03 -0.31362305743E+03  0.37991868126E+03  0.98857136523E+02 0.  0.
        -11    1    3    3    0    0 -0.19894963606E+02 -0.16183900624E+03 -0.17128281864E+03  0.23648568134E+03  0.00000000000E+00 0.  1.
         11    1    3    3    0    0 -0.46692498770E+02 -0.26297532710E+02 -0.97653600942E+02  0.11139109231E+03  0.00000000000E+00 0. -1.
        -11    1    4    4    0    0  0.33791861656E+02  0.14979351105E+03 -0.16037817239E+03  0.22203860936E+03  0.00000000000E+00 0. -1.
         11    1    4    4    0    0 -0.24922457509E+01  0.37893416628E+02 -0.15324488504E+03  0.15788007190E+03  0.00000000000E+00 0.  1.
         21    1    1    2  502  501  0.40693849564E+02  0.27691643299E+02 -0.29277406176E+01  0.49309108348E+02  0.00000000000E+00 0. -1.
         21    1    1    2  503  502 -0.54060030926E+01 -0.27242032025E+02 -0.95991691913E+02  0.99928765101E+02  0.00000000000E+00 0.  1.
<scales pt_clust_5="13000.00000" pt_clust_6="13000.00000" pt_clust_7="13000.00000" pt_clust_8="13000.00000" pt_clust_9="48.46899" pt_clust_10="27.77325"></scales>
<clustering>
<clus scale="   27.773">  2 10  1 -1</clus>
<clus scale="   48.469">  1  9  2 -1</clus>
<clus scale="   94.139">  5  6 -1 -1</clus>
<clus scale="   98.857">  7  8 -1 -1</clus>
<clus scale="  212.154">  1  5  2 -1</clus>
<clus scale="   27.773">  2  5  1 -1</clus>
</clustering>
</event>
<event>
10    2  0.1133532E-006  0.9979078E+02  0.7546771E-02  0.1285706E+00
         -1   -1    0    0    0  501 -0.00000000000E+00  0.00000000000E+00  0.48125720190E+02  0.48125720190E+02  0.00000000000E+00 0.  1.
          1   -1    0    0  503    0  0.00000000000E+00 -0.00000000000E+00 -0.65628105842E+03  0.65628105842E+03  0.00000000000E+00 0. -1.
         23    2    1    2    0    0 -0.15339346363E+02  0.23068227910E+02 -0.83902299771E+02  0.12946915364E+03  0.94632061971E+02 0.  0.
         23    2    1    2    0    0  0.49551395299E+02  0.21354920930E+02 -0.96049667227E+02  0.13922649318E+03  0.85129926614E+02 0.  0.
        -13    1    3    3    0    0  0.25068429980E+02  0.45814107214E+02 -0.45343588825E+02  0.69162125828E+02  0.00000000000E+00 0.  1.
         13    1    3    3    0    0 -0.40407776344E+02 -0.22745879304E+02 -0.38558710946E+02  0.60307027817E+02  0.00000000000E+00 0. -1.
        -13    1    4    4    0    0  0.29737166806E+02  0.44749870727E+02 -0.20175676770E+02  0.57392577507E+02  0.00000000000E+00 0.  1.
         13    1    4    4    0    0  0.19814228493E+02 -0.23394949797E+02 -0.75873990457E+02  0.81833915675E+02  0.00000000000E+00 0. -1.
         21    1    1    2  502  501 -0.49383843940E+02 -0.27502127143E+02 -0.26735418292E+03  0.27326432289E+03  0.00000000000E+00 0. -1.
         21    1    1    2  503  502  0.15171795004E+02 -0.16921021697E+02 -0.16084918831E+03  0.16244680889E+03  0.00000000000E+00 0.  1.
<scales pt_clust_5="13000.00000" pt_clust_6="13000.00000" pt_clust_7="13000.00000" pt_clust_8="13000.00000" pt_clust_9="55.12815" pt_clust_10="22.72673"></scales>
<clustering>
<clus scale="   22.727">  2 10  1 -1</clus>
<clus scale="   55.128">  2  9  1 -1</clus>
<clus scale="   85.130">  7  8 -1 -1</clus>
<clus scale="   90.830">  2  7  1 -1</clus>
<clus scale="   94.632">  5  6 -1 -1</clus>
<clus scale="   22.727">  2  5  1 -1</clus>
</clustering>
</event>
<event>
10    2  0.1133532E-006  0.1002801E+03  0.7546771E-02  0.1284494E+00
          1   -1    0    0  503    0  0.00000000000E+00  0.00000000000E+00  0.15094366650E+03  0.15094366650E+03  0.00000000000E+00 0. -1.
         -1   -1    0    0    0  501 -0.00000000000E+00 -0.00000000000E+00 -0.26543344235E+03  0.26543344235E+03  0.00000000000E+00 0.  1.
         23    2    1    2    0    0  0.64123516754E+02  0.33660239214E+02 -0.59284376081E+02  0.12710255160E+03  0.85997582935E+02 0.  0.
         23    2    1    2    0    0 -0.80392383454E+01  0.62798575975E+02  0.48725247312E+02  0.12428898075E+03  0.95211924208E+02 0.  0.
        -11    1    3    3    0    0  0.52197560715E+02 -0.13143908001E+02 -0.57510136045E+02  0.78770320616E+02  0.00000000000E+00 0. -1.
         11    1    3    3    0    0  0.11925956039E+02  0.46804147215E+02 -0.17742400361E+01  0.48332230982E+02  0.00000000000E+00 0.  1.
        -13    1    4    4    0    0 -0.28180014219E+02  0.35877862385E+02 -0.18417425071E+02  0.49198940608E+02  0.00000000000E+00 0.  1.
         13    1    4    4    0    0  0.20140775874E+02  0.26920713589E+02  0.67142672383E+02  0.75090040137E+02  0.00000000000E+00 0. -1.
         21    1    1    2  502  501 -0.58874632829E+02 -0.59679949657E+02 -0.95640085569E+02  0.12718075621E+03  0.00000000000E+00 0.  1.
         21    1    1    2  503  502  0.27903544209E+01 -0.36778865532E+02 -0.82905615095E+01  0.37804820298E+02  0.00000000000E+00 0. -1.
<scales pt_clust_5="13000.00000" pt_clust_6="13000.00000" pt_clust_7="13000.00000" pt_clust_8="13000.00000" pt_clust_9="86.69755" pt_clust_10="36.88456"></scales>
<clustering>
<clus scale="   36.885">  1 10  2 -1</clus>
<clus scale="   85.998">  5  6 -1 -1</clus>
<clus scale="   86.698">  2  9  1 -1</clus>
<clus scale="   91.577">  2  5  1 -1</clus>
<clus scale="   95.212">  7  8 -1 -1</clus>
<clus scale="   36.885">  1  5  2 -1</clus>
</clustering>
</event>
<event>
10    2  0.1133532E-006  0.1054720E+03  0.7546771E-02  0.1270061E+00
          2   -1    0    0  503    0  0.00000000000E+00  0.00000000000E+00  0.44323011315E+03  0.44323011315E+03  0.00000000000E+00 0. -1.
         -2   -1    0    0    0  501 -0.00000000000E+00 -0.00000000000E+00 -0.69014428718E+02  0.69014428718E+02  0.00000000000E+00 0.  1.
         23    2    1    2    0    0  0.23962618779E+02  0.26428609404E+02  0.26585123282E+02  0.10151663322E+03  0.91247901597E+02 0.  0.
         23    2    1    2    0    0 -0.50500157693E+02 -0.52101322492E+02  0.29795297600E+03  0.31937343495E+03  0.89210993237E+02 0.  0.
        -11    1    4    4    0    0 -0.23558244129E+02  0.54739295274E+01  0.13083664763E+02  0.27497946370E+02  0.00000000000E+00 0.  1.
         11    1    4    4    0    0 -0.26941913564E+02 -0.57575252019E+02  0.28486931124E+03  0.29187548858E+03  0.00000000000E+00 0. -1.
        -13    1    3    3    0    0  0.37724501982E+02  0.53225866132E+02  0.28795141731E+02  0.71311226764E+02  0.00000000000E+00 0.  1.
         13    1    3    3    0    0 -0.13761883203E+02 -0.26797256728E+02 -0.22100184492E+01  0.30205406453E+02  0.00000000000E+00 0. -1.
         21    1    1    2  502  501 -0.30793788504E+01  0.24741639440E+02 -0.82716391338E+01  0.26268827729E+02  0.00000000000E+00 0.  1.
         21    1    1    2  503  502  0.29616917765E+02  0.93107364779E+00  0.57949224286E+02  0.65085645971E+02  0.00000000000E+00 0. -1.
<scales pt_clust_5="13000.00000" pt_clust_6="13000.00000" pt_clust_7="13000.00000" pt_clust_8="13000.00000" pt_clust_9="24.93253" pt_clust_10="29.52259"></scales>
<clustering>
<clus scale="   24.933">  2  9  1 -1</clus>
<clus scale="   29.523">  1 10  2 -1</clus>
<clus scale="   89.211">  5  6 -1 -1</clus>
<clus scale="   91.248">  7  8 -1 -1</clus>
<clus scale="  103.715">  1  5  2 -1</clus>
<clus scale="   29.523">  1  5  2 -1</clus>
</clustering>
</event>
<event>
10    2  0.1133532E-006  0.2250407E+03  0.7546771E-02  0.1130252E+00
         -1   -1    0    0    0  501 -0.00000000000E+00  0.00000000000E+00  0.76742080543E+02  0.76742080543E+02  0.00000000000E+00 0.  1.
          1   -1    0    0  503    0  0.00000000000E+00 -0.00000000000E+00 -0.15439307080E+04  0.15439307080E+04  0.00000000000E+00 0. -1.
         23    2    1    2    0    0 -0.21961230203E+03  0.88749487309E+01 -0.42486061811E+03  0.48853742722E+03  0.99267039111E+02 0.  0.
         23    2    1    2    0    0  0.16729497706E+03  0.55934757027E+02 -0.71059613970E+03  0.73898337118E+03  0.10016607578E+03 0.  0.
        -11    1    3    3    0    0 -0.10889597006E+03 -0.22514027315E+02 -0.12473387699E+03  0.16710402087E+03  0.00000000000E+00 0.  1.
         11    1    3    3    0    0 -0.11071633197E+03  0.31388976046E+02 -0.30012674112E+03  0.32143340635E+03  0.00000000000E+00 0. -1.
        -13    1    4    4    0    0  0.55668240394E+02  0.59852161052E+02 -0.41532990353E+03  0.42329677879E+03  0.00000000000E+00 0.  1.
         13    1    4    4    0    0  0.11162673667E+03 -0.39174040250E+01 -0.29526623617E+03  0.31568659239E+03  0.00000000000E+00 0. -1.
         21    1    1    2  502  501 -0.45308158220E+01 -0.35875482992E+02  0.16054570690E+02  0.39564223890E+02  0.00000000000E+00 0.  1.
         21    1    1    2  503  502  0.56848140792E+02 -0.28934222765E+02 -0.34778644033E+03  0.35358776624E+03  0.00000000000E+00 0. -1.
<scales pt_clust_5="13000.00000" pt_clust_6="13000.00000" pt_clust_7="13000.00000" pt_clust_8="13000.00000" pt_clust_9="36.16046" pt_clust_10="64.54475"></scales>
<clustering>
<clus scale="   36.160">  1  9  2 -1</clus>
<clus scale="   64.545">  2 10  1 -1</clus>
<clus scale="   99.267">  5  6 -1 -1</clus>
<clus scale="  100.166">  7  8 -1 -1</clus>
<clus scale="  224.642">  1  5  2 -1</clus>
<clus scale="   64.545">  2  5  1 -1</clus>
</clustering>
</event>
<event>
10    2  0.1133532E-006  0.9798587E+02  0.7546771E-02  0.1285216E+00
          1   -1    0    0  503    0  0.00000000000E+00  0.00000000000E+00  0.12022036631E+03  0.12022036631E+03  0.00000000000E+00 0. -1.
         -1   -1    0    0    0  501 -0.00000000000E+00 -0.00000000000E+00 -0.23978014758E+03  0.23978014758E+03  0.00000000000E+00 0.  1.
         23    2    1    2    0    0  0.29218747320E+02 -0.22219453546E+02 -0.34521736103E+02  0.10323191839E+03  0.90097943374E+02 0.  0.
         23    2    1    2    0    0 -0.23021417939E+02  0.39851320342E+02  0.19391811282E+02  0.10409766212E+03  0.91335466806E+02 0.  0.
        -11    1    3    3    0    0 -0.21076273559E+02 -0.23487543564E+02  0.12901837612E+02  0.34092982028E+02  0.00000000000E+00 0. -1.
         11    1    3    3    0    0  0.50295020879E+02  0.12680900180E+01 -0.47423573715E+02  0.69138936362E+02  0.00000000000E+00 0.  1.
        -11    1    4    4    0    0 -0.27146524311E+02 -0.12569731181E+02  0.37961207641E+02  0.48332030887E+02  0.00000000000E+00 0. -1.
         11    1    4    4    0    0  0.41251063725E+01  0.52421051524E+02 -0.18569396358E+02  0.55765631231E+02  0.00000000000E+00 0.  1.
         21    1    1    2  502  501 -0.21599721035E+02 -0.32488763442E+00 -0.12180850021E+03  0.12370919215E+03  0.00000000000E+00 0.  1.
         21    1    1    2  503  502  0.15402391654E+02 -0.17306979162E+02  0.17378643749E+02  0.28961741227E+02  0.00000000000E+00 0.  1.
<scales pt_clust_5="13000.00000" pt_clust_6="13000.00000" pt_clust_7="13000.00000" pt_clust_8="13000.00000" pt_clust_9="21.60216" pt_clust_10="22.48409"></scales>
<clustering>
<clus scale="   21.602">  2  9  1 -1</clus>
<clus scale="   22.484">  1 10  2 -1</clus>
<clus scale="   90.098">  5  6 -1 -1</clus>
<clus scale="   91.335">  7  8 -1 -1</clus>
<clus scale="   96.833">  2  5  1 -1</clus>
<clus scale="   22.484">  1  5  2 -1</clus>
</clustering>
</event>
<event>
10    2  0.1133532E-006  0.1549921E+03  0.7546771E-02  0.1198859E+00
          1   -1    0    0  503    0  0.00000000000E+00  0.00000000000E+00  0.17623166227E+03  0.17623166227E+03  0.00000000000E+00 0. -1.
         -1   -1    0    0    0  501 -0.00000000000E+00 -0.00000000000E+00 -0.59217375903E+03  0.59217375903E+03  0.00000000000E+00 0.  1.
         23    2    1    2    0    0 -0.12522810292E+02 -0.99140697672E+02 -0.30156486656E+03  0.33809194806E+03  0.11566805041E+03 0.  0.
         23    2    1    2    0    0  0.11833189634E+03  0.20039006185E+02  0.30001047960E+02  0.15649641236E+03  0.95849177056E+02 0.  0.
        -11    1    4    4    0    0  0.54166196593E+01  0.38320294993E+02  0.13161121568E+02  0.40877865622E+02  0.00000000000E+00 0.  1.
         11    1    4    4    0    0  0.11291527668E+03 -0.18281288809E+02  0.16839926393E+02  0.11561854674E+03  0.00000000000E+00 0. -1.
        -11    1    3    3    0    0  0.10171990273E+02 -0.29602292164E+02 -0.38671024295E+01  0.31539175142E+02  0.00000000000E+00 0. -1.
         11    1    3    3    0    0 -0.22694800565E+02 -0.69538405509E+02 -0.29769776413E+03  0.30655277292E+03  0.00000000000E+00 0.  1.
         21    1    1    2  502  501 -0.87812689230E+02  0.49121082607E+02 -0.19079664574E+03  0.21570189886E+03  0.00000000000E+00 0. -1.
         21    1    1    2  503  502 -0.17996396822E+02  0.29980608881E+02  0.46418367582E+02  0.58115162018E+02  0.00000000000E+00 0. -1.
<scales pt_clust_5="13000.00000" pt_clust_6="13000.00000" pt_clust_7="13000.00000" pt_clust_8="13000.00000" pt_clust_9="103.68052" pt_clust_10="34.96723"></scales>
<clustering>
<clus scale="   34.967">  1 10  2 -1</clus>
<clus scale="   95.849">  5  6 -1 -1</clus>
<clus scale="  103.681">  2  9  1 -1</clus>
<clus scale="  115.668">  7  8 -1 -1</clus>
<clus scale="  140.821">  1  5  2 -1</clus>
<clus scale="   34.967">  1  5  2 -1</clus>
</clustering>
</event>
<event>
10    2  0.1133532E-006  0.1859551E+03  0.7546771E-02  0.1162449E+00
          1   -1    0    0  503    0  0.00000000000E+00  0.00000000000E+00  0.11059261411E+04  0.11059261411E+04  0.00000000000E+00 0. -1.
         -1   -1    0    0    0  501 -0.00000000000E+00 -0.00000000000E+00 -0.10176651545E+03  0.10176651545E+03  0.00000000000E+00 0.  1.
         23    2    1    2    0    0  0.55061250553E+02  0.13239042431E+03  0.50074098032E+02  0.17747090801E+03  0.91812538001E+02 0.  0.
         23    2    1    2    0    0 -0.87636845958E+01 -0.16056836740E+03  0.80071496591E+03  0.82156807001E+03  0.89278408626E+02 0.  0.
        -11    1    3    3    0    0  0.10396311136E+01  0.89240124730E+02 -0.45422840988E+01  0.89361697833E+02  0.00000000000E+00 0. -1.
         11    1    3    3    0    0  0.54021619440E+02  0.43150299578E+02  0.54616382131E+02  0.88109210175E+02  0.00000000000E+00 0.  1.
        -13    1    4    4    0    0  0.31285770678E+02 -0.12881062580E+03  0.55780523198E+03  0.57333903896E+03  0.00000000000E+00 0. -1.
         13    1    4    4    0    0 -0.40049455274E+02 -0.31757741600E+02  0.24290973393E+03  0.24822903105E+03  0.00000000000E+00 0.  1.
         21    1    1    2  502  501 -0.82127498545E+01  0.28266140581E+02 -0.17058709738E+02  0.34020927992E+02  0.00000000000E+00 0.  1.
         21    1    1    2  503  502 -0.38084816103E+02 -0.88197489883E-01  0.17042927140E+03  0.17463275049E+03  0.00000000000E+00 0. -1.
<scales pt_clust_5="13000.00000" pt_clust_6="13000.00000" pt_clust_7="13000.00000" pt_clust_8="13000.00000" pt_clust_9="29.43508" pt_clust_10="38.31749"></scales>
<clustering>
<clus scale="   29.435">  2  9  1 -1</clus>
<clus scale="   38.317">  1 10  2 -1</clus>
<clus scale="   89.278">  7  8 -1 -1</clus>
<clus scale="   91.813">  5  6 -1 -1</clus>
<clus scale="  184.717">  1  7  2 -1</clus>
<clus scale="   38.317">  1  5  2 -1</clus>
</clustering>
</event>
<event>
10    2  0.1133532E-006  0.9926258E+02  0.7546771E-02  0.1283352E+00
         -2   -1    0    0    0  501 -0.00000000000E+00  0.00000000000E+00  0.18606101027E+03  0.18606101027E+03  0.00000000000E+00 0.  1.
          2   -1    0    0  503    0  0.00000000000E+00 -0.00000000000E+00 -0.18233325863E+03  0.18233325863E+03  0.00000000000E+00 0. -1.
         23    2    1    2    0    0  0.74886769824E+01  0.22375980684E+02  0.63465653272E+02  0.11444964050E+03  0.92271698103E+02 0.  0.
         23    2    1    2    0    0 -0.41302825711E+02 -0.31856835566E+02 -0.90247281437E+02  0.13724364274E+03  0.89277456739E+02 0.  0.
        -11    1    3    3    0    0  0.42750625509E+02  0.26606288845E+02  0.60642616974E+02  0.78822823985E+02  0.00000000000E+00 0.  1.
         11    1    3    3    0    0 -0.35261948527E+02 -0.42303081610E+01  0.28230362983E+01  0.35626816515E+02  0.00000000000E+00 0. -1.
        -11    1    4    4    0    0 -0.62162257585E+02 -0.12129019338E+02 -0.29117140593E+02  0.69707010082E+02  0.00000000000E+00 0.  1.
         11    1    4    4    0    0  0.20859431874E+02 -0.19727816228E+02 -0.61130140844E+02  0.67536632659E+02  0.00000000000E+00 0. -1.
         21    1    1    2  502  501  0.30591122466E+02 -0.12020174612E+02  0.66770367875E+02  0.74421659465E+02  0.00000000000E+00 0. -1.
         21    1    1    2  503  502  0.32230262631E+01  0.21501029493E+02 -0.36260988075E+02  0.42279326198E+02  0.00000000000E+00 0. -1.
<scales pt_clust_5="13000.00000" pt_clust_6="13000.00000" pt_clust_7="13000.00000" pt_clust_8="13000.00000" pt_clust_9="32.74279" pt_clust_10="21.74125"></scales>
<clustering>
<clus scale="   21.741">  2 10  1 -1</clus>
<clus scale="   32.743">  1  9  2 -1</clus>
<clus scale="   89.277">  7  8 -1 -1</clus>
<clus scale="   92.272">  5  6 -1 -1</clus>
<clus scale="   96.486">  2  7  1 -1</clus>
<clus scale="   21.741">  2  5  1 -1</clus>
</clustering>
</event>
<event>
10    2  0.1133532E-006  0.1478103E+03  0.7546771E-02  0.1225772E+00
         -1   -1    0    0    0  501 -0.00000000000E+00  0.00000000000E+00  0.11776018612E+03  0.11776018612E+03  0.00000000000E+00 0.  1.
          1   -1    0    0  503    0  0.00000000000E+00 -0.00000000000E+00 -0.70602121261E+03  0.70602121261E+03  0.00000000000E+00 0. -1.
         23    2    1    2    0    0 -0.23042383680E+02  0.33432327833E+01  0.34099371359E+02  0.98181346225E+02  0.89076826214E+02 0.  0.
         23    2    1    2    0    0  0.69802458721E+02 -0.60476684894E+02 -0.41012470746E+03  0.43077076144E+03  0.93975319013E+02 0.  0.
        -11    1    4    4    0    0  0.47080715963E+02  0.16064629155E+02 -0.19692185684E+03  0.20310805949E+03  0.00000000000E+00 0.  1.
         11    1    4    4    0    0  0.22721742759E+02 -0.76541314048E+02 -0.21320285061E+03  0.22766270195E+03  0.00000000000E+00 0. -1.
        -13    1    3    3    0    0  0.91461084361E+01  0.23354954363E+02  0.50883322586E+02  0.56729337298E+02  0.00000000000E+00 0.  1.
         13    1    3    3    0    0 -0.32188492116E+02 -0.20011721580E+02 -0.16783951227E+02  0.41452008927E+02  0.00000000000E+00 0. -1.
         21    1    1    2  502  501 -0.77409150025E+02  0.72891625026E+02 -0.31582212987E+02  0.11091799531E+03  0.00000000000E+00 0.  1.
         21    1    1    2  503  502  0.30649074984E+02 -0.15758172915E+02 -0.18065347740E+03  0.18391129576E+03  0.00000000000E+00 0. -1.
<scales pt_clust_5="13000.00000" pt_clust_6="13000.00000" pt_clust_7="13000.00000" pt_clust_8="13000.00000" pt_clust_9="114.08999" pt_clust_10="34.46282"></scales>
<clustering>
<clus scale="   34.463">  2 10  1 -1</clus>
<clus scale="   89.077">  7  8 -1 -1</clus>
<clus scale="   91.588">  1  7  2 -1</clus>
<clus scale="   93.975">  5  6 -1 -1</clus>
<clus scale="  114.090">  1  9  2 -1</clus>
<clus scale="   34.463">  2  5  1 -1</clus>
</clustering>
</event>
<event>
10    2  0.1133532E-006  0.1670481E+03  0.7546771E-02  0.1181345E+00
          1   -1    0    0  503    0  0.00000000000E+00  0.00000000000E+00  0.39917005984E+03  0.39917005984E+03  0.00000000000E+00 0. -1.
         -1   -1    0    0    0  501 -0.00000000000E+00 -0.00000000000E+00 -0.28010674140E+03  0.28010674140E+03  0.00000000000E+00 0.  1.
         23    2    1    2    0    0  0.50089653215E+02  0.15769812235E+03 -0.10043692935E+03  0.21390994674E+03  0.91061613124E+02 0.  0.
         23    2    1    2    0    0 -0.49076384534E+02 -0.10980677242E+03  0.16952529516E+03  0.22797685330E+03  0.93640809237E+02 0.  0.
        -11    1    4    4    0    0  0.17682678138E+01 -0.97164634580E+02  0.88210471811E+02  0.13124473445E+03  0.00000000000E+00 0.  1.
         11    1    4    4    0    0 -0.50844652348E+02 -0.12642137844E+02  0.81314823348E+02  0.96732118853E+02  0.00000000000E+00 0. -1.
        -11    1    3    3    0    0  0.58401072314E+02  0.47863893811E+02 -0.60458737268E+02  0.96731052357E+02  0.00000000000E+00 0. -1.
         11    1    3    3    0    0 -0.83114190989E+01  0.10983422854E+03 -0.39978192081E+02  0.11717889438E+03  0.00000000000E+00 0.  1.
         21    1    1    2  502  501 -0.12425766498E+02 -0.25879047820E+02 -0.90396552335E+02  0.94845460951E+02  0.00000000000E+00 0. -1.
         21    1    1    2  503  502  0.11412497817E+02 -0.22012302108E+02  0.14037150496E+03  0.14254454025E+03  0.00000000000E+00 0. -1.
<scales pt_clust_5="13000.00000" pt_clust_6="13000.00000" pt_clust_7="13000.00000" pt_clust_8="13000.00000" pt_clust_9="28.83672" pt_clust_10="24.79489"></scales>
<clustering>
<clus scale="   24.795">  1 10  2 -1</clus>
<clus scale="   28.837">  2  9  1 -1</clus>
<clus scale="   91.062">  7  8 -1 -1</clus>
<clus scale="   93.641">  5  6 -1 -1</clus>
<clus scale="  165.616">  2  7  1 -1</clus>
<clus scale="   24.795">  1  5  2 -1</clus>
</clustering>
</event>
<event>
10    2  0.1133532E-006  0.1331710E+03  0.7546771E-02  0.1223026E+00
         -1   -1    0    0    0  501 -0.00000000000E+00  0.00000000000E+00  0.15125221613E+03  0.15125221613E+03  0.00000000000E+00 0.  1.
          1   -1    0    0  503    0  0.00000000000E+00 -0.00000000000E+00 -0.23466323401E+03  0.23466323401E+03  0.00000000000E+00 0. -1.
         23    2    1    2    0    0 -0.57377020440E+02  0.70026589868E+02  0.28748198742E+02  0.13173053087E+03  0.91272274369E+02 0.  0.
         23    2    1    2    0    0  0.75638902501E+02 -0.56821112271E+02 -0.11376948747E+03  0.17427662454E+03  0.92081285879E+02 0.  0.
        -11    1    3    3    0    0  0.47419794478E+01  0.65550670330E+02  0.86550102235E+01  0.66289410555E+02  0.00000000000E+00 0. -1.
         11    1    3    3    0    0 -0.62118999888E+02  0.44759195378E+01  0.20093188519E+02  0.65441120312E+02  0.00000000000E+00 0.  1.
        -13    1    4    4    0    0 -0.25979355208E+01 -0.34958072714E+02 -0.71289174151E+00  0.35061721741E+02  0.00000000000E+00 0.  1.
         13    1    4    4    0    0  0.78236838022E+02 -0.21863039557E+02 -0.11305659573E+03  0.13921490280E+03  0.00000000000E+00 0. -1.
         21    1    1    2  502  501  0.71233994691E+01  0.24134036088E+02  0.18992722235E+02  0.31526465324E+02  0.00000000000E+00 0. -1.
         21    1    1    2  503  502 -0.25385281530E+02 -0.37339513685E+02 -0.17382451391E+02  0.48381829409E+02  0.00000000000E+00 0. -1.
<scales pt_clust_5="13000.00000" pt_clust_6="13000.00000" pt_clust_7="13000.00000" pt_clust_8="13000.00000" pt_clust_9="25.16336" pt_clust_10="42.21401"></scales>
<clustering>
<clus scale="   25.163">  1  9  2 -1</clus>
<clus scale="   42.214">  2 10  1 -1</clus>
<clus scale="   91.272">  5  6 -1 -1</clus>
<clus scale="   92.081">  7  8 -1 -1</clus>
<clus scale="  132.613">  1  5  2 -1</clus>
<clus scale="   42.214">  2  5  1 -1</clus>
</clustering>
</event>
<event>
10    2  0.1133532E-006  0.2257621E+03  0.7546771E-02  0.1129797E+00
         -1   -1    0    0    0  501 -0.00000000000E+00  0.00000000000E+00  0.51667047839E+03  0.51667047839E+03  0.00000000000E+00 0.  1.
          1   -1    0    0  503    0  0.00000000000E+00 -0.00000000000E+00 -0.19268430357E+03  0.19268430357E+03  0.00000000000E+00 0. -1.
         23    2    1    2    0    0 -0.63759274085E+02  0.20537703622E+03  0.32141407258E+03  0.39784978784E+03  0.93447715800E+02 0.  0.
         23    2    1    2    0    0  0.55094109378E+02 -0.17598956724E+03  0.40658903158E+02  0.20987374049E+03  0.91575935035E+02 0.  0.
        -11    1    3    3    0    0 -0.33613169027E+02  0.20061541644E+03  0.28805609569E+03  0.35263678864E+03  0.00000000000E+00 0.  1.
         11    1    3    3    0    0 -0.30146105058E+02  0.47616197822E+01  0.33357976899E+02  0.45212999192E+02  0.00000000000E+00 0. -1.
        -13    1    4    4    0    0  0.62973499995E+02 -0.52868215480E+02  0.21829044762E+02  0.85071834968E+02  0.00000000000E+00 0.  1.
         13    1    4    4    0    0 -0.78793906174E+01 -0.12312135176E+03  0.18829858397E+02  0.12480190552E+03  0.00000000000E+00 0. -1.
         21    1    1    2  502  501  0.27199888128E+02 -0.95621220116E+01  0.21625422330E+02  0.36040629607E+02  0.00000000000E+00 0. -1.
         21    1    1    2  503  502 -0.18534723421E+02 -0.19825346971E+02 -0.59712223253E+02  0.65590624030E+02  0.00000000000E+00 0. -1.
<scales pt_clust_5="13000.00000" pt_clust_6="13000.00000" pt_clust_7="13000.00000" pt_clust_8="13000.00000" pt_clust_9="28.26055" pt_clust_10="27.14001"></scales>
<clustering>
<clus scale="   27.140">  2 10  1 -1</clus>
<clus scale="   28.261">  2  9  1 -1</clus>
<clus scale="   91.576">  7  8 -1 -1</clus>
<clus scale="   93.448">  5  6 -1 -1</clus>
<clus scale="  224.994">  2  7  1 -1</clus>
<clus scale="   27.140">  2  5  1 -1</clus>
</clustering>
</event>
<event>
10    2  0.1133532E-006  0.9933087E+02  0.7546771E-02  0.1283215E+00
         -1   -1    0    0    0  501 -0.00000000000E+00  0.00000000000E+00  0.71919551139E+03  0.71919551139E+03  0.00000000000E+00 0.  1.
          1   -1    0    0  503    0  0.00000000000E+00 -0.00000000000E+00 -0.32183678401E+02  0.32183678401E+02  0.00000000000E+00 0. -1.
         23    2    1    2    0    0  0.50639308686E+02  0.45808463917E+02  0.35749056731E+03  0.37478302804E+03  0.89443040209E+02 0.  0.
         23    2    1    2    0    0 -0.89617057156E+01  0.59300776496E+00  0.11716542127E+03  0.14951861339E+03  0.92452236208E+02 0.  0.
        -11    1    4    4    0    0 -0.26802141447E+02  0.39610506782E+02  0.77615988819E+02  0.91167915157E+02  0.00000000000E+00 0.  1.
         11    1    4    4    0    0  0.17840435731E+02 -0.39017499017E+02  0.39549432450E+02  0.58350698228E+02  0.00000000000E+00 0. -1.
        -13    1    3    3    0    0  0.59188677869E+02 -0.33743871655E+01  0.14812779772E+03  0.15955102800E+03  0.00000000000E+00 0. -1.
         13    1    3    3    0    0 -0.85493691836E+01  0.49182851083E+02  0.20936276959E+03  0.21523200005E+03  0.00000000000E+00 0.  1.
         21    1    1    2  502  501 -0.12973508612E+02 -0.35361106984E+02  0.17340747494E+03  0.17745104164E+03  0.00000000000E+00 0.  1.
         21    1    1    2  503  502 -0.28704094358E+02 -0.11040364698E+02  0.38948369472E+02  0.49626506729E+02  0.00000000000E+00 0.  1.
<scales pt_clust_5="13000.00000" pt_clust_6="13000.00000" pt_clust_7="13000.00000" pt_clust_8="13000.00000" pt_clust_9="39.22987" pt_clust_10="30.75410"></scales>
<clustering>
<clus scale="   30.754">  2 10  1 -1</clus>
<clus scale="   39.230">  1  9  2 -1</clus>
<clus scale="   89.443">  7  8 -1 -1</clus>
<clus scale="   92.452">  5  6 -1 -1</clus>
<clus scale="   96.536">  1  7  2 -1</clus>
<clus scale="   30.754">  2  5  1 -1</clus>
</clustering>
</event>
<event>
10    2  0.1133532E-006  0.9941194E+02  0.7546771E-02  0.1281840E+00
          1   -1    0    0  503    0  0.00000000000E+00  0.00000000000E+00  0.49925285739E+02  0.49925285739E+02  0.00000000000E+00 0. -1.
         -1   -1    0    0    0  501 -0.00000000000E+00 -0.00000000000E+00 -0.73838660407E+03  0.73838660407E+03  0.00000000000E+00 0.  1.
         23    2    1    2    0    0  0.28391155805E+02 -0.20364905816E+02 -0.34685867972E+03  0.36053315586E+03  0.91937074492E+02 0.  0.
         23    2    1    2    0    0 -0.28639455021E+02  0.31299697152E+02 -0.31522357541E+03  0.33125689732E+03  0.92549122653E+02 0.  0.
        -11    1    3    3    0    0 -0.19274152522E+02  0.24313851007E+02 -0.80313837528E+02  0.86098599319E+02  0.00000000000E+00 0.  1.
         11    1    3    3    0    0  0.47665308327E+02 -0.44678756823E+02 -0.26654484219E+03  0.27443455654E+03  0.00000000000E+00 0. -1.
        -11    1    4    4    0    0 -0.14646841580E+02  0.62446836661E+02 -0.16116844754E+03  0.17346298123E+03  0.00000000000E+00 0. -1.
         11    1    4    4    0    0 -0.13992613441E+02 -0.31147139509E+02 -0.15405512787E+03  0.15779391609E+03  0.00000000000E+00 0.  1.
         21    1    1    2  502  501 -0.14436786533E+02  0.15986419012E+02 -0.52176528367E+02  0.56447998288E+02  0.00000000000E+00 0. -1.
         21    1    1    2  503  502  0.14685085748E+02 -0.26921210349E+02  0.25797465162E+02  0.40073838334E+02  0.00000000000E+00 0. -1.
<scales pt_clust_5="13000.00000" pt_clust_6="13000.00000" pt_clust_7="13000.00000" pt_clust_8="13000.00000" pt_clust_9="21.54034" pt_clust_10="30.44746"></scales>
<clustering>
<clus scale="   21.540">  2  9  1 -1</clus>
<clus scale="   30.447">  1 10  2 -1</clus>
<clus scale="   91.937">  5  6 -1 -1</clus>
<clus scale="   92.549">  7  8 -1 -1</clus>
<clus scale="   98.842">  2  5  1 -1</clus>
<clus scale="   30.447">  1  5  2 -1</clus>
</clustering>
</event>
<event>
10    2  0.1133532E-006  0.9757020E+02  0.7546771E-02  0.1286222E+00
         -4   -1    0    0    0  501 -0.00000000000E+00  0.00000000000E+00  0.24003293641E+02  0.24003293641E+02  0.00000000000E+00 0.  1.
          4   -1    0    0  503    0  0.00000000000E+00 -0.00000000000E+00 -0.92963724682E+03  0.92963724682E+03  0.00000000000E+00 0. -1.
         23    2    1    2    0    0 -0.19590344658E+02 -0.48542632311E+02 -0.28538533526E+03  0.30333846614E+03  0.88483143606E+02 0.  0.
         23    2    1    2    0    0 -0.23025945926E+02  0.21811906282E+02 -0.40914524675E+03  0.42011194351E+03  0.89934746863E+02 0.  0.
        -11    1    3    3    0    0  0.29487163309E+02 -0.43962257344E+02 -0.13162541495E+03  0.14187114834E+03  0.00000000000E+00 0.  1.
         11    1    3    3    0    0 -0.49077507967E+02 -0.45803749669E+01 -0.15375992031E+03  0.16146731780E+03  0.00000000000E+00 0. -1.
        -13    1    4    4    0    0  0.18268507439E+02  0.42475371700E+02 -0.15285529508E+03  0.15969545015E+03  0.00000000000E+00 0.  1.
         13    1    4    4    0    0 -0.41294453365E+02 -0.20663465418E+02 -0.25628995167E+03  0.26041649335E+03  0.00000000000E+00 0. -1.
         21    1    1    2  502  501  0.35981696451E+02 -0.33375391887E+01 -0.31414326461E+02  0.47881954371E+02  0.00000000000E+00 0. -1.
         21    1    1    2  503  502  0.66345941326E+01  0.30068265218E+02 -0.17968904470E+03  0.18230817644E+03  0.00000000000E+00 0.  1.
<scales pt_clust_5="13000.00000" pt_clust_6="13000.00000" pt_clust_7="13000.00000" pt_clust_8="13000.00000" pt_clust_9="36.37495" pt_clust_10="30.79153"></scales>
<clustering>
<clus scale="   30.792">  2 10  1 -1</clus>
<clus scale="   36.375">  1  9  2 -1</clus>
<clus scale="   88.483">  5  6 -1 -1</clus>
<clus scale="   89.935">  7  8 -1 -1</clus>
<clus scale="   96.234">  1  5  2 -1</clus>
<clus scale="   30.792">  2  5  1 -1</clus>
</clustering>
</event>
<event>
10    2  0.1133532E-006  0.1165759E+03  0.7546771E-02  0.1260118E+00
          2   -1    0    0  503    0  0.00000000000E+00  0.00000000000E+00  0.15477816561E+03  0.15477816561E+03  0.00000000000E+00 0.  1.
         -2   -1    0    0    0  501 -0.00000000000E+00 -0.00000000000E+00 -0.20400199338E+03  0.20400199338E+03  0.00000000000E+00 0. -1.
         23    2    1    2    0    0 -0.39296276969E+02 -0.71491133829E+01 -0.29700222826E+02  0.99075823429E+02  0.85665677762E+02 0.  0.
         23    2    1    2    0    0 -0.34286550534E+02  0.59729964338E+02  0.34935235702E+02  0.13490176508E+03  0.11061093680E+03 0.  0.
        -11    1    4    4    0    0 -0.37765747705E+02 -0.14809098991E+02 -0.17003783272E+02  0.43985108369E+02  0.00000000000E+00 0. -1.
         11    1    4    4    0    0  0.34791971706E+01  0.74539063329E+02  0.51939018974E+02  0.90916656708E+02  0.00000000000E+00 0.  1.
        -13    1    3    3    0    0 -0.54232458607E+02  0.22748374988E+02 -0.29178775132E+02  0.65650963811E+02  0.00000000000E+00 0.  1.
         13    1    3    3    0    0  0.14936181637E+02 -0.29897488371E+02 -0.52144769404E+00  0.33424859618E+02  0.00000000000E+00 0. -1.
         21    1    1    2  502  501 -0.83193904759E+00 -0.21287012751E+02 -0.36251658483E+02  0.42047732129E+02  0.00000000000E+00 0. -1.
         21    1    1    2  503  502  0.74414766551E+02 -0.31293838204E+02 -0.18207182164E+02  0.82754838364E+02  0.00000000000E+00 0. -1.
<scales pt_clust_5="13000.00000" pt_clust_6="13000.00000" pt_clust_7="13000.00000" pt_clust_8="13000.00000" pt_clust_9="21.30326" pt_clust_10="83.24350"></scales>
<clustering>
<clus scale="   21.303">  2  9  1 -1</clus>
<clus scale="   83.243">  2 10  1 -1</clus>
<clus scale="   85.666">  7  8 -1 -1</clus>
<clus scale="   93.240">  2  7  1 -1</clus>
<clus scale="  110.611">  5  6 -1 -1</clus>
<clus scale="  116.576">  1  5  2 -1</clus>
</clustering>
</event>
<event>
10    2  0.1133532E-006  0.1165980E+03  0.7546771E-02  0.1249157E+00
          1   -1    0    0  503    0  0.00000000000E+00  0.00000000000E+00  0.74342085522E+03  0.74342085522E+03  0.00000000000E+00 0. -1.
         -1   -1    0    0    0  501 -0.00000000000E+00 -0.00000000000E+00 -0.58856734405E+02  0.58856734405E+02  0.00000000000E+00 0.  1.
         23    2    1    2    0    0  0.10854171239E+02 -0.60413884321E+02  0.32623759983E+02  0.11451393065E+03  0.91002638119E+02 0.  0.
         23    2    1    2    0    0 -0.31344667888E+02  0.10186170870E+03  0.40394817053E+03  0.42735235429E+03  0.89986745378E+02 0.  0.
        -11    1    3    3    0    0 -0.21124782139E+02 -0.67313917133E+02  0.39826018367E+02  0.81015625648E+02  0.00000000000E+00 0.  1.
         11    1    3    3    0    0  0.31978953378E+02  0.69000328113E+01 -0.72022583840E+01  0.33498304999E+02  0.00000000000E+00 0. -1.
        -13    1    4    4    0    0 -0.32285261239E+02  0.69801829789E+02  0.37898360097E+03  0.38670816302E+03  0.00000000000E+00 0. -1.
         13    1    4    4    0    0  0.94059335161E+00  0.32059878912E+02  0.24964569552E+02  0.40644191278E+02  0.00000000000E+00 0.  1.
         21    1    1    2  502  501  0.21310802079E+02  0.11737247404E+01  0.22844340845E+02  0.31263266363E+02  0.00000000000E+00 0. -1.
         21    1    1    2  503  502 -0.82030543068E+00 -0.42621549121E+02  0.22514784946E+03  0.22914803832E+03  0.00000000000E+00 0. -1.
<scales pt_clust_5="13000.00000" pt_clust_6="13000.00000" pt_clust_7="13000.00000" pt_clust_8="13000.00000" pt_clust_9="21.34310" pt_clust_10="42.57861"></scales>
<clustering>
<clus scale="   21.343">  2  9  1 -1</clus>
<clus scale="   42.579">  1 10  2 -1</clus>
<clus scale="   89.987">  7  8 -1 -1</clus>
<clus scale="   91.003">  5  6 -1 -1</clus>
<clus scale="  115.807">  1  7  2 -1</clus>
<clus scale="   42.579">  1  5  2 -1</clus>
</clustering>
</event>
<event>
10    2  0.1133532E-006  0.1015275E+03  0.7546771E-02  0.1278450E+00
          1   -1    0    0  503    0  0.00000000000E+00  0.00000000000E+00  0.42873165852E+03  0.42873165852E+03  0.00000000000E+00 0. -1.
         -1   -1    0    0    0  501 -0.00000000000E+00 -0.00000000000E+00 -0.67062040496E+02  0.67062040496E+02  0.00000000000E+00 0.  1.
         23    2    1    2    0    0  0.36843612022E+02  0.24927795554E+02  0.10859329559E+02  0.10172911122E+03  0.90840741378E+02 0.  0.
         23    2    1    2    0    0 -0.14755200192E+02 -0.23929785709E+02  0.12274250297E+03  0.15361005321E+03  0.87977132444E+02 0.  0.
        -13    1    3    3    0    0 -0.93177840420E+01 -0.22405667282E+02 -0.17366530179E+02  0.29840097122E+02  0.00000000000E+00 0. -1.
         13    1    3    3    0    0  0.46161396064E+02  0.47333462836E+02  0.28225859738E+02  0.71889014102E+02  0.00000000000E+00 0.  1.
        -13    1    4    4    0    0  0.20345186609E+02 -0.42103307297E+02  0.38557401473E+02  0.60607658854E+02  0.00000000000E+00 0.  1.
         13    1    4    4    0    0 -0.35100386801E+02  0.18173521588E+02  0.84185101500E+02  0.93002394351E+02  0.00000000000E+00 0. -1.
         21    1    1    2  502  501  0.13018100416E+02  0.15870192723E+02  0.19605908154E+02  0.28385305882E+02  0.00000000000E+00 0.  1.
         21    1    1    2  503  502 -0.35106512246E+02 -0.16868202568E+02  0.20846187734E+03  0.21206922871E+03  0.00000000000E+00 0. -1.
<scales pt_clust_5="13000.00000" pt_clust_6="13000.00000" pt_clust_7="13000.00000" pt_clust_8="13000.00000" pt_clust_9="20.52642" pt_clust_10="38.41404"></scales>
<clustering>
<clus scale="   20.526">  2  9  1 -1</clus>
<clus scale="   38.414">  1 10  2 -1</clus>
<clus scale="   87.977">  7  8 -1 -1</clus>
<clus scale="   90.841">  5  6 -1 -1</clus>
<clus scale="   98.974">  1  7  2 -1</clus>
<clus scale="   38.414">  1  5  2 -1</clus>
</clustering>
</event>
<event>
10    2  0.1133532E-006  0.1031376E+03  0.7546771E-02  0.1274396E+00
         -1   -1    0    0    0  501 -0.00000000000E+00  0.00000000000E+00  0.67736104446E+03  0.67736104446E+03  0.00000000000E+00 0.  1.
          1   -1    0    0  503    0  0.00000000000E+00 -0.00000000000E+00 -0.25179070170E+02  0.25179070170E+02  0.00000000000E+00 0. -1.
         23    2    1    2    0    0  0.50611085054E+02  0.19754498947E+02  0.25284229783E+03  0.27429023490E+03  0.91401221154E+02 0.  0.
         23    2    1    2    0    0 -0.39635903723E+02  0.60566803587E+01  0.25156570004E+03  0.27106262548E+03  0.92638853919E+02 0.  0.
        -11    1    3    3    0    0  0.43287519192E+02 -0.23156127444E+02  0.19944192962E+03  0.20539498253E+03  0.00000000000E+00 0. -1.
         11    1    3    3    0    0  0.73235658611E+01  0.42910626391E+02  0.53400368209E+02  0.68895252370E+02  0.00000000000E+00 0.  1.
        -13    1    4    4    0    0 -0.67882510251E+02  0.36001281988E+01  0.21015229423E+03  0.22087322810E+03  0.00000000000E+00 0.  1.
         13    1    4    4    0    0  0.28246606527E+02  0.24565521600E+01  0.41413405812E+02  0.50189397384E+02  0.00000000000E+00 0. -1.
         21    1    1    2  502  501 -0.26762545293E+02 -0.72241920504E+01  0.96615484286E+02  0.10051355424E+03  0.00000000000E+00 0.  1.
         21    1    1    2  503  502  0.15787363963E+02 -0.18586987255E+02  0.51158492132E+02  0.56673700015E+02  0.00000000000E+00 0. -1.
<scales pt_clust_5="13000.00000" pt_clust_6="13000.00000" pt_clust_7="13000.00000" pt_clust_8="13000.00000" pt_clust_9="26.88505" pt_clust_10="24.38682"></scales>
<clustering>
<clus scale="   24.387">  2 10  1 -1</clus>
<clus scale="   26.885">  1  9  2 -1</clus>
<clus scale="   91.401">  5  6 -1 -1</clus>
<clus scale="   92.639">  7  8 -1 -1</clus>
<clus scale="  102.027">  1  5  2 -1</clus>
<clus scale="   24.387">  2  5  1 -1</clus>
</clustering>
</event>
<event>
10    2  0.1133532E-006  0.1230355E+03  0.7546771E-02  0.1243583E+00
         -1   -1    0    0    0  501 -0.00000000000E+00  0.00000000000E+00  0.99256159234E+02  0.99256159234E+02  0.00000000000E+00 0.  1.
          1   -1    0    0  503    0  0.00000000000E+00 -0.00000000000E+00 -0.83171160098E+03  0.83171160098E+03  0.00000000000E+00 0. -1.
         23    2    1    2    0    0 -0.81461770901E+02 -0.14087269919E+02  0.32979238221E+02  0.12784045977E+03  0.91766451972E+02 0.  0.
         23    2    1    2    0    0  0.41601379598E+02 -0.99002510567E+01 -0.32881023029E+03  0.33968065055E+03  0.73743386510E+02 0.  0.
        -11    1    4    4    0    0  0.60801984938E+02  0.10916148055E+01 -0.20200887164E+03  0.21096363956E+03  0.00000000000E+00 0. -1.
         11    1    4    4    0    0 -0.19200605340E+02 -0.10991865862E+02 -0.12680135865E+03  0.12871701098E+03  0.00000000000E+00 0.  1.
        -11    1    3    3    0    0  0.50530169726E+00 -0.30878985557E+02  0.31563598326E+02  0.44159119309E+02  0.00000000000E+00 0.  1.
         11    1    3    3    0    0 -0.81967072599E+02  0.16791715638E+02  0.14156398948E+01  0.83681340458E+02  0.00000000000E+00 0. -1.
         21    1    1    2  502  501 -0.14525623770E+01 -0.29754217527E+02 -0.99295173868E+01  0.31400934916E+02  0.00000000000E+00 0.  1.
         21    1    1    2  503  502  0.41312953680E+02  0.53741738502E+02 -0.42669493228E+03  0.43204571498E+03  0.00000000000E+00 0. -1.
<scales pt_clust_5="13000.00000" pt_clust_6="13000.00000" pt_clust_7="13000.00000" pt_clust_8="13000.00000" pt_clust_9="29.78965" pt_clust_10="67.04820"></scales>
<clustering>
<clus scale="   29.790">  1  9  2 -1</clus>
<clus scale="   67.048">  2 10  1 -1</clus>
<clus scale="   73.743">  5  6 -1 -1</clus>
<clus scale="   91.766">  7  8 -1 -1</clus>
<clus scale="  110.248">  2  5  1 -1</clus>
<clus scale="   67.048">  2  5  1 -1</clus>
</clustering>
</event>
<event>
10    2  0.1133532E-006  0.9422138E+02  0.7546771E-02  0.1293018E+00
          1   -1    0    0  503    0  0.00000000000E+00  0.00000000000E+00  0.17214634294E+03  0.17214634294E+03  0.00000000000E+00 0. -1.
         -1   -1    0    0    0  501 -0.00000000000E+00 -0.00000000000E+00 -0.17957549324E+03  0.17957549324E+03  0.00000000000E+00 0.  1.
         23    2    1    2    0    0  0.85746159114E+01 -0.13832331841E+02  0.85358781639E+01  0.94202406849E+02  0.92392504014E+02 0.  0.
         23    2    1    2    0    0  0.36176823634E+02 -0.29410762919E+02  0.63556447811E+02  0.12155413638E+03  0.92532321212E+02 0.  0.
        -13    1    4    4    0    0 -0.43952912031E+01 -0.42130979672E+02 -0.31197222489E+01  0.42474353436E+02  0.00000000000E+00 0.  1.
         13    1    4    4    0    0  0.40572114837E+02  0.12720216753E+02  0.66676170060E+02  0.79079782944E+02  0.00000000000E+00 0. -1.
        -13    1    3    3    0    0  0.39699407144E+02 -0.23292938641E+02  0.30260453591E+02  0.55084471221E+02  0.00000000000E+00 0. -1.
         13    1    3    3    0    0 -0.31124791233E+02  0.94606067997E+01 -0.21724575427E+02  0.39117935628E+02  0.00000000000E+00 0.  1.
         21    1    1    2  502  501 -0.45362734919E+02  0.10691874908E+02 -0.90343768521E+02  0.10165672835E+03  0.00000000000E+00 0.  1.
         21    1    1    2  503  502  0.61129537403E+00  0.32551219852E+02  0.10822292242E+02  0.34308564605E+02  0.00000000000E+00 0.  1.
<scales pt_clust_5="13000.00000" pt_clust_6="13000.00000" pt_clust_7="13000.00000" pt_clust_8="13000.00000" pt_clust_9="46.88107" pt_clust_10="32.55696"></scales>
<clustering>
<clus scale="   32.557">  1 10  2 -1</clus>
<clus scale="   46.881">  2  9  1 -1</clus>
<clus scale="   92.393">  7  8 -1 -1</clus>
<clus scale="   92.532">  5  6 -1 -1</clus>
<clus scale="   94.084">  2  7  1 -1</clus>
<clus scale="   32.557">  1  5  2 -1</clus>
</clustering>
</event>
<event>
10    2  0.1133532E-006  0.9927582E+02  0.7546771E-02  0.1281832E+00
         -2   -1    0    0    0  501 -0.00000000000E+00  0.00000000000E+00  0.43561679421E+02  0.43561679421E+02  0.00000000000E+00 0.  1.
          2   -1    0    0  503    0  0.00000000000E+00 -0.00000000000E+00 -0.51237635150E+03  0.51237635150E+03  0.00000000000E+00 0. -1.
         23    2    1    2    0    0 -0.26676382855E+02  0.34594956802E+02 -0.11382915625E+03  0.15242293204E+03  0.91472580369E+02 0.  0.
         23    2    1    2    0    0  0.23662203911E+02 -0.54091265839E+01 -0.28651594203E+03  0.30173767509E+03  0.91460816686E+02 0.  0.
        -11    1    4    4    0    0 -0.26727164177E+02 -0.25877228003E+02 -0.80788144100E+02  0.88942096114E+02  0.00000000000E+00 0.  1.
         11    1    4    4    0    0  0.50389368087E+02  0.20468101419E+02 -0.20572779793E+03  0.21279557898E+03  0.00000000000E+00 0. -1.
        -13    1    3    3    0    0 -0.53050631752E+02 -0.59667972199E+00 -0.83757930884E+02  0.99146944188E+02  0.00000000000E+00 0.  1.
         13    1    3    3    0    0  0.26374248897E+02  0.35191636524E+02 -0.30071225371E+02  0.53275987851E+02  0.00000000000E+00 0. -1.
         21    1    1    2  502  501 -0.19014128730E+02 -0.10938452212E+02  0.53762001594E+01  0.22585180015E+02  0.00000000000E+00 0.  1.
         21    1    1    2  503  502  0.22028307674E+02 -0.18247378006E+02 -0.73845773950E+02  0.79192243770E+02  0.00000000000E+00 0. -1.
<scales pt_clust_5="13000.00000" pt_clust_6="13000.00000" pt_clust_7="13000.00000" pt_clust_8="13000.00000" pt_clust_9="21.93597" pt_clust_10="27.97348"></scales>
<clustering>
<clus scale="   21.936">  1  9  2 -1</clus>
<clus scale="   27.973">  2 10  1 -1</clus>
<clus scale="   91.461">  5  6 -1 -1</clus>
<clus scale="   91.473">  7  8 -1 -1</clus>
<clus scale="   99.265">  2  5  1 -1</clus>
<clus scale="   27.973">  2  5  1 -1</clus>
</clustering>
</event>
<event>
10    2  0.1133532E-006  0.1607902E+03  0.7546771E-02  0.1188820E+00
          1   -1    0    0  503    0  0.00000000000E+00  0.00000000000E+00  0.77856588361E+03  0.77856588361E+03  0.00000000000E+00 0. -1.
         -1   -1    0    0    0  501 -0.00000000000E+00 -0.00000000000E+00 -0.73492064151E+02  0.73492064151E+02  0.00000000000E+00 0.  1.
         23    2    1    2    0    0  0.15594954490E+02  0.14796683945E+03  0.10492892806E+03  0.20447460239E+03  0.93071987706E+02 0.  0.
         23    2    1    2    0    0  0.58468395038E+01 -0.98175675270E+02  0.50948607003E+03  0.52824804726E+03  0.98981286776E+02 0.  0.
        -13    1    3    3    0    0  0.51507632104E+02  0.10866102482E+03  0.58020613551E+02  0.13351646369E+03  0.00000000000E+00 0.  1.
         13    1    3    3    0    0 -0.35912677613E+02  0.39305814629E+02  0.46908314513E+02  0.70958138698E+02  0.00000000000E+00 0. -1.
        -13    1    4    4    0    0 -0.42011407962E+02 -0.25244311566E+02  0.24145198685E+03  0.24637632926E+03  0.00000000000E+00 0.  1.
         13    1    4    4    0    0  0.47858247466E+02 -0.72931363704E+02  0.26803408318E+03  0.28187171800E+03  0.00000000000E+00 0. -1.
         21    1    1    2  502  501 -0.13776949756E+02 -0.17924345871E+02 -0.34430734577E+00  0.22609844472E+02  0.00000000000E+00 0. -1.
         21    1    1    2  503  502 -0.76648442379E+01 -0.31866818310E+02  0.91003128708E+02  0.96725453635E+02  0.00000000000E+00 0. -1.
<scales pt_clust_5="13000.00000" pt_clust_6="13000.00000" pt_clust_7="13000.00000" pt_clust_8="13000.00000" pt_clust_9="22.60722" pt_clust_10="33.73102"></scales>
<clustering>
<clus scale="   22.607">  2  9  1 -1</clus>
<clus scale="   33.731">  1 10  2 -1</clus>
<clus scale="   93.072">  5  6 -1 -1</clus>
<clus scale="   98.981">  7  8 -1 -1</clus>
<clus scale="  157.221">  2  5  1 -1</clus>
<clus scale="   33.731">  1  5  2 -1</clus>
</clustering>
</event>
<event>
10    2  0.1133532E-006  0.9378540E+02  0.7546771E-02  0.1307030E+00
          4   -1    0    0  503    0  0.00000000000E+00  0.00000000000E+00  0.15553230626E+03  0.15553230626E+03  0.00000000000E+00 0. -1.
         -4   -1    0    0    0  501 -0.00000000000E+00 -0.00000000000E+00 -0.16412719975E+03  0.16412719975E+03  0.00000000000E+00 0.  1.
         23    2    1    2    0    0 -0.20247810926E+02  0.86155775072E-01 -0.62918920658E+02  0.96889018380E+02  0.70842854515E+02 0.  0.
         23    2    1    2    0    0 -0.86577990047E+01  0.75224333912E+02  0.29775915895E+02  0.12249640214E+03  0.91570221545E+02 0.  0.
        -13    1    3    3    0    0 -0.20057447690E+02 -0.30351410823E+02 -0.13412231087E+02  0.38773667476E+02  0.00000000000E+00 0.  1.
         13    1    3    3    0    0 -0.19036323505E+00  0.30437566598E+02 -0.49506689570E+02  0.58115350905E+02  0.00000000000E+00 0. -1.
        -13    1    4    4    0    0 -0.17875991475E+02  0.94097557287E+02  0.15318871364E+02  0.96997779245E+02  0.00000000000E+00 0. -1.
         13    1    4    4    0    0  0.92181924707E+01 -0.18873223375E+02  0.14457044531E+02  0.25498622895E+02  0.00000000000E+00 0.  1.
         21    1    1    2  502  501 -0.66230084300E+01 -0.55838285295E+02  0.93461777398E+01  0.57001134934E+02  0.00000000000E+00 0.  1.
         21    1    1    2  503  502  0.35528618360E+02 -0.19472204392E+02  0.15201933529E+02  0.43272950552E+02  0.00000000000E+00 0.  1.
<scales pt_clust_5="13000.00000" pt_clust_6="13000.00000" pt_clust_7="13000.00000" pt_clust_8="13000.00000" pt_clust_9="61.01320" pt_clust_10="40.51481"></scales>
<clustering>
<clus scale="   40.515">  1 10  2 -1</clus>
<clus scale="   61.013">  1  9  2 -1</clus>
<clus scale="   70.843">  5  6 -1 -1</clus>
<clus scale="   73.684">  2  5  1 -1</clus>
<clus scale="   91.570">  7  8 -1 -1</clus>
<clus scale="   40.515">  1  5  2 -1</clus>
</clustering>
</event>
<event>
10    2  0.1133532E-006  0.1094835E+03  0.7546771E-02  0.1262306E+00
         -2   -1    0    0    0  501 -0.00000000000E+00  0.00000000000E+00  0.66315788289E+02  0.66315788289E+02  0.00000000000E+00 0.  1.
          2   -1    0    0  503    0  0.00000000000E+00 -0.00000000000E+00 -0.42012404099E+03  0.42012404099E+03  0.00000000000E+00 0. -1.
         23    2    1    2    0    0  0.14520125899E+02  0.54988313528E+02 -0.39364056107E+02  0.11593291521E+03  0.93039578864E+02 0.  0.
         23    2    1    2    0    0 -0.18498536459E+02 -0.39758843063E+02 -0.16162484028E+03  0.19063683994E+03  0.91087069858E+02 0.  0.
        -11    1    4    4    0    0 -0.40976126419E+02 -0.47818475339E+02 -0.15264620771E+03  0.16512575283E+03  0.00000000000E+00 0. -1.
         11    1    4    4    0    0  0.22477589960E+02  0.80596322768E+01 -0.89786325718E+01  0.25511087113E+02  0.00000000000E+00 0.  1.
        -13    1    3    3    0    0 -0.35310651833E+02  0.14194161373E+02  0.40424767634E+01  0.38270850112E+02  0.00000000000E+00 0.  1.
         13    1    3    3    0    0  0.49830777732E+02  0.40794152156E+02 -0.43406532870E+02  0.77662065098E+02  0.00000000000E+00 0. -1.
         21    1    1    2  502  501  0.21266431453E+02  0.83306014733E+01  0.14227526794E+01  0.22884148505E+02  0.00000000000E+00 0. -1.
         21    1    1    2  503  502 -0.17288020892E+02 -0.23560071939E+02 -0.15424210899E+03  0.15698592562E+03  0.00000000000E+00 0. -1.
<scales pt_clust_5="13000.00000" pt_clust_6="13000.00000" pt_clust_7="13000.00000" pt_clust_8="13000.00000" pt_clust_9="22.83988" pt_clust_10="28.73533"></scales>
<clustering>
<clus scale="   22.840">  1  9  2 -1</clus>
<clus scale="   28.735">  2 10  1 -1</clus>
<clus scale="   91.087">  5  6 -1 -1</clus>
<clus scale="   93.040">  7  8 -1 -1</clus>
<clus scale="  107.829">  2  5  1 -1</clus>
<clus scale="   28.735">  2  5  1 -1</clus>
</clustering>
</event>
<event>
10    2  0.1152376E-006  0.3561816E+03  0.7546771E-02  0.1060157E+00
         -1   -1    0    0    0  501 -0.00000000000E+00  0.00000000000E+00  0.74994745504E+03  0.74994745504E+03  0.00000000000E+00 0.  1.
          1   -1    0    0  503    0  0.00000000000E+00 -0.00000000000E+00 -0.62300147658E+03  0.62300147658E+03  0.00000000000E+00 0. -1.
         23    2    1    2    0    0  0.39485768422E+03 -0.43306761714E+02  0.50868752713E+03  0.65188749160E+03  0.91685522574E+02 0.  0.
         23    2    1    2    0    0 -0.31239586682E+03  0.68758569880E+02 -0.46450078837E+03  0.57107223386E+03  0.89686093413E+02 0.  0.
        -11    1    3    3    0    0  0.37158798651E+03 -0.52946608986E+02  0.50008250725E+03  0.62527073271E+03  0.00000000000E+00 0.  1.
         11    1    3    3    0    0  0.23269697711E+02  0.96398472715E+01  0.86050198826E+01  0.26616758897E+02  0.00000000000E+00 0. -1.
        -13    1    4    4    0    0 -0.24382924917E+03  0.48294096604E+02 -0.41608267198E+03  0.48467495545E+03  0.00000000000E+00 0. -1.
         13    1    4    4    0    0 -0.68566617646E+02  0.20464473276E+02 -0.48418116393E+02  0.86397278412E+02  0.00000000000E+00 0.  1.
         21    1    1    2  502  501 -0.55847876744E+02  0.16064168127E+02  0.82205923957E+02  0.10067202575E+03  0.00000000000E+00 0.  1.
         21    1    1    2  503  502 -0.26613940657E+02 -0.41515976294E+02  0.55331573435E+00  0.49317180406E+02  0.00000000000E+00 0.  1.
<scales pt_clust_5="13000.00000" pt_clust_6="13000.00000" pt_clust_7="13000.00000" pt_clust_8="13000.00000" pt_clust_9="58.33437" pt_clust_10="49.31408"></scales>
<clustering>
<clus scale="   49.314">  2 10  1 -1</clus>
<clus scale="   58.334">  1  9  2 -1</clus>
<clus scale="   89.686">  7  8 -1 -1</clus>
<clus scale="   91.686">  5  6 -1 -1</clus>
<clus scale="  355.672">  2  7  1 -1</clus>
<clus scale="   49.314">  2  5  1 -1</clus>
</clustering>
</event>
<event>
10    2  0.1133532E-006  0.9451864E+02  0.7546771E-02  0.1295782E+00
         -2   -1    0    0    0  501 -0.00000000000E+00  0.00000000000E+00  0.62678159409E+03  0.62678159409E+03  0.00000000000E+00 0.  1.
          2   -1    0    0  503    0  0.00000000000E+00 -0.00000000000E+00 -0.66111511307E+02  0.66111511307E+02  0.00000000000E+00 0. -1.
         23    2    1    2    0    0  0.25323940832E+01 -0.15662123175E+01  0.45124889051E+03  0.45923857788E+03  0.85238748151E+02 0.  0.
         23    2    1    2    0    0  0.19700625456E+02 -0.65345261074E+02  0.23507548585E+02  0.11650217426E+03  0.91444157709E+02 0.  0.
        -11    1    4    4    0    0  0.30615357265E+01 -0.84835346398E+02  0.30052309140E+02  0.90053041504E+02  0.00000000000E+00 0. -1.
         11    1    4    4    0    0  0.16639089730E+02  0.19490085324E+02 -0.65447605543E+01  0.26449132758E+02  0.00000000000E+00 0.  1.
        -13    1    3    3    0    0  0.41349643194E+02 -0.14630832314E+02  0.20915351215E+03  0.21370317239E+03  0.00000000000E+00 0. -1.
         13    1    3    3    0    0 -0.38817249111E+02  0.13064619997E+02  0.24209537836E+03  0.24553540549E+03  0.00000000000E+00 0.  1.
         21    1    1    2  502  501 -0.19211415175E+02  0.18443850000E+02  0.50354951402E+02  0.56963806110E+02  0.00000000000E+00 0.  1.
         21    1    1    2  503  502 -0.30216043639E+01  0.48467623392E+02  0.35558692285E+02  0.60188547143E+02  0.00000000000E+00 0.  1.
<scales pt_clust_5="13000.00000" pt_clust_6="13000.00000" pt_clust_7="13000.00000" pt_clust_8="13000.00000" pt_clust_9="26.63182" pt_clust_10="50.22180"></scales>
<clustering>
<clus scale="   26.632">  1  9  2 -1</clus>
<clus scale="   50.222">  2 10  1 -1</clus>
<clus scale="   85.239">  7  8 -1 -1</clus>
<clus scale="   88.529">  1  7  2 -1</clus>
<clus scale="   91.444">  5  6 -1 -1</clus>
<clus scale="   50.222">  2  5  1 -1</clus>
</clustering>
</event>
<event>
10    2  0.1784136E-006  0.1744204E+03  0.7546771E-02  0.1173520E+00
         -3   -1    0    0    0  501 -0.00000000000E+00  0.00000000000E+00  0.50531379053E+03  0.50531379053E+03  0.00000000000E+00 0.  1.
          3   -1    0    0  503    0  0.00000000000E+00 -0.00000000000E+00 -0.15745779517E+03  0.15745779517E+03  0.00000000000E+00 0. -1.
         23    2    1    2    0    0 -0.57026608030E+02  0.14449349975E+03  0.37391534872E+03  0.41509209494E+03  0.91424032857E+02 0.  0.
         23    2    1    2    0    0  0.10313561419E+03 -0.11562634499E+03 -0.38425275439E+02  0.18472561398E+03  0.92955064949E+02 0.  0.
        -11    1    4    4    0    0  0.76898532032E+02 -0.12123491459E+03 -0.54368514957E+02  0.15351620163E+03  0.00000000000E+00 0. -1.
         11    1    4    4    0    0  0.26237082157E+02  0.56085696029E+01  0.15943239518E+02  0.31209412353E+02  0.00000000000E+00 0.  1.
        -11    1    3    3    0    0 -0.38415749140E+02  0.15353836570E+03  0.34461230167E+03  0.37921951161E+03  0.00000000000E+00 0.  1.
         11    1    3    3    0    0 -0.18610858890E+02 -0.90448659496E+01  0.29303047047E+02  0.35872583332E+02  0.00000000000E+00 0. -1.
         21    1    1    2  502  501 -0.13505571558E+02 -0.17974861140E+02  0.17109974463E+02  0.28253271000E+02  0.00000000000E+00 0.  1.
         21    1    1    2  503  502 -0.32603434601E+02 -0.10892293621E+02 -0.47440523796E+01  0.34700605774E+02  0.00000000000E+00 0. -1.
<scales pt_clust_5="13000.00000" pt_clust_6="13000.00000" pt_clust_7="13000.00000" pt_clust_8="13000.00000" pt_clust_9="22.48324" pt_clust_10="34.95134"></scales>
<clustering>
<clus scale="   22.483">  1  9  2 -1</clus>
<clus scale="   34.951">  2 10  1 -1</clus>
<clus scale="   91.424">  7  8 -1 -1</clus>
<clus scale="   92.955">  5  6 -1 -1</clus>
<clus scale="  173.609">  1  7  2 -1</clus>
<clus scale="   34.951">  2  5  1 -1</clus>
</clustering>
</event>
<event>
10    2  0.1133532E-006  0.1133047E+03  0.7546771E-02  0.1261438E+00
         -3   -1    0    0    0  501 -0.00000000000E+00  0.00000000000E+00  0.78853682029E+02  0.78853682029E+02  0.00000000000E+00 0.  1.
          3   -1    0    0  503    0  0.00000000000E+00 -0.00000000000E+00 -0.41494004795E+03  0.41494004795E+03  0.00000000000E+00 0. -1.
         23    2    1    2    0    0  0.39903589071E+02  0.63468461919E+02 -0.26820541789E+02  0.13220380149E+03  0.10553654149E+03 0.  0.
         23    2    1    2    0    0 -0.19978497392E+02  0.13335944191E+02 -0.15443316456E+03  0.18032826161E+03  0.89953831789E+02 0.  0.
        -11    1    3    3    0    0  0.32258569422E+02 -0.66091886045E+01 -0.48348181766E+02  0.58496524301E+02  0.00000000000E+00 0. -1.
         11    1    3    3    0    0  0.76450196491E+01  0.70077650524E+02  0.21527639977E+02  0.73707277194E+02  0.00000000000E+00 0.  1.
        -13    1    4    4    0    0  0.30039920961E+02  0.20600451117E+02 -0.34457286453E+02  0.50140602582E+02  0.00000000000E+00 0.  1.
         13    1    4    4    0    0 -0.50018418353E+02 -0.72645069256E+01 -0.11997587811E+03  0.13018765903E+03  0.00000000000E+00 0. -1.
         21    1    1    2  502  501 -0.82516220093E+01 -0.22627302125E+02 -0.98026382871E+01  0.26003380254E+02  0.00000000000E+00 0. -1.
         21    1    1    2  503  502 -0.11673469670E+02 -0.54177103986E+02 -0.14503002129E+03  0.15525828662E+03  0.00000000000E+00 0. -1.
<scales pt_clust_5="13000.00000" pt_clust_6="13000.00000" pt_clust_7="13000.00000" pt_clust_8="13000.00000" pt_clust_9="24.08493" pt_clust_10="57.14543"></scales>
<clustering>
<clus scale="   24.085">  1  9  2 -1</clus>
<clus scale="   57.145">  2 10  1 -1</clus>
<clus scale="   89.954">  7  8 -1 -1</clus>
<clus scale="   98.953">  2  7  1 -1</clus>
<clus scale="  105.537">  5  6 -1 -1</clus>
<clus scale="   57.145">  2  5  1 -1</clus>
</clustering>
</event>
<event>
10    2  0.1133532E-006  0.1316953E+03  0.7546771E-02  0.1225639E+00
         -1   -1    0    0    0  501 -0.00000000000E+00  0.00000000000E+00  0.19532123235E+03  0.19532123235E+03  0.00000000000E+00 0.  1.
          1   -1    0    0  503    0  0.00000000000E+00 -0.00000000000E+00 -0.17799350389E+03  0.17799350389E+03  0.00000000000E+00 0. -1.
         23    2    1    2    0    0 -0.10279664398E+03 -0.48117312173E+02  0.70063669840E+01  0.14478168211E+03  0.89611497876E+02 0.  0.
         23    2    1    2    0    0  0.88364002807E+02 -0.67442088433E+01 -0.18423419298E+01  0.12794345492E+03  0.92262950785E+02 0.  0.
        -13    1    4    4    0    0  0.10430601718E+03  0.72818221316E+01  0.73228947899E+01  0.10481600518E+03  0.00000000000E+00 0.  1.
         13    1    4    4    0    0 -0.15942014375E+02 -0.14026030975E+02 -0.91652367196E+01  0.23127449738E+02  0.00000000000E+00 0. -1.
        -13    1    3    3    0    0 -0.25412207594E+02  0.26584312712E+02 -0.21191894375E+01  0.36837439393E+02  0.00000000000E+00 0. -1.
         13    1    3    3    0    0 -0.77384436391E+02 -0.74701624886E+02  0.91255564215E+01  0.10794424272E+03  0.00000000000E+00 0.  1.
         21    1    1    2  502  501  0.45944936027E+02  0.31924003100E+02  0.22442721230E+02  0.60280634176E+02  0.00000000000E+00 0.  1.
         21    1    1    2  503  502 -0.31512294849E+02  0.22937517917E+02 -0.10279017828E+02  0.40308965037E+02  0.00000000000E+00 0. -1.
<scales pt_clust_5="13000.00000" pt_clust_6="13000.00000" pt_clust_7="13000.00000" pt_clust_8="13000.00000" pt_clust_9="54.55350" pt_clust_10="38.97633"></scales>
<clustering>
<clus scale="   38.976">  2 10  1 -1</clus>
<clus scale="   54.554">  1  9  2 -1</clus>
<clus scale="   89.611">  7  8 -1 -1</clus>
<clus scale="   92.263">  5  6 -1 -1</clus>
<clus scale="  129.851">  1  7  2 -1</clus>
<clus scale="   38.976">  2  5  1 -1</clus>
</clustering>
</event>
<event>
10    2  0.1133532E-006  0.1995063E+03  0.7546771E-02  0.1150452E+00
         -2   -1    0    0    0  501 -0.00000000000E+00  0.00000000000E+00  0.10811781193E+03  0.10811781193E+03  0.00000000000E+00 0.  1.
          2   -1    0    0  503    0  0.00000000000E+00 -0.00000000000E+00 -0.66702339038E+03  0.66702339038E+03  0.00000000000E+00 0. -1.
         23    2    1    2    0    0 -0.15880143085E+03  0.14143129001E+03 -0.15637115174E+03  0.28108113428E+03  0.96612435616E+02 0.  0.
         23    2    1    2    0    0  0.13454108577E+03 -0.73795166588E+02 -0.26956526708E+03  0.32402494831E+03  0.93700072267E+02 0.  0.
        -11    1    4    4    0    0  0.12814458822E+03 -0.29913242742E+02 -0.16957981608E+03  0.21464657371E+03  0.00000000000E+00 0.  1.
         11    1    4    4    0    0  0.63964975531E+01 -0.43881923846E+02 -0.99985450992E+02  0.10937837461E+03  0.00000000000E+00 0. -1.
        -13    1    3    3    0    0 -0.91571526510E+02  0.19271158072E+02 -0.53384464681E+02  0.10773403859E+03  0.00000000000E+00 0. -1.
         13    1    3    3    0    0 -0.67229904341E+02  0.12216013194E+03 -0.10298668706E+03  0.17334709569E+03  0.00000000000E+00 0.  1.
         21    1    1    2  502  501  0.25035352965E+02 -0.45870178105E+02 -0.21582143865E+02  0.56538757250E+02  0.00000000000E+00 0.  1.
         21    1    1    2  503  502 -0.77500788361E+00 -0.21765945321E+02 -0.11138701577E+03  0.11349636247E+03  0.00000000000E+00 0.  1.
<scales pt_clust_5="13000.00000" pt_clust_6="13000.00000" pt_clust_7="13000.00000" pt_clust_8="13000.00000" pt_clust_9="53.58267" pt_clust_10="21.77974"></scales>
<clustering>
<clus scale="   21.780">  2 10  1 -1</clus>
<clus scale="   53.583">  1  9  2 -1</clus>
<clus scale="   93.700">  5  6 -1 -1</clus>
<clus scale="   96.612">  7  8 -1 -1</clus>
<clus scale="  198.112">  2  5  1 -1</clus>
<clus scale="   21.780">  2  5  1 -1</clus>
</clustering>
</event>
<event>
10    2  0.1133532E-006  0.1992543E+03  0.7546771E-02  0.1150539E+00
         -2   -1    0    0    0  501 -0.00000000000E+00  0.00000000000E+00  0.56522493875E+03  0.56522493875E+03  0.00000000000E+00 0.  1.
          2   -1    0    0  503    0  0.00000000000E+00 -0.00000000000E+00 -0.81058921432E+03  0.81058921432E+03  0.00000000000E+00 0. -1.
         23    2    1    2    0    0 -0.11707751710E+03 -0.17279504136E+03  0.44903150802E+03  0.50415021476E+03  0.94725247507E+02 0.  0.
         23    2    1    2    0    0  0.17566621068E+03  0.18232233464E+03 -0.33374229391E+03  0.42911478791E+03  0.93035107246E+02 0.  0.
        -11    1    3    3    0    0 -0.56183684040E+02 -0.84383190913E+02  0.32330706559E+03  0.33882825727E+03  0.00000000000E+00 0.  1.
         11    1    3    3    0    0 -0.60893833060E+02 -0.88411850448E+02  0.12572444243E+03  0.16532195749E+03  0.00000000000E+00 0. -1.
        -13    1    4    4    0    0  0.27501453578E+02 -0.78612362723E+01 -0.37804091330E+02  0.47405467047E+02  0.00000000000E+00 0.  1.
         13    1    4    4    0    0  0.14816475710E+03  0.19018357091E+03 -0.29593820258E+03  0.38170932086E+03  0.00000000000E+00 0. -1.
         21    1    1    2  502  501 -0.71402305655E+01  0.73114157202E+02 -0.47977876978E+01  0.73618487098E+02  0.00000000000E+00 0.  1.
         21    1    1    2  503  502 -0.51448463014E+02 -0.82641450478E+02 -0.35585570199E+03  0.36893066330E+03  0.00000000000E+00 0. -1.
<scales pt_clust_5="13000.00000" pt_clust_6="13000.00000" pt_clust_7="13000.00000" pt_clust_8="13000.00000" pt_clust_9="73.46198" pt_clust_10="96.63120"></scales>
<clustering>
<clus scale="   73.462">  1  9  2 -1</clus>
<clus scale="   93.035">  7  8 -1 -1</clus>
<clus scale="   94.725">  5  6 -1 -1</clus>
<clus scale="   96.631">  2 10  1 -1</clus>
<clus scale="  198.456">  2  7  1 -1</clus>
<clus scale="   96.631">  2  5  1 -1</clus>
</clustering>
</event>
<event>
10    2  0.1133532E-006  0.1720253E+03  0.7546771E-02  0.1176103E+00
         -2   -1    0    0    0  501 -0.00000000000E+00  0.00000000000E+00  0.84658943918E+03  0.84658943918E+03  0.00000000000E+00 0.  1.
          2   -1    0    0  503    0  0.00000000000E+00 -0.00000000000E+00 -0.52755088489E+02  0.52755088489E+02  0.00000000000E+00 0. -1.
         23    2    1    2    0    0  0.85670282124E+02 -0.12107393799E+03  0.32855616396E+03  0.37237500597E+03  0.93357894659E+02 0.  0.
         23    2    1    2    0    0 -0.73794263698E+02  0.11808650462E+03  0.25225194552E+03  0.30211085619E+03  0.90829012311E+02 0.  0.
        -13    1    3    3    0    0  0.36864348393E+02 -0.31579342787E+02  0.21220197611E+03  0.21768305799E+03  0.00000000000E+00 0.  1.
         13    1    3    3    0    0  0.48805933731E+02 -0.89494595205E+02  0.11635418785E+03  0.15469194798E+03  0.00000000000E+00 0. -1.
        -13    1    4    4    0    0 -0.30458366915E+02  0.11788402083E+03  0.16948921817E+03  0.20868864261E+03  0.00000000000E+00 0.  1.
         13    1    4    4    0    0 -0.43335896783E+02  0.20248379911E+00  0.82762727357E+02  0.93422213575E+02  0.00000000000E+00 0. -1.
         21    1    1    2  502  501 -0.16644785777E+02 -0.28602760223E+02  0.15620196171E+03  0.15966909415E+03  0.00000000000E+00 0.  1.
         21    1    1    2  503  502  0.47687673508E+01  0.31590193591E+02  0.56824279494E+02  0.65189571353E+02  0.00000000000E+00 0. -1.
<scales pt_clust_5="13000.00000" pt_clust_6="13000.00000" pt_clust_7="13000.00000" pt_clust_8="13000.00000" pt_clust_9="32.03598" pt_clust_10="31.94811"></scales>
<clustering>
<clus scale="   31.948">  2 10  1 -1</clus>
<clus scale="   32.036">  1  9  2 -1</clus>
<clus scale="   90.829">  7  8 -1 -1</clus>
<clus scale="   93.358">  5  6 -1 -1</clus>
<clus scale="  170.666">  2  7  1 -1</clus>
<clus scale="   31.948">  2  5  1 -1</clus>
</clustering>
</event>
<event>
10    2  0.1133532E-006  0.1367478E+03  0.7546771E-02  0.1218679E+00
          1   -1    0    0  503    0  0.00000000000E+00  0.00000000000E+00  0.43991348025E+03  0.43991348025E+03  0.00000000000E+00 0. -1.
         -1   -1    0    0    0  501 -0.00000000000E+00 -0.00000000000E+00 -0.28399319296E+03  0.28399319296E+03  0.00000000000E+00 0.  1.
         23    2    1    2    0    0 -0.94219937982E+02 -0.35656833674E+01  0.41858064950E+01  0.13139728918E+03  0.91419996805E+02 0.  0.
         23    2    1    2    0    0  0.62376680841E+02  0.87095835686E+02  0.29621016800E+03  0.32905071952E+03  0.95170255257E+02 0.  0.
        -11    1    4    4    0    0  0.84886814256E+02  0.47980518831E+02  0.21665312683E+03  0.23758467708E+03  0.00000000000E+00 0. -1.
         11    1    4    4    0    0 -0.22510133415E+02  0.39115316855E+02  0.79557041175E+02  0.91466042439E+02  0.00000000000E+00 0.  1.
        -11    1    3    3    0    0 -0.30170005941E+02  0.34886676476E+02  0.26799875016E+02  0.53343629000E+02  0.00000000000E+00 0. -1.
         11    1    3    3    0    0 -0.64049932042E+02 -0.38452359843E+02 -0.22614068521E+02  0.78053660178E+02  0.00000000000E+00 0.  1.
         21    1    1    2  502  501 -0.19996607735E+02  0.15028654181E+02 -0.14989333913E+03  0.15196623929E+03  0.00000000000E+00 0. -1.
         21    1    1    2  503  502  0.51839864876E+02 -0.98558806500E+02  0.54176519357E+01  0.11149242522E+03  0.00000000000E+00 0.  1.
<scales pt_clust_5="13000.00000" pt_clust_6="13000.00000" pt_clust_7="13000.00000" pt_clust_8="13000.00000" pt_clust_9="25.01449" pt_clust_10="102.43765"></scales>
<clustering>
<clus scale="   25.014">  2  9  1 -1</clus>
<clus scale="   91.420">  7  8 -1 -1</clus>
<clus scale="   95.170">  5  6 -1 -1</clus>
<clus scale="  102.438">  2 10  1 -1</clus>
<clus scale="  134.165">  2  7  1 -1</clus>
<clus scale="  136.748">  1  5  2 -1</clus>
</clustering>
</event>
<event>
10    2  0.1133532E-006  0.1116019E+03  0.7546771E-02  0.1257797E+00
         -1   -1    0    0    0  501 -0.00000000000E+00  0.00000000000E+00  0.18687315998E+03  0.18687315998E+03  0.00000000000E+00 0.  1.
          1   -1    0    0  503    0  0.00000000000E+00 -0.00000000000E+00 -0.26875770842E+03  0.26875770842E+03  0.00000000000E+00 0. -1.
         23    2    1    2    0    0 -0.61618331565E+00 -0.45598664436E+02  0.67381196248E+02  0.12205013870E+03  0.90974682566E+02 0.  0.
         23    2    1    2    0    0 -0.32366056928E+02  0.61188932293E+02 -0.17577912040E+03  0.20948894389E+03  0.90529947356E+02 0.  0.
        -11    1    3    3    0    0  0.36113747451E+02 -0.39888066676E+02  0.65588406361E+02  0.84835721646E+02  0.00000000000E+00 0. -1.
         11    1    3    3    0    0 -0.36729930767E+02 -0.57105977602E+01  0.17927898866E+01  0.37214417052E+02  0.00000000000E+00 0.  1.
        -11    1    4    4    0    0  0.45054839936E+01  0.50829064559E+02 -0.16022009560E+03  0.16814985051E+03  0.00000000000E+00 0. -1.
         11    1    4    4    0    0 -0.36871540921E+02  0.10359867734E+02 -0.15559024797E+02  0.41339093386E+02  0.00000000000E+00 0.  1.
         21    1    1    2  502  501  0.30482013981E+00 -0.25099859945E+02  0.66796203194E+02  0.71357050428E+02  0.00000000000E+00 0.  1.
         21    1    1    2  503  502  0.32677420104E+02  0.95095920881E+01 -0.40282827484E+02  0.52734735387E+02  0.00000000000E+00 0. -1.
<scales pt_clust_5="13000.00000" pt_clust_6="13000.00000" pt_clust_7="13000.00000" pt_clust_8="13000.00000" pt_clust_9="25.10171" pt_clust_10="33.70205"></scales>
<clustering>
<clus scale="   25.102">  1  9  2 -1</clus>
<clus scale="   33.702">  2 10  1 -1</clus>
<clus scale="   90.530">  7  8 -1 -1</clus>
<clus scale="   90.975">  5  6 -1 -1</clus>
<clus scale="  111.240">  2  7  1 -1</clus>
<clus scale="   33.702">  2  5  1 -1</clus>
</clustering>
</event>
<event>
10    2  0.1133532E-006  0.1351650E+03  0.7546771E-02  0.1220044E+00
          2   -1    0    0  503    0  0.00000000000E+00  0.00000000000E+00  0.70143322732E+02  0.70143322732E+02  0.00000000000E+00 0. -1.
         -2   -1    0    0    0  501 -0.00000000000E+00 -0.00000000000E+00 -0.45069152608E+03  0.45069152608E+03  0.00000000000E+00 0.  1.
         23    2    1    2    0    0 -0.10575506991E+03 -0.13845579204E+02 -0.23834051963E+03  0.27679155795E+03  0.91823354217E+02 0.  0.
         23    2    1    2    0    0  0.89291886659E+02 -0.26941702670E+02 -0.11092221842E+03  0.17143686322E+03  0.91585824044E+02 0.  0.
        -11    1    3    3    0    0  0.16518326959E+01  0.25843427216E+02 -0.51758808802E+02  0.57875604274E+02  0.00000000000E+00 0.  1.
         11    1    3    3    0    0 -0.10740690261E+03 -0.39689006420E+02 -0.18658171083E+03  0.21891595368E+03  0.00000000000E+00 0. -1.
        -11    1    4    4    0    0  0.30601218731E+02 -0.28456417228E+02  0.44115805030E+01  0.42019808565E+02  0.00000000000E+00 0. -1.
         11    1    4    4    0    0  0.58690667928E+02  0.15147145577E+01 -0.11533379892E+03  0.12941705465E+03  0.00000000000E+00 0.  1.
         21    1    1    2  502  501  0.10983232023E+01  0.20926525708E+02 -0.40709138771E+02  0.45786021573E+02  0.00000000000E+00 0. -1.
         21    1    1    2  503  502  0.15364860051E+02  0.19860756166E+02  0.94236734729E+01  0.26820406067E+02  0.00000000000E+00 0. -1.
<scales pt_clust_5="13000.00000" pt_clust_6="13000.00000" pt_clust_7="13000.00000" pt_clust_8="13000.00000" pt_clust_9="20.95533" pt_clust_10="25.47930"></scales>
<clustering>
<clus scale="   20.955">  2  9  1 -1</clus>
<clus scale="   25.479">  1 10  2 -1</clus>
<clus scale="   91.586">  7  8 -1 -1</clus>
<clus scale="   91.823">  5  6 -1 -1</clus>
<clus scale="  135.004">  1  7  2 -1</clus>
<clus scale="   25.479">  1  5  2 -1</clus>
</clustering>
</event>
<event>
10    2  0.1133532E-006  0.9656598E+02  0.7546771E-02  0.1289069E+00
         -2   -1    0    0    0  501 -0.00000000000E+00  0.00000000000E+00  0.97363824502E+02  0.97363824502E+02  0.00000000000E+00 0.  1.
          2   -1    0    0  503    0  0.00000000000E+00 -0.00000000000E+00 -0.22910274804E+03  0.22910274804E+03  0.00000000000E+00 0. -1.
         23    2    1    2    0    0  0.32902513774E+02 -0.34003300188E+02 -0.21846311685E+01  0.10449130606E+03  0.93138931672E+02 0.  0.
         23    2    1    2    0    0  0.59648097652E+01  0.96274393093E+01 -0.35234690730E+02  0.97842822982E+02  0.90572998377E+02 0.  0.
        -11    1    3    3    0    0  0.25876062965E+02  0.24618947763E+02 -0.22312255031E+02  0.42112942762E+02  0.00000000000E+00 0.  1.
         11    1    3    3    0    0  0.70264508088E+01 -0.58622247950E+02  0.20127623862E+02  0.62378363301E+02  0.00000000000E+00 0. -1.
        -11    1    4    4    0    0  0.20705586015E+02 -0.85210493798E+01  0.24802288309E+02  0.33413815708E+02  0.00000000000E+00 0.  1.
         11    1    4    4    0    0 -0.14740776250E+02  0.18148488689E+02 -0.60036979039E+02  0.64429007274E+02  0.00000000000E+00 0. -1.
         21    1    1    2  502  501 -0.23178008582E+02  0.35857935322E+01  0.27637183220E+01  0.23616014398E+02  0.00000000000E+00 0. -1.
         21    1    1    2  503  502 -0.15689314957E+02  0.20790067346E+02 -0.97083319965E+02  0.10051642910E+03  0.00000000000E+00 0. -1.
<scales pt_clust_5="13000.00000" pt_clust_6="13000.00000" pt_clust_7="13000.00000" pt_clust_8="13000.00000" pt_clust_9="23.45374" pt_clust_10="26.39095"></scales>
<clustering>
<clus scale="   23.454">  1  9  2 -1</clus>
<clus scale="   26.391">  2 10  1 -1</clus>
<clus scale="   90.573">  7  8 -1 -1</clus>
<clus scale="   93.139">  5  6 -1 -1</clus>
<clus scale="   94.094">  2  7  1 -1</clus>
<clus scale="   26.391">  2  5  1 -1</clus>
</clustering>
</event>
<event>
10    2  0.1133532E-006  0.1496165E+03  0.7546771E-02  0.1201341E+00
          1   -1    0    0  503    0  0.00000000000E+00  0.00000000000E+00  0.77378153353E+03  0.77378153353E+03  0.00000000000E+00 0. -1.
         -1   -1    0    0    0  501 -0.00000000000E+00 -0.00000000000E+00 -0.58533301035E+02  0.58533301035E+02  0.00000000000E+00 0.  1.
         23    2    1    2    0    0 -0.18912204969E+02  0.93650716203E+02  0.83084505760E+02  0.15532530428E+03  0.89971033734E+02 0.  0.
         23    2    1    2    0    0  0.14691314026E+02 -0.13866063383E+03  0.50533992104E+03  0.53153045555E+03  0.87827007800E+02 0.  0.
        -11    1    4    4    0    0  0.19335785722E+02 -0.56462255954E+02  0.35629163594E+03  0.36125557269E+03  0.00000000000E+00 0. -1.
         11    1    4    4    0    0 -0.46444716962E+01 -0.82198377877E+02  0.14904828510E+03  0.17027488287E+03  0.00000000000E+00 0.  1.
        -13    1    3    3    0    0  0.53987806354E+01  0.10348085156E+03  0.56674211111E+02  0.11810757671E+03  0.00000000000E+00 0.  1.
         13    1    3    3    0    0 -0.24310985604E+02 -0.98301353551E+01  0.26410294650E+02  0.37217727572E+02  0.00000000000E+00 0. -1.
         21    1    1    2  502  501 -0.50409861103E+01  0.26958156051E+02  0.13937060040E+02  0.30763539478E+02  0.00000000000E+00 0.  1.
         21    1    1    2  503  502  0.92618770532E+01  0.18051761576E+02  0.11288674565E+03  0.11469553525E+03  0.00000000000E+00 0. -1.
<scales pt_clust_5="13000.00000" pt_clust_6="13000.00000" pt_clust_7="13000.00000" pt_clust_8="13000.00000" pt_clust_9="27.97183" pt_clust_10="20.28912"></scales>
<clustering>
<clus scale="   20.289">  1 10  2 -1</clus>
<clus scale="   27.972">  2  9  1 -1</clus>
<clus scale="   87.827">  5  6 -1 -1</clus>
<clus scale="   89.971">  7  8 -1 -1</clus>
<clus scale="  148.337">  1  5  2 -1</clus>
<clus scale="   20.289">  1  5  2 -1</clus>
</clustering>
</event>
<event>
10    2  0.1133532E-006  0.1655581E+03  0.7546771E-02  0.1182935E+00
          1   -1    0    0  502    0  0.00000000000E+00  0.00000000000E+00  0.18432757194E+03  0.18432757194E+03  0.00000000000E+00 0. -1.
         -1   -1    0    0    0  501 -0.00000000000E+00 -0.00000000000E+00 -0.23642708373E+03  0.23642708373E+03  0.00000000000E+00 0.  1.
         23    2    1    2    0    0 -0.23906235853E+02 -0.13788623290E+03 -0.93286681516E+02  0.19190323681E+03  0.92413884299E+02 0.  0.
         23    2    1    2    0    0 -0.98013720063E+01  0.13496901431E+03  0.15266299934E+02  0.16318839962E+03  0.89914916120E+02 0.  0.
        -11    1    4    4    0    0  0.30234204849E+02  0.18073636203E+02 -0.10928955050E+02  0.36880964289E+02  0.00000000000E+00 0.  1.
         11    1    4    4    0    0 -0.40035576855E+02  0.11689537811E+03  0.26195254984E+02  0.12630743533E+03  0.00000000000E+00 0. -1.
        -11    1    3    3    0    0 -0.15159553273E+02 -0.84064572330E+02 -0.10577906964E+03  0.13596277413E+03  0.00000000000E+00 0.  1.
         11    1    3    3    0    0 -0.87466825802E+01 -0.53821660575E+02  0.12492388121E+02  0.55940462674E+02  0.00000000000E+00 0. -1.
         21    1    1    2  502  503  0.64222648476E+01 -0.20700444863E+02  0.79127145914E+00  0.21688245983E+02  0.00000000000E+00 0.  1.
         21    1    1    2  503  501  0.27285343012E+02  0.23617663457E+02  0.25129598331E+02  0.43974773254E+02  0.00000000000E+00 0. -1.
<scales pt_clust_5="13000.00000" pt_clust_6="13000.00000" pt_clust_7="13000.00000" pt_clust_8="13000.00000" pt_clust_9="21.67381" pt_clust_10="34.57998"></scales>
<clustering>
<clus scale="   21.674">  1  9  2 -1</clus>
<clus scale="   34.580">  1 10  2 -1</clus>
<clus scale="   89.915">  5  6 -1 -1</clus>
<clus scale="   92.414">  7  8 -1 -1</clus>
<clus scale="  164.176">  1  5  2 -1</clus>
<clus scale="   21.674">  1  5  2 -1</clus>
</clustering>
</event>
<event>
10    2  0.1133532E-006  0.1044720E+03  0.7546771E-02  0.1272863E+00
          1   -1    0    0  503    0  0.00000000000E+00  0.00000000000E+00  0.25265214890E+03  0.25265214890E+03  0.00000000000E+00 0. -1.
         -1   -1    0    0    0  501 -0.00000000000E+00 -0.00000000000E+00 -0.23446962682E+03  0.23446962682E+03  0.00000000000E+00 0.  1.
         23    2    1    2    0    0  0.43119265268E+02  0.11639053090E+02 -0.49508290098E+02  0.11465661459E+03  0.93275558894E+02 0.  0.
         23    2    1    2    0    0  0.15850215981E+02 -0.54347942088E+02  0.14254682069E+03  0.17757412275E+03  0.89487679746E+02 0.  0.
        -11    1    3    3    0    0  0.18953034646E+02  0.33626241244E+02 -0.67203995173E+02  0.77500442513E+02  0.00000000000E+00 0.  1.
         11    1    3    3    0    0  0.24166230622E+02 -0.21987188154E+02  0.17695705075E+02  0.37156172078E+02  0.00000000000E+00 0. -1.
        -13    1    4    4    0    0  0.34899213169E+02 -0.67693721093E+02  0.13118116149E+03  0.15168682239E+03  0.00000000000E+00 0.  1.
         13    1    4    4    0    0 -0.19048997189E+02  0.13345779005E+02  0.11365659196E+02  0.25887300363E+02  0.00000000000E+00 0. -1.
         21    1    1    2  502  501  0.22237652507E+01  0.25525186511E+02 -0.11625004741E+03  0.11904013526E+03  0.00000000000E+00 0.  1.
         21    1    1    2  503  502 -0.61193246499E+02  0.17183702486E+02  0.41394038899E+02  0.75850903123E+02  0.00000000000E+00 0. -1.
<scales pt_clust_5="13000.00000" pt_clust_6="13000.00000" pt_clust_7="13000.00000" pt_clust_8="13000.00000" pt_clust_9="25.62187" pt_clust_10="64.36927"></scales>
<clustering>
<clus scale="   25.622">  2  9  1 -1</clus>
<clus scale="   64.369">  1 10  2 -1</clus>
<clus scale="   89.488">  7  8 -1 -1</clus>
<clus scale="   93.276">  5  6 -1 -1</clus>
<clus scale="  101.104">  1  7  2 -1</clus>
<clus scale="   64.369">  1  5  2 -1</clus>
</clustering>
</event>
<event>
10    2  0.1133532E-006  0.3213231E+03  0.7546771E-02  0.1075107E+00
          1   -1    0    0  503    0  0.00000000000E+00  0.00000000000E+00  0.18934003220E+03  0.18934003220E+03  0.00000000000E+00 0. -1.
         -1   -1    0    0    0  501 -0.00000000000E+00 -0.00000000000E+00 -0.15549420636E+04  0.15549420636E+04  0.00000000000E+00 0.  1.
         23    2    1    2    0    0  0.19910964169E+03 -0.26532727469E+03 -0.11803736959E+04  0.12296309436E+04  0.93096634380E+02 0.  0.
         23    2    1    2    0    0 -0.15156991089E+03  0.22505620891E+03 -0.52487366325E+02  0.29224825951E+03  0.95028345804E+02 0.  0.
        -11    1    3    3    0    0  0.19486932783E+03 -0.22155040970E+03 -0.10883566955E+04  0.11276430888E+04  0.00000000000E+00 0.  1.
         11    1    3    3    0    0  0.42403138636E+01 -0.43776864993E+02 -0.92017000366E+02  0.10198785480E+03  0.00000000000E+00 0. -1.
        -13    1    4    4    0    0 -0.81312976841E+02  0.18098993120E+03 -0.90368708015E+01  0.19862230598E+03  0.00000000000E+00 0. -1.
         13    1    4    4    0    0 -0.70256934050E+02  0.44066277709E+02 -0.43450495523E+02  0.93625953531E+02  0.00000000000E+00 0.  1.
         21    1    1    2  502  501  0.61951684029E+01  0.31769321874E+02 -0.15881087184E+03  0.16207579380E+03  0.00000000000E+00 0.  1.
         21    1    1    2  503  502 -0.53734899203E+02  0.85017439143E+01  0.26069902633E+02  0.60327098930E+02  0.00000000000E+00 0. -1.
<scales pt_clust_5="13000.00000" pt_clust_6="13000.00000" pt_clust_7="13000.00000" pt_clust_8="13000.00000" pt_clust_9="32.36773" pt_clust_10="54.39057"></scales>
<clustering>
<clus scale="   32.368">  2  9  1 -1</clus>
<clus scale="   54.391">  1 10  2 -1</clus>
<clus scale="   93.097">  5  6 -1 -1</clus>
<clus scale="   95.028">  7  8 -1 -1</clus>
<clus scale="  320.757">  2  5  1 -1</clus>
<clus scale="   54.391">  1  5  2 -1</clus>
</clustering>
</event>
<event>
10    2  0.1133532E-006  0.1660511E+03  0.7546771E-02  0.1196311E+00
          1   -1    0    0  503    0  0.00000000000E+00  0.00000000000E+00  0.57953118945E+03  0.57953118945E+03  0.00000000000E+00 0. -1.
         -1   -1    0    0    0  501 -0.00000000000E+00 -0.00000000000E+00 -0.12073786180E+03  0.12073786180E+03  0.00000000000E+00 0.  1.
         23    2    1    2    0    0 -0.50450534129E+01 -0.83574169258E+02  0.98623632448E+02  0.15789358842E+03  0.90518893370E+02 0.  0.
         23    2    1    2    0    0  0.12086604303E+03  0.15098756439E+03  0.11864460242E+03  0.24570120499E+03  0.94269271194E+02 0.  0.
        -11    1    4    4    0    0  0.52088533697E+02  0.12354148536E+03  0.10524490143E+03  0.17044706869E+03  0.00000000000E+00 0.  1.
         11    1    4    4    0    0  0.68777509330E+02  0.27446079030E+02  0.13399700997E+02  0.75254136302E+02  0.00000000000E+00 0. -1.
        -13    1    3    3    0    0 -0.39487394162E+02 -0.77461383913E+02  0.59190108021E+02  0.10518074530E+03  0.00000000000E+00 0. -1.
         13    1    3    3    0    0  0.34442340749E+02 -0.61127853455E+01  0.39433524426E+02  0.52712843118E+02  0.00000000000E+00 0.  1.
         21    1    1    2  502  501 -0.23152161095E+02  0.14590753679E+02  0.24528808643E+01  0.27475976431E+02  0.00000000000E+00 0. -1.
         21    1    1    2  503  502 -0.92668828519E+02 -0.82004148812E+02  0.23907221192E+03  0.26919828141E+03  0.00000000000E+00 0. -1.
<scales pt_clust_5="13000.00000" pt_clust_6="13000.00000" pt_clust_7="13000.00000" pt_clust_8="13000.00000" pt_clust_9="27.36627" pt_clust_10="136.69778"></scales>
<clustering>
<clus scale="   27.366">  2  9  1 -1</clus>
<clus scale="   90.519">  7  8 -1 -1</clus>
<clus scale="   94.269">  5  6 -1 -1</clus>
<clus scale="  121.062">  2  7  1 -1</clus>
<clus scale="  136.698">  1 10  2 -1</clus>
<clus scale="  136.698">  1  5  2 -1</clus>
</clustering>
</event>
<event>
10    2  0.1133532E-006  0.9179631E+02  0.7546771E-02  0.1299028E+00
         -1   -1    0    0    0  501 -0.00000000000E+00  0.00000000000E+00  0.62000930527E+02  0.62000930527E+02  0.00000000000E+00 0.  1.
          1   -1    0    0  503    0  0.00000000000E+00 -0.00000000000E+00 -0.37056152988E+03  0.37056152988E+03  0.00000000000E+00 0. -1.
         23    2    1    2    0    0  0.15444651259E+02  0.99868932248E+01 -0.45560028538E+02  0.10336092463E+03  0.90936732129E+02 0.  0.
         23    2    1    2    0    0  0.12274365643E+02  0.33647497466E+02 -0.71818741773E+02  0.12068775569E+03  0.90137609050E+02 0.  0.
        -13    1    4    4    0    0 -0.10580327162E+01  0.61551101307E+02 -0.29473044477E+02  0.68251870715E+02  0.00000000000E+00 0.  1.
         13    1    4    4    0    0  0.13332398359E+02 -0.27903603841E+02 -0.42345697295E+02  0.52435884972E+02  0.00000000000E+00 0. -1.
        -13    1    3    3    0    0  0.31334127229E+02  0.36670686864E+02 -0.14201237033E-01  0.48234500163E+02  0.00000000000E+00 0.  1.
         13    1    3    3    0    0 -0.15889475970E+02 -0.26683793639E+02 -0.45545827301E+02  0.55126424463E+02  0.00000000000E+00 0. -1.
         21    1    1    2  502  501 -0.10867837843E+02 -0.27448889512E+02 -0.19801118297E+02  0.35547654221E+02  0.00000000000E+00 0. -1.
         21    1    1    2  503  502 -0.16851179060E+02 -0.16185501179E+02 -0.17138071075E+03  0.17296612587E+03  0.00000000000E+00 0. -1.
<scales pt_clust_5="13000.00000" pt_clust_6="13000.00000" pt_clust_7="13000.00000" pt_clust_8="13000.00000" pt_clust_9="32.51488" pt_clust_10="23.36520"></scales>
<clustering>
<clus scale="   23.365">  2 10  1 -1</clus>
<clus scale="   32.515">  1  9  2 -1</clus>
<clus scale="   90.138">  5  6 -1 -1</clus>
<clus scale="   90.937">  7  8 -1 -1</clus>
<clus scale="   91.005">  2  5  1 -1</clus>
<clus scale="   23.365">  2  5  1 -1</clus>
</clustering>
</event>
<event>
10    2  0.1133532E-006  0.9724857E+02  0.7546771E-02  0.1286268E+00
          2   -1    0    0  503    0  0.00000000000E+00  0.00000000000E+00  0.10920450888E+03  0.10920450888E+03  0.00000000000E+00 0. -1.
         -2   -1    0    0    0  501 -0.00000000000E+00 -0.00000000000E+00 -0.51415256938E+03  0.51415256938E+03  0.00000000000E+00 0.  1.
         23    2    1    2    0    0  0.92716070241E+01  0.15654798695E+02 -0.38906498849E+03  0.39998010447E+03  0.91002655370E+02 0.  0.
         23    2    1    2    0    0 -0.33300354711E+02 -0.24877875001E+02  0.26365948991E+02  0.10332942228E+03  0.90851438916E+02 0.  0.
        -11    1    4    4    0    0  0.14565386878E+02 -0.27488274437E+02  0.42572271980E+02  0.52727166318E+02  0.00000000000E+00 0. -1.
         11    1    4    4    0    0 -0.47865741589E+02  0.26103994359E+01 -0.16206322989E+02  0.50602255957E+02  0.00000000000E+00 0.  1.
        -13    1    3    3    0    0 -0.29877519167E+02  0.37197163766E+02 -0.21957789519E+03  0.22470146239E+03  0.00000000000E+00 0.  1.
         13    1    3    3    0    0  0.39149126191E+02 -0.21542365072E+02 -0.16948709330E+03  0.17527864208E+03  0.00000000000E+00 0. -1.
         21    1    1    2  502  501  0.27240769346E+02 -0.12313454006E+02 -0.74988794660E+02  0.80727938093E+02  0.00000000000E+00 0.  1.
         21    1    1    2  503  502 -0.32120216590E+01  0.21536530312E+02  0.32739773658E+02  0.39319613429E+02  0.00000000000E+00 0.  1.
<scales pt_clust_5="13000.00000" pt_clust_6="13000.00000" pt_clust_7="13000.00000" pt_clust_8="13000.00000" pt_clust_9="29.44059" pt_clust_10="21.77474"></scales>
<clustering>
<clus scale="   21.775">  1 10  2 -1</clus>
<clus scale="   29.441">  2  9  1 -1</clus>
<clus scale="   90.851">  5  6 -1 -1</clus>
<clus scale="   91.003">  7  8 -1 -1</clus>
<clus scale="   97.107">  1  5  2 -1</clus>
<clus scale="   21.775">  1  5  2 -1</clus>
</clustering>
</event>
<event>
10    2  0.1133532E-006  0.1655557E+03  0.7546771E-02  0.1182631E+00
          2   -1    0    0  503    0  0.00000000000E+00  0.00000000000E+00  0.65144803252E+03  0.65144803252E+03  0.00000000000E+00 0. -1.
         -2   -1    0    0    0  501 -0.00000000000E+00 -0.00000000000E+00 -0.23488543533E+03  0.23488543533E+03  0.00000000000E+00 0.  1.
         23    2    1    2    0    0  0.32217624304E+02 -0.73274772894E+02 -0.15554250853E+03  0.19701559078E+03  0.90633897588E+02 0.  0.
         23    2    1    2    0    0 -0.24264807879E+01  0.11367542060E+03  0.48118407630E+03  0.50259080845E+03  0.90174366621E+02 0.  0.
        -11    1    4    4    0    0  0.29617293043E+02  0.70187148622E+02  0.16387462405E+03  0.18071610965E+03  0.00000000000E+00 0.  1.
         11    1    4    4    0    0 -0.32043773831E+02  0.43488271974E+02  0.31730945225E+03  0.32187469880E+03  0.00000000000E+00 0. -1.
        -13    1    3    3    0    0  0.44746036986E+01 -0.74694515907E+02 -0.15146229914E+03  0.16893821606E+03  0.00000000000E+00 0.  1.
         13    1    3    3    0    0  0.27743020606E+02  0.14197430133E+01 -0.40802093927E+01  0.28077374721E+02  0.00000000000E+00 0. -1.
         21    1    1    2  502  501 -0.16013207092E+02 -0.74421302312E+02 -0.12356597240E+02  0.77120934476E+02  0.00000000000E+00 0. -1.
         21    1    1    2  503  502 -0.13777936424E+02  0.34020654610E+02  0.10327762667E+03  0.10960613415E+03  0.00000000000E+00 0.  1.
<scales pt_clust_5="13000.00000" pt_clust_6="13000.00000" pt_clust_7="13000.00000" pt_clust_8="13000.00000" pt_clust_9="74.33075" pt_clust_10="36.70472"></scales>
<clustering>
<clus scale="   36.705">  1 10  2 -1</clus>
<clus scale="   74.331">  2  9  1 -1</clus>
<clus scale="   90.174">  5  6 -1 -1</clus>
<clus scale="   90.634">  7  8 -1 -1</clus>
<clus scale="  165.305">  1  5  2 -1</clus>
<clus scale="   36.705">  1  5  2 -1</clus>
</clustering>
</event>
<event>
10    2  0.1133532E-006  0.1650668E+03  0.7546771E-02  0.1183334E+00
         -1   -1    0    0    0  501 -0.00000000000E+00  0.00000000000E+00  0.10506320675E+03  0.10506320675E+03  0.00000000000E+00 0.  1.
          1   -1    0    0  503    0  0.00000000000E+00 -0.00000000000E+00 -0.56001651261E+03  0.56001651261E+03  0.00000000000E+00 0. -1.
         23    2    1    2    0    0  0.12553478858E+03  0.10384106513E+03 -0.58364199023E+02  0.19560096199E+03  0.91166916440E+02 0.  0.
         23    2    1    2    0    0 -0.68862819272E+02 -0.80914528497E+02 -0.32300055652E+03  0.35245211378E+03  0.92757124761E+02 0.  0.
        -11    1    4    4    0    0 -0.32753730450E+02 -0.89598468252E+02 -0.27907940533E+03  0.29493390252E+03  0.00000000000E+00 0.  1.
         11    1    4    4    0    0 -0.36109088822E+02  0.86839397555E+01 -0.43921151185E+02  0.57518211261E+02  0.00000000000E+00 0. -1.
        -13    1    3    3    0    0  0.72124303760E+02  0.91290372343E+02 -0.74814855930E+02  0.13832248531E+03  0.00000000000E+00 0. -1.
         13    1    3    3    0    0  0.53410484818E+02  0.12550692791E+02  0.16450656907E+02  0.57278476679E+02  0.00000000000E+00 0.  1.
         21    1    1    2  502  501 -0.75759168842E+01 -0.26116039186E+02  0.15239057252E+01  0.27235350339E+02  0.00000000000E+00 0. -1.
         21    1    1    2  503  502 -0.49096052421E+02  0.31895025488E+01 -0.75112456050E+02  0.89791293251E+02  0.00000000000E+00 0.  1.
<scales pt_clust_5="13000.00000" pt_clust_6="13000.00000" pt_clust_7="13000.00000" pt_clust_8="13000.00000" pt_clust_9="27.19268" pt_clust_10="49.72084"></scales>
<clustering>
<clus scale="   27.193">  1  9  2 -1</clus>
<clus scale="   49.721">  2 10  1 -1</clus>
<clus scale="   91.167">  7  8 -1 -1</clus>
<clus scale="   92.757">  5  6 -1 -1</clus>
<clus scale="  164.179">  1  7  2 -1</clus>
<clus scale="   49.721">  2  5  1 -1</clus>
</clustering>
</event>
<event>
10    2  0.1133532E-006  0.1058571E+03  0.7546771E-02  0.1268904E+00
          1   -1    0    0  503    0  0.00000000000E+00  0.00000000000E+00  0.76669198500E+03  0.76669198500E+03  0.00000000000E+00 0. -1.
         -1   -1    0    0    0  501 -0.00000000000E+00 -0.00000000000E+00 -0.33616668535E+02  0.33616668535E+02  0.00000000000E+00 0.  1.
         23    2    1    2    0    0  0.41650598984E+02  0.12793417925E+02  0.16703593288E+03  0.19462318899E+03  0.89881805063E+02 0.  0.
         23    2    1    2    0    0 -0.65384349366E+02 -0.33038050315E+02  0.39641121109E+03  0.41326392573E+03  0.90986801924E+02 0.  0.
        -11    1    3    3    0    0 -0.10377157021E+02 -0.18286213128E+02  0.10796547477E+03  0.10999370310E+03  0.00000000000E+00 0.  1.
         11    1    3    3    0    0  0.52027756005E+02  0.31079631053E+02  0.59070458112E+02  0.84629485895E+02  0.00000000000E+00 0. -1.
        -13    1    4    4    0    0 -0.52222236222E+02 -0.61080285887E+02  0.22142188871E+03  0.23555384964E+03  0.00000000000E+00 0.  1.
         13    1    4    4    0    0 -0.13162113144E+02  0.28042235573E+02  0.17498932238E+03  0.17771007609E+03  0.00000000000E+00 0. -1.
         21    1    1    2  502  501  0.10640811623E+02 -0.19516255435E+02  0.53087144493E+01  0.22853742523E+02  0.00000000000E+00 0.  1.
         21    1    1    2  503  502  0.13092938759E+02  0.39760887825E+02  0.16431945805E+03  0.16956779629E+03  0.00000000000E+00 0.  1.
<scales pt_clust_5="13000.00000" pt_clust_6="13000.00000" pt_clust_7="13000.00000" pt_clust_8="13000.00000" pt_clust_9="22.22861" pt_clust_10="40.29107"></scales>
<clustering>
<clus scale="   22.229">  2  9  1 -1</clus>
<clus scale="   40.291">  1 10  2 -1</clus>
<clus scale="   89.882">  5  6 -1 -1</clus>
<clus scale="   90.987">  7  8 -1 -1</clus>
<clus scale="  104.909">  2  5  1 -1</clus>
<clus scale="   40.291">  1  5  2 -1</clus>
</clustering>
</event>
<event>
10    2  0.1133532E-006  0.1265932E+03  0.7546771E-02  0.1245126E+00
         -2   -1    0    0    0  501 -0.00000000000E+00  0.00000000000E+00  0.83661531562E+02  0.83661531562E+02  0.00000000000E+00 0.  1.
          2   -1    0    0  503    0  0.00000000000E+00 -0.00000000000E+00 -0.11422650161E+04  0.11422650161E+04  0.00000000000E+00 0. -1.
         23    2    1    2    0    0  0.33575020872E+02  0.12793094525E+03 -0.33560474382E+03  0.37071990046E+03  0.85493226296E+02 0.  0.
         23    2    1    2    0    0  0.39908593666E+02  0.31186345300E+01 -0.42570286359E+03  0.43717157927E+03  0.91069423652E+02 0.  0.
        -13    1    4    4    0    0 -0.28060280237E+02  0.10334415116E+02 -0.16314305952E+03  0.16586089754E+03  0.00000000000E+00 0.  1.
         13    1    4    4    0    0  0.67968873903E+02 -0.72157805858E+01 -0.26255980407E+03  0.27131068173E+03  0.00000000000E+00 0. -1.
        -13    1    3    3    0    0  0.25598438065E+01  0.82139903567E+02 -0.10371753066E+03  0.13232854085E+03  0.00000000000E+00 0.  1.
         13    1    3    3    0    0  0.31015177065E+02  0.45791041682E+02 -0.23188721316E+03  0.23839135960E+03  0.00000000000E+00 0. -1.
         21    1    1    2  502  501 -0.22806653911E+02 -0.60988587738E+02  0.35518995610E+02  0.74171088343E+02  0.00000000000E+00 0.  1.
         21    1    1    2  503  502 -0.50676960627E+02 -0.70060992041E+02 -0.33281487276E+03  0.34386397961E+03  0.00000000000E+00 0. -1.
<scales pt_clust_5="13000.00000" pt_clust_6="13000.00000" pt_clust_7="13000.00000" pt_clust_8="13000.00000" pt_clust_9="65.11337" pt_clust_10="93.36350"></scales>
<clustering>
<clus scale="   65.113">  1  9  2 -1</clus>
<clus scale="   85.493">  7  8 -1 -1</clus>
<clus scale="   91.069">  5  6 -1 -1</clus>
<clus scale="   98.112">  2  5  1 -1</clus>
<clus scale="   93.364">  2 10  1 -1</clus>
<clus scale="   98.112">  2  5  1 -1</clus>
</clustering>
</event>
<event>
10    2  0.1133532E-006  0.1049206E+03  0.7546771E-02  0.1270721E+00
          2   -1    0    0  503    0  0.00000000000E+00  0.00000000000E+00  0.44474060834E+03  0.44474060834E+03  0.00000000000E+00 0. -1.
         -2   -1    0    0    0  501 -0.00000000000E+00 -0.00000000000E+00 -0.57605901487E+02  0.57605901487E+02  0.00000000000E+00 0.  1.
         23    2    1    2    0    0 -0.36184647473E+02  0.12407215364E+01  0.39263661845E+02  0.10644813766E+03  0.92079871667E+02 0.  0.
         23    2    1    2    0    0  0.48018276036E+02  0.36073797586E+02  0.24380340795E+03  0.26709228777E+03  0.91055558593E+02 0.  0.
        -11    1    4    4    0    0 -0.14599646534E+02  0.24738633451E+02  0.15617826780E+03  0.15879798801E+03  0.00000000000E+00 0.  1.
         11    1    4    4    0    0  0.62617922570E+02  0.11335164136E+02  0.87625140152E+02  0.10829429976E+03  0.00000000000E+00 0. -1.
        -11    1    3    3    0    0 -0.32247823309E+02  0.31766154067E+02 -0.11842613386E+02  0.46789508911E+02  0.00000000000E+00 0.  1.
         11    1    3    3    0    0 -0.39368241643E+01 -0.30525432530E+02  0.51106275231E+02  0.59658628745E+02  0.00000000000E+00 0. -1.
         21    1    1    2  502  501 -0.17413245757E+02 -0.17083846411E+02  0.18587339636E+01  0.24464951010E+02  0.00000000000E+00 0. -1.
         21    1    1    2  503  502  0.55796171943E+01 -0.20230672712E+02  0.10220890310E+03  0.10434113340E+03  0.00000000000E+00 0.  1.
<scales pt_clust_5="13000.00000" pt_clust_6="13000.00000" pt_clust_7="13000.00000" pt_clust_8="13000.00000" pt_clust_9="24.79692" pt_clust_10="20.98600"></scales>
<clustering>
<clus scale="   20.986">  1 10  2 -1</clus>
<clus scale="   24.797">  2  9  1 -1</clus>
<clus scale="   91.056">  5  6 -1 -1</clus>
<clus scale="   92.080">  7  8 -1 -1</clus>
<clus scale="  104.023">  1  5  2 -1</clus>
<clus scale="   20.986">  1  5  2 -1</clus>
</clustering>
</event>
<event>
10    2  0.1133532E-006  0.1295622E+03  0.7546771E-02  0.1229003E+00
          2   -1    0    0  503    0  0.00000000000E+00  0.00000000000E+00  0.85141810747E+02  0.85141810747E+02  0.00000000000E+00 0. -1.
         -2   -1    0    0    0  501 -0.00000000000E+00 -0.00000000000E+00 -0.34698348062E+03  0.34698348062E+03  0.00000000000E+00 0.  1.
         23    2    1    2    0    0 -0.38280146108E+02  0.82325311463E+02 -0.17753295154E+03  0.21938378354E+03  0.91479337043E+02 0.  0.
         23    2    1    2    0    0  0.62341491816E+02 -0.73034322036E+02 -0.57029339293E+02  0.14223166949E+03  0.88073994287E+02 0.  0.
        -13    1    3    3    0    0  0.17056948469E+02  0.27526554096E+02 -0.11510134855E+03  0.11956994233E+03  0.00000000000E+00 0. -1.
         13    1    3    3    0    0 -0.55337094577E+02  0.54798757367E+02 -0.62431602988E+02  0.99813841209E+02  0.00000000000E+00 0.  1.
        -13    1    4    4    0    0  0.33895494456E+02  0.12498071290E+02 -0.10834063184E+01  0.36142497142E+02  0.00000000000E+00 0. -1.
         13    1    4    4    0    0  0.28445997360E+02 -0.85532393327E+02 -0.55945932975E+02  0.10608917235E+03  0.00000000000E+00 0.  1.
         21    1    1    2  502  501 -0.34777751769E+02  0.14242713680E+02 -0.23635038710E+02  0.44395517408E+02  0.00000000000E+00 0.  1.
         21    1    1    2  503  502  0.10716406061E+02 -0.23533703106E+02 -0.36443403300E+01  0.26114320922E+02  0.00000000000E+00 0. -1.
<scales pt_clust_5="13000.00000" pt_clust_6="13000.00000" pt_clust_7="13000.00000" pt_clust_8="13000.00000" pt_clust_9="35.02420" pt_clust_10="25.85878"></scales>
<clustering>
<clus scale="   25.859">  1 10  2 -1</clus>
<clus scale="   35.024">  1  9  2 -1</clus>
<clus scale="   88.074">  7  8 -1 -1</clus>
<clus scale="   91.479">  5  6 -1 -1</clus>
<clus scale="  127.181">  1  7  2 -1</clus>
<clus scale="   25.859">  1  5  2 -1</clus>
</clustering>
</event>
<event>
10    2  0.1133532E-006  0.1383984E+03  0.7546771E-02  0.1216012E+00
         -2   -1    0    0    0  501 -0.00000000000E+00  0.00000000000E+00  0.58214480944E+02  0.58214480944E+02  0.00000000000E+00 0.  1.
          2   -1    0    0  503    0  0.00000000000E+00 -0.00000000000E+00 -0.10244278547E+04  0.10244278547E+04  0.00000000000E+00 0. -1.
         23    2    1    2    0    0  0.11370728075E+03 -0.16633169593E+02 -0.41668116922E+03  0.44221901910E+03  0.93426206436E+02 0.  0.
         23    2    1    2    0    0 -0.92246803703E+02  0.15749753314E+02 -0.49325655353E+03  0.51027283378E+03  0.91207509430E+02 0.  0.
        -11    1    4    4    0    0 -0.92072594371E+02  0.42997862068E+02 -0.41983841780E+03  0.43196119714E+03  0.00000000000E+00 0.  1.
         11    1    4    4    0    0 -0.17420933229E+00 -0.27248108754E+02 -0.73418135730E+02  0.78311636643E+02  0.00000000000E+00 0. -1.
        -13    1    3    3    0    0  0.76632329505E+02 -0.77942910348E+01 -0.38507975684E+03  0.39270814102E+03  0.00000000000E+00 0. -1.
         13    1    3    3    0    0  0.37074951244E+02 -0.88388785582E+01 -0.31601412380E+02  0.49510878080E+02  0.00000000000E+00 0.  1.
         21    1    1    2  502  501  0.38066636005E+01 -0.22602941746E+02  0.29697613503E+02  0.37514422708E+02  0.00000000000E+00 0.  1.
         21    1    1    2  503  502 -0.25267140646E+02  0.23486358025E+02 -0.85973264472E+02  0.92636060007E+02  0.00000000000E+00 0.  1.
<scales pt_clust_5="13000.00000" pt_clust_6="13000.00000" pt_clust_7="13000.00000" pt_clust_8="13000.00000" pt_clust_9="22.92125" pt_clust_10="32.09194"></scales>
<clustering>
<clus scale="   22.921">  1  9  2 -1</clus>
<clus scale="   32.092">  1 10  2 -1</clus>
<clus scale="   91.208">  5  6 -1 -1</clus>
<clus scale="   93.426">  7  8 -1 -1</clus>
<clus scale="  136.910">  2  5  1 -1</clus>
<clus scale="  136.910">  2  5  1 -1</clus>
</clustering>
</event>
<event>
10    2  0.1133532E-006  0.1707190E+03  0.7546771E-02  0.1177975E+00
          2   -1    0    0  503    0  0.00000000000E+00  0.00000000000E+00  0.79829397035E+03  0.79829397035E+03  0.00000000000E+00 0. -1.
         -2   -1    0    0    0  501 -0.00000000000E+00 -0.00000000000E+00 -0.22151651690E+03  0.22151651690E+03  0.00000000000E+00 0.  1.
         23    2    1    2    0    0 -0.16419580796E+03 -0.16530785344E+02 -0.11301679952E+02  0.19273820607E+03  0.98928044015E+02 0.  0.
         23    2    1    2    0    0  0.93150012008E+02 -0.81483098318E+01  0.61847775001E+03  0.63238932470E+03  0.93049508622E+02 0.  0.
        -11    1    3    3    0    0 -0.14875385272E+03  0.18294309598E+02 -0.25605567176E+02  0.15204616251E+03  0.00000000000E+00 0.  1.
         11    1    3    3    0    0 -0.15441955241E+02 -0.34825094943E+02  0.14303887224E+02  0.40692043561E+02  0.00000000000E+00 0. -1.
        -11    1    4    4    0    0  0.70960498941E+02 -0.48049127761E+02  0.37494418371E+03  0.38461311988E+03  0.00000000000E+00 0. -1.
         11    1    4    4    0    0  0.22189513068E+02  0.39900817930E+02  0.24353356630E+03  0.24777620482E+03  0.00000000000E+00 0.  1.
         21    1    1    2  502  501  0.22300330453E+02  0.21085910211E+02 -0.10282454162E+03  0.10730706736E+03  0.00000000000E+00 0.  1.
         21    1    1    2  503  502  0.48745465501E+02  0.35931849651E+01  0.72425925008E+02  0.87375889114E+02  0.00000000000E+00 0. -1.
<scales pt_clust_5="13000.00000" pt_clust_6="13000.00000" pt_clust_7="13000.00000" pt_clust_8="13000.00000" pt_clust_9="30.69072" pt_clust_10="50.42017"></scales>
<clustering>
<clus scale="   30.691">  2  9  1 -1</clus>
<clus scale="   50.420">  1 10  2 -1</clus>
<clus scale="   93.050">  7  8 -1 -1</clus>
<clus scale="   98.928">  5  6 -1 -1</clus>
<clus scale="  167.381">  1  7  2 -1</clus>
<clus scale="   50.420">  1  5  2 -1</clus>
</clustering>
</event>
<event>
10    2  0.1133532E-006  0.3864564E+03  0.7546771E-02  0.1071676E+00
          2   -1    0    0  503    0  0.00000000000E+00  0.00000000000E+00  0.11460628385E+04  0.11460628385E+04  0.00000000000E+00 0. -1.
         -2   -1    0    0    0  501 -0.00000000000E+00 -0.00000000000E+00 -0.91195892427E+03  0.91195892427E+03  0.00000000000E+00 0.  1.
         23    2    1    2    0    0 -0.19030762721E+03 -0.12437835523E+03 -0.10742911695E+03  0.26793122235E+03  0.92515709593E+02 0.  0.
         23    2    1    2    0    0  0.10872315916E+03  0.44475326771E+03 -0.20907321236E+03  0.51094569083E+03  0.87907317001E+02 0.  0.
        -11    1    4    4    0    0  0.49857436426E+02  0.33253559888E+03 -0.12433457850E+03  0.35850352286E+03  0.00000000000E+00 0. -1.
         11    1    4    4    0    0  0.58865722730E+02  0.11221766883E+03 -0.84738633857E+02  0.15244216798E+03  0.00000000000E+00 0.  1.
        -13    1    3    3    0    0 -0.18339452650E+03 -0.96479199330E+02 -0.11658096808E+03  0.23776650389E+03  0.00000000000E+00 0. -1.
         13    1    3    3    0    0 -0.69131007045E+01 -0.27899155896E+02  0.91518511241E+01  0.30164718465E+02  0.00000000000E+00 0.  1.
         21    1    1    2  502  501  0.15215158994E+03  0.40614836601E+02 -0.30752716894E+03  0.34550344559E+03  0.00000000000E+00 0.  1.
         21    1    1    2  503  502 -0.70567121890E+02 -0.36098974908E+03  0.85813341243E+03  0.93364140395E+03  0.00000000000E+00 0. -1.
<scales pt_clust_5="13000.00000" pt_clust_6="13000.00000" pt_clust_7="13000.00000" pt_clust_8="13000.00000" pt_clust_9="157.47911" pt_clust_10="376.32546"></scales>
<clustering>
<clus scale="   87.907">  5  6 -1 -1</clus>
<clus scale="   92.516">  7  8 -1 -1</clus>
<clus scale="  157.479">  2  9  1 -1</clus>
<clus scale="  202.462">  2  7  1 -1</clus>
<clus scale="  376.325">  1 10  2 -1</clus>
<clus scale="  376.325">  1  5  2 -1</clus>
</clustering>
</event>
<event>
10    2  0.1133532E-006  0.1119107E+03  0.7546771E-02  0.1257915E+00
         -3   -1    0    0    0  501 -0.00000000000E+00  0.00000000000E+00  0.15900092227E+03  0.15900092227E+03  0.00000000000E+00 0.  1.
          3   -1    0    0  503    0  0.00000000000E+00 -0.00000000000E+00 -0.23737318732E+03  0.23737318732E+03  0.00000000000E+00 0. -1.
         23    2    1    2    0    0 -0.14439844960E+01  0.71096815797E+02 -0.26067742134E+01  0.11767557592E+03  0.93722481765E+02 0.  0.
         23    2    1    2    0    0  0.88745519768E+02 -0.71199780266E+01 -0.57559784216E+02  0.14004901711E+03  0.91510311266E+02 0.  0.
        -13    1    3    3    0    0 -0.21613401744E+02 -0.14761142075E+02 -0.12356170406E+02  0.28943140766E+02  0.00000000000E+00 0.  1.
         13    1    3    3    0    0  0.20169417248E+02  0.85857957871E+02  0.97493961924E+01  0.88732435153E+02  0.00000000000E+00 0. -1.
        -13    1    4    4    0    0  0.85523404096E+02 -0.35348310787E+02 -0.23087028255E+02  0.95376971001E+02  0.00000000000E+00 0.  1.
         13    1    4    4    0    0  0.32221156717E+01  0.28228332760E+02 -0.34472755961E+02  0.44672046107E+02  0.00000000000E+00 0. -1.
         21    1    1    2  502  501 -0.30022565044E+02  0.19965311313E+01  0.26867841093E+02  0.40338832821E+02  0.00000000000E+00 0. -1.
         21    1    1    2  503  502 -0.57278970228E+02 -0.65973368902E+02 -0.45073547712E+02  0.98310683743E+02  0.00000000000E+00 0.  1.
<scales pt_clust_5="13000.00000" pt_clust_6="13000.00000" pt_clust_7="13000.00000" pt_clust_8="13000.00000" pt_clust_9="30.08888" pt_clust_10="91.36912"></scales>
<clustering>
<clus scale="   30.089">  1  9  2 -1</clus>
<clus scale="   91.369">  2 10  1 -1</clus>
<clus scale="   91.510">  7  8 -1 -1</clus>
<clus scale="   93.722">  5  6 -1 -1</clus>
<clus scale="  110.065">  2  7  1 -1</clus>
<clus scale="   91.369">  2  5  1 -1</clus>
</clustering>
</event>
<event>
10    2  0.1133532E-006  0.9890964E+02  0.7546771E-02  0.1285431E+00
         -3   -1    0    0    0  501 -0.00000000000E+00  0.00000000000E+00  0.29749023161E+03  0.29749023161E+03  0.00000000000E+00 0.  1.
          3   -1    0    0  503    0  0.00000000000E+00 -0.00000000000E+00 -0.87296706815E+02  0.87296706815E+02  0.00000000000E+00 0. -1.
         23    2    1    2    0    0  0.28345712708E+02 -0.44710039659E+02  0.15399114373E+03  0.18418687179E+03  0.86075921822E+02 0.  0.
         23    2    1    2    0    0 -0.92061846978E+01  0.25803881212E+02  0.23696457062E+02  0.98552285789E+02  0.91653896997E+02 0.  0.
        -11    1    4    4    0    0  0.22495412039E+02  0.32323646375E+02 -0.20005200870E+02  0.44170915087E+02  0.00000000000E+00 0.  1.
         11    1    4    4    0    0 -0.31701596737E+02 -0.65197651624E+01  0.43701657932E+02  0.54381370702E+02  0.00000000000E+00 0. -1.
        -11    1    3    3    0    0  0.48379220787E+02 -0.15391623659E+02  0.13431712327E+03  0.14359157596E+03  0.00000000000E+00 0.  1.
         11    1    3    3    0    0 -0.20033508080E+02 -0.29318416000E+02  0.19674020464E+02  0.40595295835E+02  0.00000000000E+00 0. -1.
         21    1    1    2  502  501  0.35584893958E+01  0.25700589442E+02  0.60228815285E+02  0.65579671660E+02  0.00000000000E+00 0. -1.
         21    1    1    2  503  502 -0.22698017406E+02 -0.67944309956E+01 -0.27722891281E+02  0.36468109187E+02  0.00000000000E+00 0.  1.
<scales pt_clust_5="13000.00000" pt_clust_6="13000.00000" pt_clust_7="13000.00000" pt_clust_8="13000.00000" pt_clust_9="25.49011" pt_clust_10="23.69313"></scales>
<clustering>
<clus scale="   23.693">  2 10  1 -1</clus>
<clus scale="   25.490">  1  9  2 -1</clus>
<clus scale="   86.076">  7  8 -1 -1</clus>
<clus scale="   91.654">  5  6 -1 -1</clus>
<clus scale="   93.764">  1  7  2 -1</clus>
<clus scale="   23.693">  2  5  1 -1</clus>
</clustering>
</event>
<event>
10    2  0.1133532E-006  0.1149890E+03  0.7546771E-02  0.1252268E+00
         -2   -1    0    0    0  501 -0.00000000000E+00  0.00000000000E+00  0.25168736826E+03  0.25168736826E+03  0.00000000000E+00 0.  1.
          2   -1    0    0  503    0  0.00000000000E+00 -0.00000000000E+00 -0.24082053977E+03  0.24082053977E+03  0.00000000000E+00 0. -1.
         23    2    1    2    0    0  0.65949601747E+02 -0.37709723544E+02  0.67673246485E+01  0.11991065796E+03  0.92527811982E+02 0.  0.
         23    2    1    2    0    0 -0.17077226746E+02  0.68836443988E+02 -0.14067020647E+02  0.11594059895E+03  0.90632520213E+02 0.  0.
        -11    1    4    4    0    0  0.33879318514E+02  0.85634880124E+01  0.33824759521E+01  0.35108157079E+02  0.00000000000E+00 0. -1.
         11    1    4    4    0    0 -0.50956545260E+02  0.60272955975E+02 -0.17449496599E+02  0.80832441869E+02  0.00000000000E+00 0.  1.
        -11    1    3    3    0    0  0.32714718887E+02  0.17372771811E+02  0.33785574499E+02  0.50135128169E+02  0.00000000000E+00 0.  1.
         11    1    3    3    0    0  0.33234882860E+02 -0.55082495355E+02 -0.27018249851E+02  0.69775529795E+02  0.00000000000E+00 0. -1.
         21    1    1    2  502  501 -0.12723316291E+02 -0.25061194160E+02  0.13309206453E+03  0.13602736442E+03  0.00000000000E+00 0.  1.
         21    1    1    2  503  502 -0.36149058710E+02 -0.60655262846E+01 -0.11492554004E+03  0.12062928669E+03  0.00000000000E+00 0. -1.
<scales pt_clust_5="13000.00000" pt_clust_6="13000.00000" pt_clust_7="13000.00000" pt_clust_8="13000.00000" pt_clust_9="28.10598" pt_clust_10="37.06499"></scales>
<clustering>
<clus scale="   28.106">  1  9  2 -1</clus>
<clus scale="   37.065">  2 10  1 -1</clus>
<clus scale="   90.633">  5  6 -1 -1</clus>
<clus scale="   92.528">  7  8 -1 -1</clus>
<clus scale="  113.470">  2  5  1 -1</clus>
<clus scale="   37.065">  2  5  1 -1</clus>
</clustering>
</event>
<event>
10    2  0.1133532E-006  0.1305786E+03  0.7546771E-02  0.1226755E+00
          1   -1    0    0  503    0  0.00000000000E+00  0.00000000000E+00  0.11040487108E+04  0.11040487108E+04  0.00000000000E+00 0. -1.
         -1   -1    0    0    0  501 -0.00000000000E+00 -0.00000000000E+00 -0.89035173100E+02  0.89035173100E+02  0.00000000000E+00 0.  1.
         23    2    1    2    0    0 -0.13448309071E+02  0.12727654156E+03  0.10911423369E+03  0.19138409601E+03  0.91333351869E+02 0.  0.
         23    2    1    2    0    0  0.22171197312E+02 -0.85263548259E+02  0.71863947170E+03  0.72983243632E+03  0.91930735682E+02 0.  0.
        -13    1    3    3    0    0 -0.15577448441E+02  0.53116083700E+02 -0.46691531081E+01  0.55549763621E+02  0.00000000000E+00 0.  1.
         13    1    3    3    0    0  0.21291393702E+01  0.74160457862E+02  0.11378338680E+03  0.13583433239E+03  0.00000000000E+00 0. -1.
        -13    1    4    4    0    0  0.58140853547E+02 -0.54222132015E+02  0.47424450685E+03  0.48086198719E+03  0.00000000000E+00 0.  1.
         13    1    4    4    0    0 -0.35969656235E+02 -0.31041416244E+02  0.24439496485E+03  0.24897044912E+03  0.00000000000E+00 0. -1.
         21    1    1    2  502  501  0.69138090083E+02  0.10349034778E+02  0.90851545762E+01  0.70496227238E+02  0.00000000000E+00 0. -1.
         21    1    1    2  503  502 -0.77860978323E+02 -0.52362028080E+02  0.17817467774E+03  0.20137112434E+03  0.00000000000E+00 0. -1.
<scales pt_clust_5="13000.00000" pt_clust_6="13000.00000" pt_clust_7="13000.00000" pt_clust_8="13000.00000" pt_clust_9="69.90835" pt_clust_10="81.49277"></scales>
<clustering>
<clus scale="   69.908">  2  9  1 -1</clus>
<clus scale="   81.493">  2 10  1 -1</clus>
<clus scale="   91.333">  5  6 -1 -1</clus>
<clus scale="   91.931">  7  8 -1 -1</clus>
<clus scale="  130.159">  2  5  1 -1</clus>
<clus scale="  130.579">  1  5  2 -1</clus>
</clustering>
</event>
<event>
10    2  0.1133532E-006  0.2339704E+03  0.7546771E-02  0.1124131E+00
          1   -1    0    0  503    0  0.00000000000E+00  0.00000000000E+00  0.23917373487E+03  0.23917373487E+03  0.00000000000E+00 0. -1.
         -1   -1    0    0    0  501 -0.00000000000E+00 -0.00000000000E+00 -0.57754028237E+03  0.57754028237E+03  0.00000000000E+00 0.  1.
         23    2    1    2    0    0 -0.97605665267E+02 -0.17629826173E+03 -0.43648438508E+03  0.48988894293E+03  0.94152084454E+02 0.  0.
         23    2    1    2    0    0  0.10247057848E+03  0.16986562556E+03  0.46695133612E+02  0.22295653669E+03  0.90413669035E+02 0.  0.
        -11    1    3    3    0    0 -0.90277031435E+02 -0.10675808957E+03 -0.36031810886E+03  0.38649239536E+03  0.00000000000E+00 0.  1.
         11    1    3    3    0    0 -0.73286338312E+01 -0.69540172160E+02 -0.76166276219E+02  0.10339654758E+03  0.00000000000E+00 0. -1.
        -13    1    4    4    0    0  0.14276682829E+02  0.27310694252E+02 -0.25925061976E+02  0.40271659161E+02  0.00000000000E+00 0.  1.
         13    1    4    4    0    0  0.88193895653E+02  0.14255493131E+03  0.72620195587E+02  0.18268487753E+03  0.00000000000E+00 0. -1.
         21    1    1    2  502  501  0.18913026746E+01 -0.25614271694E+02 -0.15047726394E+02  0.29767465627E+02  0.00000000000E+00 0. -1.
         21    1    1    2  503  502 -0.67562158904E+01  0.32046907865E+02  0.66470430364E+02  0.74101071987E+02  0.00000000000E+00 0. -1.
<scales pt_clust_5="13000.00000" pt_clust_6="13000.00000" pt_clust_7="13000.00000" pt_clust_8="13000.00000" pt_clust_9="25.68400" pt_clust_10="32.57642"></scales>
<clustering>
<clus scale="   25.684">  2  9  1 -1</clus>
<clus scale="   32.576">  1 10  2 -1</clus>
<clus scale="   90.414">  7  8 -1 -1</clus>
<clus scale="   94.152">  5  6 -1 -1</clus>
<clus scale="  232.491">  1  7  2 -1</clus>
<clus scale="   32.576">  1  5  2 -1</clus>
</clustering>
</event>
<event>
10    2  0.1133532E-006  0.9579362E+02  0.7546771E-02  0.1290272E+00
         -2   -1    0    0    0  501 -0.00000000000E+00  0.00000000000E+00  0.91749330964E+02  0.91749330964E+02  0.00000000000E+00 0.  1.
          2   -1    0    0  503    0  0.00000000000E+00 -0.00000000000E+00 -0.35804060967E+03  0.35804060967E+03  0.00000000000E+00 0. -1.
         23    2    1    2    0    0  0.26011782773E+02 -0.58398944158E+01 -0.37332373618E+02  0.10125486407E+03  0.90266960555E+02 0.  0.
         23    2    1    2    0    0 -0.18507530441E+02  0.35436377688E+02 -0.50344249605E+02  0.11214425326E+03  0.91888652865E+02 0.  0.
        -11    1    3    3    0    0  0.33693506828E+02 -0.39771030783E+02 -0.27440481311E+01  0.52196906920E+02  0.00000000000E+00 0.  1.
         11    1    3    3    0    0 -0.76817240547E+01  0.33931136367E+02 -0.34588325487E+02  0.49057957149E+02  0.00000000000E+00 0. -1.
        -13    1    4    4    0    0 -0.40359340561E+02  0.13365254252E+02 -0.65104541946E+02  0.77756721727E+02  0.00000000000E+00 0. -1.
         13    1    4    4    0    0  0.21851810120E+02  0.22071123436E+02  0.14760292342E+02  0.34387531538E+02  0.00000000000E+00 0.  1.
         21    1    1    2  502  501 -0.31335404095E+02  0.99542508622E+01  0.15863925289E+02  0.36505599373E+02  0.00000000000E+00 0. -1.
         21    1    1    2  503  502  0.23831151763E+02 -0.39550734134E+02 -0.19447858077E+03  0.19988522393E+03  0.00000000000E+00 0.  1.
<scales pt_clust_5="13000.00000" pt_clust_6="13000.00000" pt_clust_7="13000.00000" pt_clust_8="13000.00000" pt_clust_9="32.87848" pt_clust_10="45.16610"></scales>
<clustering>
<clus scale="   32.878">  1  9  2 -1</clus>
<clus scale="   45.166">  2 10  1 -1</clus>
<clus scale="   90.267">  5  6 -1 -1</clus>
<clus scale="   91.889">  7  8 -1 -1</clus>
<clus scale="   94.239">  1  5  2 -1</clus>
<clus scale="   45.166">  2  5  1 -1</clus>
</clustering>
</event>
<event>
10    2  0.1133532E-006  0.1853277E+03  0.7546771E-02  0.1162983E+00
          1   -1    0    0  503    0  0.00000000000E+00  0.00000000000E+00  0.31412955071E+03  0.31412955071E+03  0.00000000000E+00 0. -1.
         -1   -1    0    0    0  501 -0.00000000000E+00 -0.00000000000E+00 -0.41013043784E+03  0.41013043784E+03  0.00000000000E+00 0.  1.
         23    2    1    2    0    0 -0.91335486368E+02  0.11050640941E+03 -0.24129046309E+03  0.29516597399E+03  0.91367538200E+02 0.  0.
         23    2    1    2    0    0  0.12748930492E+03 -0.11628729111E+03  0.22094407393E+03  0.29421437880E+03  0.89272391841E+02 0.  0.
        -11    1    4    4    0    0  0.10958938247E+03 -0.41506462086E+02  0.12677800775E+03  0.17264206438E+03  0.00000000000E+00 0. -1.
         11    1    4    4    0    0  0.17899922450E+02 -0.74780829023E+02  0.94166066178E+02  0.12157231442E+03  0.00000000000E+00 0.  1.
        -11    1    3    3    0    0 -0.67259585231E+02  0.28182926875E+02 -0.59360250302E+02  0.94030678443E+02  0.00000000000E+00 0. -1.
         11    1    3    3    0    0 -0.24075901137E+02  0.82323482537E+02 -0.18193021278E+03  0.20113529555E+03  0.00000000000E+00 0.  1.
         21    1    1    2  502  501 -0.56481876323E+01  0.21031691289E+02 -0.93767300904E+02  0.96262873325E+02  0.00000000000E+00 0. -1.
         21    1    1    2  503  502 -0.30505630915E+02 -0.15250809592E+02  0.18112802938E+02  0.38616762436E+02  0.00000000000E+00 0.  1.
<scales pt_clust_5="13000.00000" pt_clust_6="13000.00000" pt_clust_7="13000.00000" pt_clust_8="13000.00000" pt_clust_9="21.77692" pt_clust_10="33.97092"></scales>
<clustering>
<clus scale="   21.777">  2  9  1 -1</clus>
<clus scale="   33.971">  1 10  2 -1</clus>
<clus scale="   89.272">  5  6 -1 -1</clus>
<clus scale="   91.368">  7  8 -1 -1</clus>
<clus scale="  184.304">  1  5  2 -1</clus>
<clus scale="   33.971">  1  5  2 -1</clus>
</clustering>
</event>
<event>
10    2  0.1133532E-006  0.1011706E+03  0.7546771E-02  0.1282135E+00
          3   -1    0    0  503    0  0.00000000000E+00  0.00000000000E+00  0.50582639739E+03  0.50582639739E+03  0.00000000000E+00 0. -1.
         -3   -1    0    0    0  501 -0.00000000000E+00 -0.00000000000E+00 -0.71415020564E+02  0.71415020564E+02  0.00000000000E+00 0.  1.
         23    2    1    2    0    0 -0.62144025080E+01 -0.64435420519E+02  0.16325004607E+03  0.20143286875E+03  0.98661445626E+02 0.  0.
         23    2    1    2    0    0 -0.65436349257E+01  0.17742370462E+01  0.21279236632E+03  0.23134693719E+03  0.90525394829E+02 0.  0.
        -11    1    3    3    0    0 -0.22105051521E+02  0.60754354074E+01  0.29803517605E-01  0.22924770585E+02  0.00000000000E+00 0.  1.
         11    1    3    3    0    0  0.15890649013E+02 -0.70510855927E+02  0.16322024256E+03  0.17850809816E+03  0.00000000000E+00 0. -1.
        -11    1    4    4    0    0 -0.29515096342E+02 -0.35242729851E+02  0.12825327671E+03  0.13624277561E+03  0.00000000000E+00 0.  1.
         11    1    4    4    0    0  0.22971461416E+02  0.37016966897E+02  0.84539089612E+02  0.95104161583E+02  0.00000000000E+00 0. -1.
         21    1    1    2  502  501  0.28381104859E+02  0.32905897570E+01 -0.26999839716E+02  0.39310385888E+02  0.00000000000E+00 0.  1.
         21    1    1    2  503  502 -0.15623067425E+02  0.59370593716E+02  0.85368804141E+02  0.10515122612E+03  0.00000000000E+00 0. -1.
<scales pt_clust_5="13000.00000" pt_clust_6="13000.00000" pt_clust_7="13000.00000" pt_clust_8="13000.00000" pt_clust_9="28.57123" pt_clust_10="60.78864"></scales>
<clustering>
<clus scale="   28.571">  2  9  1 -1</clus>
<clus scale="   60.789">  2 10  1 -1</clus>
<clus scale="   90.525">  7  8 -1 -1</clus>
<clus scale="   93.254">  1  7  2 -1</clus>
<clus scale="   98.661">  5  6 -1 -1</clus>
<clus scale="   93.254">  1  5  2 -1</clus>
</clustering>
</event>
<event>
10    2  0.1133532E-006  0.1075888E+03  0.7546771E-02  0.1268635E+00
         -1   -1    0    0    0  501 -0.00000000000E+00  0.00000000000E+00  0.53728235777E+03  0.53728235777E+03  0.00000000000E+00 0.  1.
          1   -1    0    0  503    0  0.00000000000E+00 -0.00000000000E+00 -0.13865727985E+03  0.13865727985E+03  0.00000000000E+00 0. -1.
         23    2    1    2    0    0  0.14442293854E+02  0.12030020379E+02  0.28224731243E+02  0.97281488708E+02  0.91179774893E+02 0.  0.
         23    2    1    2    0    0  0.36776699822E+02 -0.67733314877E+02 -0.43328772514E+02  0.13272904146E+03  0.98991354807E+02 0.  0.
        -13    1    4    4    0    0 -0.81769675478E+01 -0.75118863308E+02 -0.43466540691E+02  0.87172510476E+02  0.00000000000E+00 0. -1.
         13    1    4    4    0    0  0.44953667370E+02  0.73855484319E+01  0.13776817698E+00  0.45556530988E+02  0.00000000000E+00 0.  1.
        -13    1    3    3    0    0  0.29166113794E+02 -0.24805540645E+02 -0.12648283690E+02  0.40323146217E+02  0.00000000000E+00 0. -1.
         13    1    3    3    0    0 -0.14723819940E+02  0.36835561025E+02  0.40873014933E+02  0.56958342491E+02  0.00000000000E+00 0.  1.
         21    1    1    2  502  501 -0.27669924618E+02  0.44560606642E+02  0.41644538533E+03  0.41973566843E+03  0.00000000000E+00 0.  1.
         21    1    1    2  503  502 -0.23549069057E+02  0.11142687855E+02 -0.27162661402E+01  0.26193439023E+02  0.00000000000E+00 0.  1.
<scales pt_clust_5="13000.00000" pt_clust_6="13000.00000" pt_clust_7="13000.00000" pt_clust_8="13000.00000" pt_clust_9="52.74284" pt_clust_10="26.05222"></scales>
<clustering>
<clus scale="   26.052">  2 10  1 -1</clus>
<clus scale="   52.743">  1  9  2 -1</clus>
<clus scale="   91.180">  7  8 -1 -1</clus>
<clus scale="   98.991">  5  6 -1 -1</clus>
<clus scale="  100.448">  1  7  2 -1</clus>
<clus scale="   26.052">  2  5  1 -1</clus>
</clustering>
</event>
<event>
10    2  0.1133532E-006  0.9426219E+02  0.7546771E-02  0.1295046E+00
          1   -1    0    0  503    0  0.00000000000E+00  0.00000000000E+00  0.46116269251E+03  0.46116269251E+03  0.00000000000E+00 0. -1.
         -1   -1    0    0    0  501 -0.00000000000E+00 -0.00000000000E+00 -0.10527714423E+03  0.10527714423E+03  0.00000000000E+00 0.  1.
         23    2    1    2    0    0 -0.31714106554E+02 -0.26578360661E+02 -0.23330143067E+01  0.97405234043E+02  0.88148413788E+02 0.  0.
         23    2    1    2    0    0  0.66948469932E+01 -0.23196418996E+02  0.11436971509E+03  0.14876831132E+03  0.92025452416E+02 0.  0.
        -11    1    3    3    0    0 -0.25623379880E+02  0.22068065990E+02 -0.26294780076E+02  0.42836580072E+02  0.00000000000E+00 0.  1.
         11    1    3    3    0    0 -0.60907266738E+01 -0.48646426652E+02  0.23961765770E+02  0.54568653971E+02  0.00000000000E+00 0. -1.
        -13    1    4    4    0    0  0.31351484204E+02  0.25361143668E+02  0.42365650292E+02  0.58488900610E+02  0.00000000000E+00 0.  1.
         13    1    4    4    0    0 -0.24656637211E+02 -0.48557562664E+02  0.72004064802E+02  0.90279410712E+02  0.00000000000E+00 0. -1.
         21    1    1    2  502  501  0.11887523072E+02  0.16554502991E+02 -0.34264881920E+02  0.39867868102E+02  0.00000000000E+00 0.  1.
         21    1    1    2  503  502  0.13131736488E+02  0.33220276667E+02  0.27811372941E+03  0.28039842327E+03  0.00000000000E+00 0. -1.
<scales pt_clust_5="13000.00000" pt_clust_6="13000.00000" pt_clust_7="13000.00000" pt_clust_8="13000.00000" pt_clust_9="20.38050" pt_clust_10="36.05266"></scales>
<clustering>
<clus scale="   20.380">  2  9  1 -1</clus>
<clus scale="   36.053">  1 10  2 -1</clus>
<clus scale="   88.148">  5  6 -1 -1</clus>
<clus scale="   90.481">  2  5  1 -1</clus>
<clus scale="   92.025">  7  8 -1 -1</clus>
<clus scale="   36.053">  1  5  2 -1</clus>
</clustering>
</event>
<event>
10    2  0.1133532E-006  0.2673239E+03  0.7546771E-02  0.1103005E+00
          2   -1    0    0  503    0  0.00000000000E+00  0.00000000000E+00  0.74244882367E+03  0.74244882367E+03  0.00000000000E+00 0. -1.
         -2   -1    0    0    0  501 -0.00000000000E+00 -0.00000000000E+00 -0.12459595206E+03  0.12459595206E+03  0.00000000000E+00 0.  1.
         23    2    1    2    0    0  0.12735908283E+03  0.23551888771E+03  0.25064557853E+03  0.37827057679E+03  0.92606375487E+02 0.  0.
         23    2    1    2    0    0 -0.13803945737E+03 -0.19487163749E+03  0.34058448234E+03  0.42535489995E+03  0.88877187207E+02 0.  0.
        -11    1    4    4    0    0 -0.84438178979E+02 -0.60174750780E+02  0.97518139320E+02  0.14233971405E+03  0.00000000000E+00 0.  1.
         11    1    4    4    0    0 -0.53601278394E+02 -0.13469688671E+03  0.24306634302E+03  0.28301518589E+03  0.00000000000E+00 0. -1.
        -11    1    3    3    0    0  0.55638254625E+02  0.13843971959E+03  0.80124156436E+02  0.16935481033E+03  0.00000000000E+00 0. -1.
         11    1    3    3    0    0  0.71720828204E+02  0.97079168114E+02  0.17052142209E+03  0.20891576645E+03  0.00000000000E+00 0.  1.
         21    1    1    2  502  501 -0.61342934454E+01 -0.25857566260E+02 -0.24884283860E+01  0.26691488621E+02  0.00000000000E+00 0.  1.
         21    1    1    2  503  502  0.16814667989E+02 -0.14789683959E+02  0.29111239130E+02  0.36727810374E+02  0.00000000000E+00 0.  1.
<scales pt_clust_5="13000.00000" pt_clust_6="13000.00000" pt_clust_7="13000.00000" pt_clust_8="13000.00000" pt_clust_9="26.75660" pt_clust_10="22.39348"></scales>
<clustering>
<clus scale="   22.393">  1 10  2 -1</clus>
<clus scale="   26.757">  2  9  1 -1</clus>
<clus scale="   88.877">  5  6 -1 -1</clus>
<clus scale="   92.606">  7  8 -1 -1</clus>
<clus scale="  266.055">  1  5  2 -1</clus>
<clus scale="   22.393">  1  5  2 -1</clus>
</clustering>
</event>
<event>
10    2  0.1133532E-006  0.3056528E+03  0.7546771E-02  0.1082449E+00
         -2   -1    0    0    0  501 -0.00000000000E+00  0.00000000000E+00  0.19990633241E+04  0.19990633241E+04  0.00000000000E+00 0.  1.
          2   -1    0    0  503    0  0.00000000000E+00 -0.00000000000E+00 -0.13985950960E+03  0.13985950960E+03  0.00000000000E+00 0. -1.
         23    2    1    2    0    0 -0.17122724802E+03  0.20861852221E+03  0.10809404186E+04  0.11180468877E+04  0.93574549009E+02 0.  0.
         23    2    1    2    0    0  0.75242065453E+02 -0.31346533211E+03  0.52800830685E+03  0.62567582510E+03  0.93571273175E+02 0.  0.
        -13    1    3    3    0    0 -0.84085024548E+02  0.16734362624E+03  0.64942826528E+03  0.67589292964E+03  0.00000000000E+00 0. -1.
         13    1    3    3    0    0 -0.87142223467E+02  0.41274895972E+02  0.43151215332E+03  0.44215395804E+03  0.00000000000E+00 0.  1.
        -13    1    4    4    0    0 -0.20828073868E+02 -0.90971498904E+02  0.14723742228E+03  0.17432292102E+03  0.00000000000E+00 0.  1.
         13    1    4    4    0    0  0.96070139320E+02 -0.22249383321E+03  0.38077088458E+03  0.45135290409E+03  0.00000000000E+00 0. -1.
         21    1    1    2  502  501  0.94266880054E+02  0.78039242290E+02  0.30804960355E+03  0.33146783594E+03  0.00000000000E+00 0.  1.
         21    1    1    2  503  502  0.17183025087E+01  0.26807567616E+02 -0.57794514494E+02  0.63732284994E+02  0.00000000000E+00 0.  1.
<scales pt_clust_5="13000.00000" pt_clust_6="13000.00000" pt_clust_7="13000.00000" pt_clust_8="13000.00000" pt_clust_9="125.13807" pt_clust_10="26.86258"></scales>
<clustering>
<clus scale="   26.863">  2 10  1 -1</clus>
<clus scale="   93.571">  7  8 -1 -1</clus>
<clus scale="   93.575">  5  6 -1 -1</clus>
<clus scale="  125.138">  1  9  2 -1</clus>
<clus scale="  305.652">  2  7  1 -1</clus>
<clus scale="   26.863">  2  5  1 -1</clus>
</clustering>
</event>
<event>
10    2  0.1133532E-006  0.1201596E+03  0.7546771E-02  0.1243308E+00
         -1   -1    0    0    0  501 -0.00000000000E+00  0.00000000000E+00  0.16074798059E+03  0.16074798059E+03  0.00000000000E+00 0.  1.
          1   -1    0    0  503    0  0.00000000000E+00 -0.00000000000E+00 -0.41792170363E+03  0.41792170363E+03  0.00000000000E+00 0. -1.
         23    2    1    2    0    0  0.38353372346E+02  0.75430830572E+02 -0.16153593565E+02  0.12444416173E+03  0.89803226184E+02 0.  0.
         23    2    1    2    0    0  0.79127473371E+01 -0.64117925605E+02 -0.24801257673E+03  0.27207071827E+03  0.91315483723E+02 0.  0.
        -13    1    3    3    0    0 -0.24894236813E+02  0.83261452024E+01  0.10781383373E+02  0.28377560640E+02  0.00000000000E+00 0.  1.
         13    1    3    3    0    0  0.63247609159E+02  0.67104685370E+02 -0.26934976938E+02  0.96066601093E+02  0.00000000000E+00 0. -1.
        -13    1    4    4    0    0 -0.25810713972E+02 -0.59556993677E+02 -0.21528208388E+03  0.22485462880E+03  0.00000000000E+00 0. -1.
         13    1    4    4    0    0  0.33723461309E+02 -0.45609319283E+01 -0.32730492855E+02  0.47216089475E+02  0.00000000000E+00 0.  1.
         21    1    1    2  502  501 -0.43763525536E+02  0.92315938883E+01  0.87909227106E+02  0.98633162290E+02  0.00000000000E+00 0.  1.
         21    1    1    2  503  502 -0.25025941475E+01 -0.20544498855E+02 -0.80916779840E+02  0.83521641928E+02  0.00000000000E+00 0. -1.
<scales pt_clust_5="13000.00000" pt_clust_6="13000.00000" pt_clust_7="13000.00000" pt_clust_8="13000.00000" pt_clust_9="44.69919" pt_clust_10="20.69636"></scales>
<clustering>
<clus scale="   20.696">  2 10  1 -1</clus>
<clus scale="   44.699">  1  9  2 -1</clus>
<clus scale="   89.803">  5  6 -1 -1</clus>
<clus scale="   91.315">  7  8 -1 -1</clus>
<clus scale="  119.014">  1  5  2 -1</clus>
<clus scale="   20.696">  2  5  1 -1</clus>
</clustering>
</event>
<event>
10    2  0.1133532E-006  0.2094690E+03  0.7546771E-02  0.1171307E+00
         -1   -1    0    0    0  501 -0.00000000000E+00  0.00000000000E+00  0.57160103773E+03  0.57160103773E+03  0.00000000000E+00 0.  1.
          1   -1    0    0  503    0  0.00000000000E+00 -0.00000000000E+00 -0.40677913218E+03  0.40677913218E+03  0.00000000000E+00 0. -1.
         23    2    1    2    0    0 -0.95733282551E+02 -0.19818533591E+03 -0.18912074156E+03  0.30414286499E+03  0.91071063903E+02 0.  0.
         23    2    1    2    0    0  0.54947391519E+02  0.65618850511E+00 -0.82053852184E+02  0.13521611756E+03  0.92362965372E+02 0.  0.
        -11    1    4    4    0    0  0.13485988284E+02  0.42700917527E+02 -0.53066761369E+02  0.69435735755E+02  0.00000000000E+00 0.  1.
         11    1    4    4    0    0  0.41461403235E+02 -0.42044729022E+02 -0.28987090814E+02  0.65780381807E+02  0.00000000000E+00 0. -1.
        -13    1    3    3    0    0 -0.32200984507E+02 -0.15907009774E+03 -0.14387325210E+03  0.21688640360E+03  0.00000000000E+00 0. -1.
         13    1    3    3    0    0 -0.63532298043E+02 -0.39115238170E+02 -0.45247489457E+02  0.87256461388E+02  0.00000000000E+00 0.  1.
         21    1    1    2  502  501  0.56413080308E+02  0.17775133201E+03  0.46475796053E+03  0.50077732930E+03  0.00000000000E+00 0.  1.
         21    1    1    2  503  502 -0.15627189277E+02  0.19777815389E+02 -0.28761461239E+02  0.38243858054E+02  0.00000000000E+00 0. -1.
<scales pt_clust_5="13000.00000" pt_clust_6="13000.00000" pt_clust_7="13000.00000" pt_clust_8="13000.00000" pt_clust_9="188.63545" pt_clust_10="25.20657"></scales>
<clustering>
<clus scale="   25.207">  2 10  1 -1</clus>
<clus scale="   91.071">  7  8 -1 -1</clus>
<clus scale="   92.363">  5  6 -1 -1</clus>
<clus scale="  105.414">  2  5  1 -1</clus>
<clus scale="  188.635">  1  9  2 -1</clus>
<clus scale="   25.207">  2  5  1 -1</clus>
</clustering>
</event>
<event>
10    2  0.1133532E-006  0.1087767E+03  0.7546771E-02  0.1264039E+00
          2   -1    0    0  503    0  0.00000000000E+00  0.00000000000E+00  0.12842949206E+03  0.12842949206E+03  0.00000000000E+00 0. -1.
         -2   -1    0    0    0  501 -0.00000000000E+00 -0.00000000000E+00 -0.18117393531E+03  0.18117393531E+03  0.00000000000E+00 0.  1.
         23    2    1    2    0    0 -0.62803272715E+02  0.49856061050E+02 -0.66551783944E+02  0.13776673817E+03  0.90114684221E+02 0.  0.
         23    2    1    2    0    0  0.31787550767E+02 -0.12746156158E+02  0.81506785062E+01  0.99480924780E+02  0.93043580942E+02 0.  0.
        -11    1    4    4    0    0 -0.26238143741E+02  0.17268603863E+02 -0.75205826707E+01  0.32298669168E+02  0.00000000000E+00 0. -1.
         11    1    4    4    0    0  0.58025694507E+02 -0.30014760021E+02  0.15671261177E+02  0.67182255612E+02  0.00000000000E+00 0.  1.
        -13    1    3    3    0    0 -0.44977665553E+02 -0.17704865649E+00  0.85477410862E+01  0.45783027668E+02  0.00000000000E+00 0. -1.
         13    1    3    3    0    0 -0.17825607162E+02  0.50033109707E+02 -0.75099525030E+02  0.91983710500E+02  0.00000000000E+00 0.  1.
         21    1    1    2  502  501  0.13816346250E+02 -0.16870450077E+02 -0.24078845152E+02  0.32485293494E+02  0.00000000000E+00 0.  1.
         21    1    1    2  503  502  0.17199375699E+02 -0.20239454815E+02  0.29735507334E+02  0.39870470928E+02  0.00000000000E+00 0. -1.
<scales pt_clust_5="13000.00000" pt_clust_6="13000.00000" pt_clust_7="13000.00000" pt_clust_8="13000.00000" pt_clust_9="21.80604" pt_clust_10="27.28301"></scales>
<clustering>
<clus scale="   21.806">  2  9  1 -1</clus>
<clus scale="   27.283">  1 10  2 -1</clus>
<clus scale="   90.115">  7  8 -1 -1</clus>
<clus scale="   93.044">  5  6 -1 -1</clus>
<clus scale="  106.282">  2  7  1 -1</clus>
<clus scale="   27.283">  1  5  2 -1</clus>
</clustering>
</event>
<event>
10    2  0.1133532E-006  0.9929174E+02  0.7546771E-02  0.1282457E+00
         -1   -1    0    0    0  501 -0.00000000000E+00  0.00000000000E+00  0.19834636888E+03  0.19834636888E+03  0.00000000000E+00 0.  1.
          1   -1    0    0  503    0  0.00000000000E+00 -0.00000000000E+00 -0.24362407442E+03  0.24362407442E+03  0.00000000000E+00 0. -1.
         23    2    1    2    0    0 -0.44134104856E+02 -0.41910141113E+02  0.11872571374E+03  0.16087736252E+03  0.89896893878E+02 0.  0.
         23    2    1    2    0    0  0.17654365093E+01  0.20107530433E+02 -0.11466842902E+03  0.14792935418E+03  0.91251387208E+02 0.  0.
        -11    1    4    4    0    0 -0.16052649753E+02  0.46864034258E+02 -0.31348172497E+02  0.58622804351E+02  0.00000000000E+00 0.  1.
         11    1    4    4    0    0  0.17818086262E+02 -0.26756503825E+02 -0.83320256522E+02  0.89306549827E+02  0.00000000000E+00 0. -1.
        -13    1    3    3    0    0  0.12703893479E+02 -0.30625044557E+02  0.53953721012E+01  0.33591551077E+02  0.00000000000E+00 0. -1.
         13    1    3    3    0    0 -0.56837998336E+02 -0.11285096556E+02  0.11333034163E+03  0.12728581144E+03  0.00000000000E+00 0.  1.
         21    1    1    2  502  501  0.29856028849E+02  0.37610398761E+01  0.34918819753E+02  0.46096115373E+02  0.00000000000E+00 0. -1.
         21    1    1    2  503  502  0.12512639499E+02  0.18041570803E+02 -0.84253810006E+02  0.87067611227E+02  0.00000000000E+00 0. -1.
<scales pt_clust_5="13000.00000" pt_clust_6="13000.00000" pt_clust_7="13000.00000" pt_clust_8="13000.00000" pt_clust_9="30.61644" pt_clust_10="21.95597"></scales>
<clustering>
<clus scale="   21.956">  2 10  1 -1</clus>
<clus scale="   30.616">  1  9  2 -1</clus>
<clus scale="   89.897">  7  8 -1 -1</clus>
<clus scale="   91.251">  5  6 -1 -1</clus>
<clus scale="   98.048">  1  7  2 -1</clus>
<clus scale="   21.956">  2  5  1 -1</clus>
</clustering>
</event>
<event>
10    2  0.1133532E-006  0.1438428E+03  0.7546771E-02  0.1208442E+00
         -1   -1    0    0    0  501 -0.00000000000E+00  0.00000000000E+00  0.99039385830E+02  0.99039385830E+02  0.00000000000E+00 0.  1.
          1   -1    0    0  503    0  0.00000000000E+00 -0.00000000000E+00 -0.92052982578E+03  0.92052982578E+03  0.00000000000E+00 0. -1.
         23    2    1    2    0    0  0.33075795812E+02  0.86755415008E+01  0.73419840621E+01  0.98286074432E+02  0.91853004352E+02 0.  0.
         23    2    1    2    0    0 -0.15020672420E+03 -0.87897435711E+02 -0.63203676620E+03  0.66183518643E+03  0.90924809444E+02 0.  0.
        -11    1    4    4    0    0 -0.12857789430E+03 -0.41361846179E+02 -0.53813334098E+03  0.55482481010E+03  0.00000000000E+00 0. -1.
         11    1    4    4    0    0 -0.21628829900E+02 -0.46535589532E+02 -0.93903425216E+02  0.10701037633E+03  0.00000000000E+00 0.  1.
        -11    1    3    3    0    0  0.27844712697E+02 -0.31779212825E+02  0.29816133762E+02  0.51713133975E+02  0.00000000000E+00 0.  1.
         11    1    3    3    0    0  0.52310831145E+01  0.40454754326E+02 -0.22474149700E+02  0.46572940457E+02  0.00000000000E+00 0. -1.
         21    1    1    2  502  501  0.85086772149E+02  0.27827427249E+02 -0.54518216416E+02  0.10481584052E+03  0.00000000000E+00 0.  1.
         21    1    1    2  503  502  0.32044156239E+02  0.51394466961E+02 -0.14227744140E+03  0.15463211023E+03  0.00000000000E+00 0.  1.
<scales pt_clust_5="13000.00000" pt_clust_6="13000.00000" pt_clust_7="13000.00000" pt_clust_8="13000.00000" pt_clust_9="94.39813" pt_clust_10="60.56583"></scales>
<clustering>
<clus scale="   60.566">  2 10  1 -1</clus>
<clus scale="   90.925">  5  6 -1 -1</clus>
<clus scale="   91.853">  7  8 -1 -1</clus>
<clus scale="   94.398">  1  9  2 -1</clus>
<clus scale="  143.252">  2  5  1 -1</clus>
<clus scale="   60.566">  2  5  1 -1</clus>
</clustering>
</event>
<event>
10    2  0.1133532E-006  0.1204166E+03  0.7546771E-02  0.1243974E+00
          1   -1    0    0  503    0  0.00000000000E+00  0.00000000000E+00  0.20085183603E+03  0.20085183603E+03  0.00000000000E+00 0. -1.
         -1   -1    0    0    0  501 -0.00000000000E+00 -0.00000000000E+00 -0.59066705543E+03  0.59066705543E+03  0.00000000000E+00 0.  1.
         23    2    1    2    0    0 -0.48856695829E+01  0.19773225471E+02 -0.32344034131E+03  0.33668983999E+03  0.91277290438E+02 0.  0.
         23    2    1    2    0    0  0.16603494784E+02 -0.12476600678E+03  0.50685197824E+02  0.16622191631E+03  0.96013039199E+02 0.  0.
        -11    1    4    4    0    0 -0.22318809984E+02 -0.11514621631E+03  0.45452798837E+02  0.12578846263E+03  0.00000000000E+00 0. -1.
         11    1    4    4    0    0  0.38922304768E+02 -0.96197904738E+01  0.52323989863E+01  0.40433453678E+02  0.00000000000E+00 0.  1.
        -11    1    3    3    0    0 -0.11885650631E+02  0.54083761527E+02 -0.15358794367E+03  0.16326536189E+03  0.00000000000E+00 0.  1.
         11    1    3    3    0    0  0.69999810481E+01 -0.34310536055E+02 -0.16985239764E+03  0.17342447809E+03  0.00000000000E+00 0. -1.
         21    1    1    2  502  501 -0.58123831824E+02  0.32867172053E+02 -0.17352142476E+03  0.18592556487E+03  0.00000000000E+00 0.  1.
         21    1    1    2  503  502  0.46406006623E+02  0.72125609260E+02  0.56461348844E+02  0.10268157028E+03  0.00000000000E+00 0.  1.
<scales pt_clust_5="13000.00000" pt_clust_6="13000.00000" pt_clust_7="13000.00000" pt_clust_8="13000.00000" pt_clust_9="66.77298" pt_clust_10="85.63278"></scales>
<clustering>
<clus scale="   66.773">  2  9  1 -1</clus>
<clus scale="   85.633">  1 10  2 -1</clus>
<clus scale="   91.277">  7  8 -1 -1</clus>
<clus scale="   96.013">  5  6 -1 -1</clus>
<clus scale="  116.676">  2  7  1 -1</clus>
<clus scale="   85.633">  1  5  2 -1</clus>
</clustering>
</event>
<event>
10    2  0.1133532E-006  0.1724478E+03  0.7546771E-02  0.1175371E+00
         -1   -1    0    0    0  501 -0.00000000000E+00  0.00000000000E+00  0.12714792553E+03  0.12714792553E+03  0.00000000000E+00 0.  1.
          1   -1    0    0  503    0  0.00000000000E+00 -0.00000000000E+00 -0.53795283494E+03  0.53795283494E+03  0.00000000000E+00 0. -1.
         23    2    1    2    0    0  0.10778391736E+03 -0.13136028283E+03 -0.38853928884E+02  0.19650731339E+03  0.90733674442E+02 0.  0.
         23    2    1    2    0    0 -0.56485884865E+02  0.98576187301E+02 -0.35641838050E+03  0.38502462338E+03  0.91115194984E+02 0.  0.
        -11    1    4    4    0    0 -0.14583302747E+02  0.98787577984E+02 -0.28770869604E+03  0.30454548439E+03  0.00000000000E+00 0. -1.
         11    1    4    4    0    0 -0.41902582118E+02 -0.21139068289E+00 -0.68709684457E+02  0.80479138989E+02  0.00000000000E+00 0.  1.
        -13    1    3    3    0    0  0.44542815919E+02 -0.10286495176E+02 -0.38724119647E+02  0.59911867567E+02  0.00000000000E+00 0. -1.
         13    1    3    3    0    0  0.63241101446E+02 -0.12107378765E+03 -0.12980923653E+00  0.13659544582E+03  0.00000000000E+00 0.  1.
         21    1    1    2  502  501 -0.23444422830E+02  0.62246665591E+01  0.19808623136E+02  0.31317231457E+02  0.00000000000E+00 0. -1.
         21    1    1    2  503  502 -0.27853609669E+02  0.26559428965E+02 -0.35341223162E+02  0.52251592255E+02  0.00000000000E+00 0. -1.
<scales pt_clust_5="13000.00000" pt_clust_6="13000.00000" pt_clust_7="13000.00000" pt_clust_8="13000.00000" pt_clust_9="24.25670" pt_clust_10="40.26819"></scales>
<clustering>
<clus scale="   24.257">  1  9  2 -1</clus>
<clus scale="   40.268">  2 10  1 -1</clus>
<clus scale="   90.734">  7  8 -1 -1</clus>
<clus scale="   91.115">  5  6 -1 -1</clus>
<clus scale="  172.247">  1  7  2 -1</clus>
<clus scale="   40.268">  2  5  1 -1</clus>
</clustering>
</event>
<event>
10    2  0.1133532E-006  0.1026682E+03  0.7546771E-02  0.1278683E+00
         -1   -1    0    0    0  501 -0.00000000000E+00  0.00000000000E+00  0.60183517525E+03  0.60183517525E+03  0.00000000000E+00 0.  1.
          1   -1    0    0  503    0  0.00000000000E+00 -0.00000000000E+00 -0.17202148006E+03  0.17202148006E+03  0.00000000000E+00 0. -1.
         23    2    1    2    0    0 -0.17096578076E+02 -0.31779946713E+02  0.52923931867E+02  0.11287322669E+03  0.92936347814E+02 0.  0.
         23    2    1    2    0    0 -0.77070342878E+01  0.38391489600E+02 -0.40048684525E+02  0.10155468916E+03  0.84712176847E+02 0.  0.
        -13    1    4    4    0    0  0.16416549322E+02  0.12519861231E+02  0.21975439608E+02  0.30152445387E+02  0.00000000000E+00 0.  1.
         13    1    4    4    0    0 -0.24123583610E+02  0.25871628369E+02 -0.62024124133E+02  0.71402243768E+02  0.00000000000E+00 0. -1.
        -13    1    3    3    0    0  0.31137954163E+02 -0.21112086488E+02 -0.36143520510E+01  0.37793596364E+02  0.00000000000E+00 0.  1.
         13    1    3    3    0    0 -0.48234532239E+02 -0.10667860225E+02  0.56538283918E+02  0.75079630330E+02  0.00000000000E+00 0. -1.
         21    1    1    2  502  501  0.59573665833E+02 -0.22013667748E+02  0.48086772266E+03  0.48504369898E+03  0.00000000000E+00 0.  1.
         21    1    1    2  503  502 -0.34770053469E+02  0.15402124861E+02 -0.63929274811E+02  0.74385040475E+02  0.00000000000E+00 0. -1.
<scales pt_clust_5="13000.00000" pt_clust_6="13000.00000" pt_clust_7="13000.00000" pt_clust_8="13000.00000" pt_clust_9="62.74044" pt_clust_10="38.02870"></scales>
<clustering>
<clus scale="   38.029">  2 10  1 -1</clus>
<clus scale="   62.740">  1  9  2 -1</clus>
<clus scale="   84.712">  5  6 -1 -1</clus>
<clus scale="   92.936">  7  8 -1 -1</clus>
<clus scale="   95.288">  2  5  1 -1</clus>
<clus scale="   38.029">  2  5  1 -1</clus>
</clustering>
</event>
<event>
10    2  0.1133532E-006  0.1063785E+03  0.7546771E-02  0.1273116E+00
          1   -1    0    0  503    0  0.00000000000E+00  0.00000000000E+00  0.89247833563E+02  0.89247833563E+02  0.00000000000E+00 0. -1.
         -1   -1    0    0    0  501 -0.00000000000E+00 -0.00000000000E+00 -0.39587444654E+03  0.39587444654E+03  0.00000000000E+00 0.  1.
         23    2    1    2    0    0  0.10211822598E+01 -0.93638188168E+01 -0.28411030041E+03  0.30208577568E+03  0.10221755795E+03 0.  0.
         23    2    1    2    0    0 -0.32992641077E+02  0.44754178664E+02 -0.69805707433E+01  0.10655795432E+03  0.90633428639E+02 0.  0.
        -11    1    3    3    0    0 -0.34207605880E+02 -0.42285890367E+02 -0.15496919463E+03  0.16423674409E+03  0.00000000000E+00 0. -1.
         11    1    3    3    0    0  0.35228788140E+02  0.32922071550E+02 -0.12914110578E+03  0.13784903159E+03  0.00000000000E+00 0.  1.
        -13    1    4    4    0    0 -0.31692454144E+02  0.67099405773E+02  0.14414323441E+02  0.75594408689E+02  0.00000000000E+00 0.  1.
         13    1    4    4    0    0 -0.13001869330E+01 -0.22345227109E+02 -0.21394894185E+02  0.30963545627E+02  0.00000000000E+00 0. -1.
         21    1    1    2  502  501  0.19791249795E+02 -0.86578856458E+01 -0.35077685165E+02  0.41195831692E+02  0.00000000000E+00 0.  1.
         21    1    1    2  503  502  0.12180209022E+02 -0.26732474201E+02  0.19541943345E+02  0.35282718411E+02  0.00000000000E+00 0. -1.
<scales pt_clust_5="13000.00000" pt_clust_6="13000.00000" pt_clust_7="13000.00000" pt_clust_8="13000.00000" pt_clust_9="21.60214" pt_clust_10="29.73213"></scales>
<clustering>
<clus scale="   21.602">  2  9  1 -1</clus>
<clus scale="   29.732">  1 10  2 -1</clus>
<clus scale="   90.633">  7  8 -1 -1</clus>
<clus scale="   95.301">  1  7  2 -1</clus>
<clus scale="  102.218">  5  6 -1 -1</clus>
<clus scale="   29.732">  1  5  2 -1</clus>
</clustering>
</event>
<event>
10    2  0.1133532E-006  0.2435132E+03  0.7546771E-02  0.1155132E+00
          1   -1    0    0  503    0  0.00000000000E+00  0.00000000000E+00  0.24386804299E+03  0.24386804299E+03  0.00000000000E+00 0. -1.
         -1   -1    0    0    0  501 -0.00000000000E+00 -0.00000000000E+00 -0.84694498844E+03  0.84694498844E+03  0.00000000000E+00 0.  1.
         23    2    1    2    0    0 -0.34720765298E+02 -0.13134476593E+02 -0.39424877829E+03  0.40614178904E+03  0.90227532433E+02 0.  0.
         23    2    1    2    0    0 -0.22643844770E+03 -0.16870294560E+03 -0.88128913278E+02  0.31032494995E+03  0.93807327824E+02 0.  0.
        -11    1    3    3    0    0 -0.47917533806E+02 -0.43330419446E+02 -0.26358007343E+03  0.27138177979E+03  0.00000000000E+00 0.  1.
         11    1    3    3    0    0  0.13196768508E+02  0.30195942853E+02 -0.13066870486E+03  0.13476000925E+03  0.00000000000E+00 0. -1.
        -13    1    4    4    0    0 -0.16364138644E+03 -0.16670285492E+03 -0.58242004719E+02  0.24074982100E+03  0.00000000000E+00 0. -1.
         13    1    4    4    0    0 -0.62797061263E+02 -0.20000906797E+01 -0.29886908559E+02  0.69575128956E+02  0.00000000000E+00 0.  1.
         21    1    1    2  502  501  0.14792071329E+03  0.14970100331E+03 -0.14313585095E+03  0.25451679638E+03  0.00000000000E+00 0. -1.
         21    1    1    2  503  502  0.11323849971E+03  0.32136418886E+02  0.22436597060E+02  0.11982949605E+03  0.00000000000E+00 0. -1.
<scales pt_clust_5="13000.00000" pt_clust_6="13000.00000" pt_clust_7="13000.00000" pt_clust_8="13000.00000" pt_clust_9="224.71949" pt_clust_10="113.67908"></scales>
<clustering>
<clus scale="   90.228">  5  6 -1 -1</clus>
<clus scale="   93.807">  7  8 -1 -1</clus>
<clus scale="   97.566">  2  5  1 -1</clus>
<clus scale="  113.679">  1 10  2 -1</clus>
<clus scale="  224.719">  2  9  1 -1</clus>
<clus scale="  113.679">  1  5  2 -1</clus>
</clustering>
</event>
<event>
10    2  0.1133532E-006  0.9555239E+02  0.7546771E-02  0.1291296E+00
         -2   -1    0    0    0  501 -0.00000000000E+00  0.00000000000E+00  0.52636909121E+02  0.52636909121E+02  0.00000000000E+00 0.  1.
          2   -1    0    0  503    0  0.00000000000E+00 -0.00000000000E+00 -0.45567573346E+03  0.45567573346E+03  0.00000000000E+00 0. -1.
         23    2    1    2    0    0 -0.34338763482E+02  0.14916415213E+01 -0.13809936047E+03  0.16835929902E+03  0.89955792094E+02 0.  0.
         23    2    1    2    0    0  0.14521752742E+02 -0.46093935564E+01 -0.23306526249E+03  0.25118978675E+03  0.92437895779E+02 0.  0.
        -11    1    4    4    0    0  0.50393081584E+02 -0.10742640888E+02 -0.91380015268E+02  0.10490554892E+03  0.00000000000E+00 0.  1.
         11    1    4    4    0    0 -0.35871328842E+02  0.61332473315E+01 -0.14168524722E+03  0.14628423782E+03  0.00000000000E+00 0. -1.
        -13    1    3    3    0    0 -0.27904902185E+02  0.30772475609E+02 -0.13116842669E+03  0.13758918919E+03  0.00000000000E+00 0.  1.
         13    1    3    3    0    0 -0.64338612969E+01 -0.29280834088E+02 -0.69309337864E+01  0.30770109834E+02  0.00000000000E+00 0. -1.
         21    1    1    2  502  501  0.17524686704E+02  0.23648759593E+02  0.18192174467E+02  0.34602509825E+02  0.00000000000E+00 0. -1.
         21    1    1    2  503  502  0.22923240354E+01 -0.20531007557E+02 -0.50066375842E+02  0.54161046987E+02  0.00000000000E+00 0. -1.
<scales pt_clust_5="13000.00000" pt_clust_6="13000.00000" pt_clust_7="13000.00000" pt_clust_8="13000.00000" pt_clust_9="29.12808" pt_clust_10="20.65858"></scales>
<clustering>
<clus scale="   20.659">  2 10  1 -1</clus>
<clus scale="   29.128">  1  9  2 -1</clus>
<clus scale="   89.956">  7  8 -1 -1</clus>
<clus scale="   92.438">  5  6 -1 -1</clus>
<clus scale="   93.153">  1  7  2 -1</clus>
<clus scale="   20.659">  2  5  1 -1</clus>
</clustering>
</event>
<event>
10    2  0.1133532E-006  0.2285575E+03  0.7546771E-02  0.1127878E+00
         -2   -1    0    0    0  501 -0.00000000000E+00  0.00000000000E+00  0.89663337269E+03  0.89663337269E+03  0.00000000000E+00 0. -1.
          2   -1    0    0  502    0  0.00000000000E+00 -0.00000000000E+00 -0.24920975986E+03  0.24920975986E+03  0.00000000000E+00 0.  1.
         23    2    1    2    0    0  0.20289834163E+03  0.12006246920E+03  0.57514988097E+03  0.62785322077E+03  0.88428206485E+02 0.  0.
         23    2    1    2    0    0 -0.14538070607E+03 -0.96557215311E+02  0.24181922554E+03  0.31195538918E+03  0.91546608190E+02 0.  0.
        -11    1    4    4    0    0 -0.31910753408E+02  0.17122731123E+02  0.50698059858E+02  0.62303911415E+02  0.00000000000E+00 0. -1.
         11    1    4    4    0    0 -0.11346995267E+03 -0.11367994643E+03  0.19112116568E+03  0.24965147777E+03  0.00000000000E+00 0.  1.
        -13    1    3    3    0    0  0.80701665726E+02  0.81024125892E+01  0.25121841453E+03  0.26398693101E+03  0.00000000000E+00 0.  1.
         13    1    3    3    0    0  0.12219667591E+03  0.11196005661E+03  0.32393146644E+03  0.36386628976E+03  0.00000000000E+00 0. -1.
         21    1    1    2  502  503 -0.13066739001E+02 -0.22323683917E+02  0.46253697279E+01  0.26276997105E+02  0.00000000000E+00 0.  1.
         21    1    1    2  503  501 -0.44450896558E+02 -0.11815699692E+01 -0.17417086341E+03  0.17975752550E+03  0.00000000000E+00 0.  1.
<scales pt_clust_5="13000.00000" pt_clust_6="13000.00000" pt_clust_7="13000.00000" pt_clust_8="13000.00000" pt_clust_9="25.86671" pt_clust_10="56.98699"></scales>
<clustering>
<clus scale="   25.867">  2  9  1 -1</clus>
<clus scale="   56.987">  2 10  1 -1</clus>
<clus scale="   88.428">  7  8 -1 -1</clus>
<clus scale="   91.547">  5  6 -1 -1</clus>
<clus scale="  227.326">  1  7  2 -1</clus>
<clus scale="   25.867">  2  5  1 -1</clus>
</clustering>
</event>
<event>
10    2  0.1133532E-006  0.9682392E+02  0.7546771E-02  0.1289104E+00
          2   -1    0    0  503    0  0.00000000000E+00  0.00000000000E+00  0.27678274164E+03  0.27678274164E+03  0.00000000000E+00 0. -1.
         -2   -1    0    0    0  501 -0.00000000000E+00 -0.00000000000E+00 -0.21322848753E+03  0.21322848753E+03  0.00000000000E+00 0.  1.
         23    2    1    2    0    0  0.27859219771E+02  0.36141246967E+02 -0.68985273958E+02  0.12112752879E+03  0.88490589050E+02 0.  0.
         23    2    1    2    0    0 -0.35385341902E+02 -0.22475630595E+02  0.69296763549E+02  0.12273178351E+03  0.92215903473E+02 0.  0.
        -13    1    3    3    0    0 -0.55949033581E+00 -0.22366299100E+02 -0.47704575835E+02  0.52690520214E+02  0.00000000000E+00 0.  1.
         13    1    3    3    0    0  0.28418710106E+02  0.58507546067E+02 -0.21280698123E+02  0.68437008581E+02  0.00000000000E+00 0. -1.
        -13    1    4    4    0    0 -0.35190946976E+02 -0.52365126106E+02  0.68076744675E+02  0.92816767595E+02  0.00000000000E+00 0.  1.
         13    1    4    4    0    0 -0.19439492579E+00  0.29889495510E+02  0.12200188741E+01  0.29915015917E+02  0.00000000000E+00 0. -1.
         21    1    1    2  502  501 -0.12643382548E+02 -0.23887400898E+02 -0.88602149597E+02  0.92632629009E+02  0.00000000000E+00 0.  1.
         21    1    1    2  503  502  0.20169504679E+02  0.10221784527E+02  0.15184491412E+03  0.15351928785E+03  0.00000000000E+00 0. -1.
<scales pt_clust_5="13000.00000" pt_clust_6="13000.00000" pt_clust_7="13000.00000" pt_clust_8="13000.00000" pt_clust_9="26.72799" pt_clust_10="22.61181"></scales>
<clustering>
<clus scale="   22.612">  1 10  2 -1</clus>
<clus scale="   26.728">  2  9  1 -1</clus>
<clus scale="   88.491">  5  6 -1 -1</clus>
<clus scale="   92.216">  7  8 -1 -1</clus>
<clus scale="   93.283">  2  5  1 -1</clus>
<clus scale="   22.612">  1  5  2 -1</clus>
</clustering>
</event>
<event>
10    2  0.1133532E-006  0.2603619E+03  0.7546771E-02  0.1107007E+00
          1   -1    0    0  503    0  0.00000000000E+00  0.00000000000E+00  0.11754550226E+04  0.11754550226E+04  0.00000000000E+00 0. -1.
         -1   -1    0    0    0  501 -0.00000000000E+00 -0.00000000000E+00 -0.30820527458E+03  0.30820527458E+03  0.00000000000E+00 0.  1.
         23    2    1    2    0    0  0.20613797852E+03  0.90497149952E+01 -0.53047541373E+02  0.23152687725E+03  0.90641545174E+02 0.  0.
         23    2    1    2    0    0 -0.29764981679E+03 -0.19771024486E+03  0.12678942496E+03  0.38948049953E+03  0.89077196143E+02 0.  0.
        -13    1    4    4    0    0 -0.22737962205E+03 -0.11200530471E+03  0.11396467823E+03  0.27791118850E+03  0.00000000000E+00 0.  1.
         13    1    4    4    0    0 -0.70270194736E+02 -0.85704940155E+02  0.12824746730E+02  0.11156931103E+03  0.00000000000E+00 0. -1.
        -13    1    3    3    0    0  0.11342815756E+03 -0.37222608580E+02 -0.45071559872E+02  0.12760452588E+03  0.00000000000E+00 0.  1.
         13    1    3    3    0    0  0.92709820964E+02  0.46272323575E+02 -0.79759815015E+01  0.10392235136E+03  0.00000000000E+00 0. -1.
         21    1    1    2  502  501  0.10895496513E+02  0.21155504042E+02 -0.18182366316E+02  0.29947715111E+02  0.00000000000E+00 0. -1.
         21    1    1    2  503  502  0.80616341755E+02  0.16750502582E+03  0.81169023078E+03  0.83270520532E+03  0.00000000000E+00 0. -1.
<scales pt_clust_5="13000.00000" pt_clust_6="13000.00000" pt_clust_7="13000.00000" pt_clust_8="13000.00000" pt_clust_9="23.79637" pt_clust_10="186.77461"></scales>
<clustering>
<clus scale="   23.796">  2  9  1 -1</clus>
<clus scale="   89.077">  5  6 -1 -1</clus>
<clus scale="   90.642">  7  8 -1 -1</clus>
<clus scale="  186.775">  1 10  2 -1</clus>
<clus scale="  259.821">  1  5  2 -1</clus>
<clus scale="  186.775">  1  5  2 -1</clus>
</clustering>
</event>
<event>
10    2  0.1133532E-006  0.1507782E+03  0.7546771E-02  0.1200933E+00
          1   -1    0    0  503    0  0.00000000000E+00  0.00000000000E+00  0.26507113563E+03  0.26507113563E+03  0.00000000000E+00 0. -1.
         -1   -1    0    0    0  501 -0.00000000000E+00 -0.00000000000E+00 -0.24618957804E+03  0.24618957804E+03  0.00000000000E+00 0.  1.
         23    2    1    2    0    0  0.13231988775E+02 -0.13894490570E+03  0.19784335876E+02  0.16755757780E+03  0.90572344469E+02 0.  0.
         23    2    1    2    0    0 -0.39856881073E+02  0.83761593734E+02  0.95124967307E+02  0.16495342182E+03  0.97756311362E+02 0.  0.
        -11    1    4    4    0    0 -0.48106662549E+02  0.16909038394E+02  0.81641572146E+02  0.96257534061E+02  0.00000000000E+00 0. -1.
         11    1    4    4    0    0  0.82497814766E+01  0.66852555340E+02  0.13483395161E+02  0.68695887759E+02  0.00000000000E+00 0.  1.
        -13    1    3    3    0    0 -0.17170224585E+02 -0.87576895844E+02  0.48221879981E+02  0.10143904084E+03  0.00000000000E+00 0.  1.
         13    1    3    3    0    0  0.30402213360E+02 -0.51368009860E+02 -0.28437544106E+02  0.66118536954E+02  0.00000000000E+00 0. -1.
         21    1    1    2  502  501  0.11913892495E+01  0.21356386406E+02 -0.12541478665E+03  0.12722571815E+03  0.00000000000E+00 0.  1.
         21    1    1    2  503  502  0.25433503048E+02  0.33826925565E+02  0.29387041067E+02  0.51523995896E+02  0.00000000000E+00 0.  1.
<scales pt_clust_5="13000.00000" pt_clust_6="13000.00000" pt_clust_7="13000.00000" pt_clust_8="13000.00000" pt_clust_9="21.38959" pt_clust_10="43.97766"></scales>
<clustering>
<clus scale="   21.390">  2  9  1 -1</clus>
<clus scale="   43.978">  1 10  2 -1</clus>
<clus scale="   90.572">  7  8 -1 -1</clus>
<clus scale="   97.756">  5  6 -1 -1</clus>
<clus scale="  146.223">  2  7  1 -1</clus>
<clus scale="   43.978">  1  5  2 -1</clus>
</clustering>
</event>
<event>
10    2  0.1133532E-006  0.1018299E+03  0.7546771E-02  0.1278437E+00
          1   -1    0    0  502    0  0.00000000000E+00  0.00000000000E+00  0.91419883771E+02  0.91419883771E+02  0.00000000000E+00 0. -1.
         -1   -1    0    0    0  501 -0.00000000000E+00 -0.00000000000E+00 -0.22897946403E+03  0.22897946403E+03  0.00000000000E+00 0.  1.
         23    2    1    2    0    0  0.49829762189E+02  0.18413072193E+01 -0.13163653752E+03  0.16931946395E+03  0.94098391334E+02 0.  0.
         23    2    1    2    0    0 -0.13583051103E+02 -0.25925712974E+02 -0.23265627502E+02  0.97521473857E+02  0.90069454144E+02 0.  0.
        -13    1    3    3    0    0 -0.16810986158E+02 -0.19768799206E+02 -0.78985469089E+01  0.27125665354E+02  0.00000000000E+00 0. -1.
         13    1    3    3    0    0  0.66640748347E+02  0.21610106425E+02 -0.12373799061E+03  0.14219379860E+03  0.00000000000E+00 0.  1.
        -13    1    4    4    0    0  0.31995305567E+02 -0.35713782906E+02 -0.91615999596E+01  0.48817095177E+02  0.00000000000E+00 0.  1.
         13    1    4    4    0    0 -0.45578356669E+02  0.97880699314E+01 -0.14104027542E+02  0.48704378680E+02  0.00000000000E+00 0. -1.
         21    1    1    2  502  503 -0.20041695914E+02  0.57052140607E+01 -0.38158223000E+01  0.21184417444E+02  0.00000000000E+00 0. -1.
         21    1    1    2  503  501 -0.16205015171E+02  0.18379191694E+02  0.21158407061E+02  0.32373992547E+02  0.00000000000E+00 0. -1.
<scales pt_clust_5="13000.00000" pt_clust_6="13000.00000" pt_clust_7="13000.00000" pt_clust_8="13000.00000" pt_clust_9="20.83792" pt_clust_10="30.39455"></scales>
<clustering>
<clus scale="   20.838">  1  9  2 -1</clus>
<clus scale="   30.395">  1 10  2 -1</clus>
<clus scale="   90.069">  7  8 -1 -1</clus>
<clus scale="   94.098">  5  6 -1 -1</clus>
<clus scale="   98.119">  1  7  2 -1</clus>
<clus scale="   20.838">  1  5  2 -1</clus>
</clustering>
</event>
<event>
10    2  0.1133532E-006  0.1373340E+03  0.7546771E-02  0.1220961E+00
          1   -1    0    0  503    0  0.00000000000E+00  0.00000000000E+00  0.48849236624E+03  0.48849236624E+03  0.00000000000E+00 0. -1.
         -1   -1    0    0    0  501 -0.00000000000E+00 -0.00000000000E+00 -0.16439679115E+03  0.16439679115E+03  0.00000000000E+00 0.  1.
         23    2    1    2    0    0 -0.56338274387E+02  0.15900041815E+03 -0.11945890834E+02  0.19941252343E+03  0.10567646880E+03 0.  0.
         23    2    1    2    0    0  0.46841430935E+02 -0.45445392423E+02  0.15612274298E+03  0.19204341912E+03  0.90812777771E+02 0.  0.
        -11    1    3    3    0    0  0.36426283398E+01  0.11485768781E+03 -0.37179577891E+02  0.12078028897E+03  0.00000000000E+00 0.  1.
         11    1    3    3    0    0 -0.59980902727E+02  0.44142730341E+02  0.25233687057E+02  0.78632234461E+02  0.00000000000E+00 0. -1.
        -11    1    4    4    0    0  0.23026325726E+02 -0.68373960047E+02  0.13423664847E+03  0.15239648251E+03  0.00000000000E+00 0. -1.
         11    1    4    4    0    0  0.23815105209E+02  0.22928567624E+02  0.21886094504E+02  0.39646936603E+02  0.00000000000E+00 0.  1.
         21    1    1    2  502  501 -0.13336554146E+02 -0.10815294939E+03  0.34747381808E+02  0.11437790294E+03  0.00000000000E+00 0. -1.
         21    1    1    2  503  502  0.22833397598E+02 -0.54020763435E+01  0.14517134113E+03  0.14705531191E+03  0.00000000000E+00 0.  1.
<scales pt_clust_5="13000.00000" pt_clust_6="13000.00000" pt_clust_7="13000.00000" pt_clust_8="13000.00000" pt_clust_9="109.64887" pt_clust_10="23.46373"></scales>
<clustering>
<clus scale="   23.464">  1 10  2 -1</clus>
<clus scale="   90.813">  7  8 -1 -1</clus>
<clus scale="  105.676">  5  6 -1 -1</clus>
<clus scale="  109.649">  2  9  1 -1</clus>
<clus scale="  126.254">  1  7  2 -1</clus>
<clus scale="   23.464">  1  5  2 -1</clus>
</clustering>
</event>
<event>
10    2  0.1133532E-006  0.2126956E+03  0.7546771E-02  0.1142873E+00
         -1   -1    0    0    0  501 -0.00000000000E+00  0.00000000000E+00  0.23658735618E+03  0.23658735618E+03  0.00000000000E+00 0.  1.
          1   -1    0    0  503    0  0.00000000000E+00 -0.00000000000E+00 -0.46481809403E+03  0.46481809403E+03  0.00000000000E+00 0. -1.
         23    2    1    2    0    0  0.46680910560E+02 -0.16888550763E+03 -0.22559583080E+02  0.21615654081E+03  0.12455237150E+03 0.  0.
         23    2    1    2    0    0 -0.23171976618E+02  0.16296781182E+03 -0.12049742025E+03  0.22417372656E+03  0.92945054762E+02 0.  0.
        -11    1    3    3    0    0  0.83400858217E+02 -0.15439026560E+03 -0.17217362803E+02  0.17631929799E+03  0.00000000000E+00 0.  1.
         11    1    3    3    0    0 -0.36719947657E+02 -0.14495242035E+02 -0.53422202776E+01  0.39837242815E+02  0.00000000000E+00 0. -1.
        -13    1    4    4    0    0 -0.47862833397E+02  0.15586837670E+03 -0.99680026703E+02  0.19110706266E+03  0.00000000000E+00 0. -1.
         13    1    4    4    0    0  0.24690856779E+02  0.70994351204E+01 -0.20817393544E+02  0.33066663900E+02  0.00000000000E+00 0.  1.
         21    1    1    2  502  501  0.27732657268E+02 -0.34428176916E+01  0.81654387744E+02  0.86304068911E+02  0.00000000000E+00 0.  1.
         21    1    1    2  503  502 -0.51241591209E+02  0.93605135031E+01 -0.16682812227E+03  0.17477111392E+03  0.00000000000E+00 0. -1.
<scales pt_clust_5="13000.00000" pt_clust_6="13000.00000" pt_clust_7="13000.00000" pt_clust_8="13000.00000" pt_clust_9="27.94554" pt_clust_10="51.36348"></scales>
<clustering>
<clus scale="   27.946">  1  9  2 -1</clus>
<clus scale="   51.363">  2 10  1 -1</clus>
<clus scale="   92.945">  7  8 -1 -1</clus>
<clus scale="  124.552">  5  6 -1 -1</clus>
<clus scale="  195.870">  2  7  1 -1</clus>
<clus scale="   51.363">  2  5  1 -1</clus>
</clustering>
</event>
<event>
10    2  0.1133532E-006  0.1385094E+03  0.7546771E-02  0.1215894E+00
          1   -1    0    0  503    0  0.00000000000E+00  0.00000000000E+00  0.25505454526E+03  0.25505454526E+03  0.00000000000E+00 0. -1.
         -1   -1    0    0    0  501 -0.00000000000E+00 -0.00000000000E+00 -0.27471921638E+03  0.27471921638E+03  0.00000000000E+00 0.  1.
         23    2    1    2    0    0  0.13219696994E+03 -0.92965345771E+02 -0.72766228009E+02  0.19993397259E+03  0.92520673805E+02 0.  0.
         23    2    1    2    0    0 -0.27606581957E+02  0.60709028784E+02  0.79372353591E+02  0.13736876584E+03  0.90124900940E+02 0.  0.
        -11    1    3    3    0    0  0.40959619881E+02  0.15959522992E+02 -0.13541813503E+02  0.45997581979E+02  0.00000000000E+00 0. -1.
         11    1    3    3    0    0  0.91237350058E+02 -0.10892486876E+03 -0.59224414506E+02  0.15393639061E+03  0.00000000000E+00 0.  1.
        -13    1    4    4    0    0 -0.17070574132E+02  0.83170424501E+02  0.48561232994E+02  0.97810619887E+02  0.00000000000E+00 0. -1.
         13    1    4    4    0    0 -0.10536007824E+02 -0.22461395717E+02  0.30811120597E+02  0.39558145948E+02  0.00000000000E+00 0.  1.
         21    1    1    2  502  501 -0.65050699426E+02  0.11217151211E+02 -0.91817422146E+02  0.11308340721E+03  0.00000000000E+00 0.  1.
         21    1    1    2  503  502 -0.39539688556E+02  0.21039165776E+02  0.65546625445E+02  0.79387616004E+02  0.00000000000E+00 0. -1.
<scales pt_clust_5="13000.00000" pt_clust_6="13000.00000" pt_clust_7="13000.00000" pt_clust_8="13000.00000" pt_clust_9="68.49291" pt_clust_10="44.78876"></scales>
<clustering>
<clus scale="   44.789">  1 10  2 -1</clus>
<clus scale="   68.493">  2  9  1 -1</clus>
<clus scale="   90.125">  7  8 -1 -1</clus>
<clus scale="   92.521">  5  6 -1 -1</clus>
<clus scale="  136.921">  1  7  2 -1</clus>
<clus scale="   44.789">  1  5  2 -1</clus>
</clustering>
</event>
<event>
10    2  0.1133532E-006  0.1895752E+03  0.7546771E-02  0.1159028E+00
          1   -1    0    0  503    0  0.00000000000E+00  0.00000000000E+00  0.75918307186E+03  0.75918307186E+03  0.00000000000E+00 0. -1.
         -1   -1    0    0    0  501 -0.00000000000E+00 -0.00000000000E+00 -0.19023393618E+03  0.19023393618E+03  0.00000000000E+00 0.  1.
         23    2    1    2    0    0 -0.17648305673E+03  0.73554583734E+02 -0.71631534077E+02  0.22435708583E+03  0.92997199879E+02 0.  0.
         23    2    1    2    0    0  0.12601786883E+03 -0.69132894689E+02  0.56212182817E+03  0.58735265766E+03  0.91336380219E+02 0.  0.
        -11    1    3    3    0    0 -0.13599830548E+03  0.95860717264E+02 -0.56628468419E+02  0.17576006271E+03  0.00000000000E+00 0.  1.
         11    1    3    3    0    0 -0.40484751255E+02 -0.22306133530E+02 -0.15003065658E+02  0.48597023122E+02  0.00000000000E+00 0. -1.
        -13    1    4    4    0    0  0.55437704490E+02 -0.70978090913E+02  0.40809362684E+03  0.41791343211E+03  0.00000000000E+00 0.  1.
         13    1    4    4    0    0  0.70580164343E+02  0.18451962243E+01  0.15402820133E+03  0.16943922554E+03  0.00000000000E+00 0. -1.
         21    1    1    2  502  501  0.20336719488E+02 -0.19331514200E+02 -0.19481379595E+02  0.34158655590E+02  0.00000000000E+00 0.  1.
         21    1    1    2  503  502  0.30128468412E+02  0.14909825154E+02  0.97940221177E+02  0.10354860897E+03  0.00000000000E+00 0.  1.
<scales pt_clust_5="13000.00000" pt_clust_6="13000.00000" pt_clust_7="13000.00000" pt_clust_8="13000.00000" pt_clust_9="28.05868" pt_clust_10="33.78455"></scales>
<clustering>
<clus scale="   28.059">  2  9  1 -1</clus>
<clus scale="   33.785">  1 10  2 -1</clus>
<clus scale="   91.336">  7  8 -1 -1</clus>
<clus scale="   92.997">  5  6 -1 -1</clus>
<clus scale="  188.766">  1  7  2 -1</clus>
<clus scale="   33.785">  1  5  2 -1</clus>
</clustering>
</event>
<event>
10    2  0.1133532E-006  0.3428207E+03  0.7546771E-02  0.1065737E+00
         -1   -1    0    0    0  501 -0.00000000000E+00  0.00000000000E+00  0.16879208855E+03  0.16879208855E+03  0.00000000000E+00 0.  1.
          1   -1    0    0  503    0  0.00000000000E+00 -0.00000000000E+00 -0.12708122615E+04  0.12708122615E+04  0.00000000000E+00 0. -1.
         23    2    1    2    0    0 -0.13534261361E+03 -0.32389080403E+03 -0.12608733966E+03  0.38506036737E+03  0.95658733511E+02 0.  0.
         23    2    1    2    0    0  0.88598360645E+02  0.28451154801E+03 -0.80678068111E+03  0.86484796849E+03  0.90942018543E+02 0.  0.
        -11    1    4    4    0    0  0.56757062669E+02  0.52509274252E+02 -0.19317582664E+03  0.20807567864E+03  0.00000000000E+00 0.  1.
         11    1    4    4    0    0  0.31841297976E+02  0.23200227376E+03 -0.61360485447E+03  0.65677228985E+03  0.00000000000E+00 0. -1.
        -13    1    3    3    0    0  0.13899094137E+02 -0.20978971522E+02 -0.17896679732E+01  0.25229050228E+02  0.00000000000E+00 0. -1.
         13    1    3    3    0    0 -0.14924170774E+03 -0.30291183251E+03 -0.12429767169E+03  0.35983131714E+03  0.00000000000E+00 0.  1.
         21    1    1    2  502  501 -0.63832910765E+01  0.20455511390E+02 -0.16764237615E+02  0.27206874389E+02  0.00000000000E+00 0.  1.
         21    1    1    2  503  502  0.53127544038E+02  0.18923744633E+02 -0.15238791461E+03  0.16248913984E+03  0.00000000000E+00 0. -1.
<scales pt_clust_5="13000.00000" pt_clust_6="13000.00000" pt_clust_7="13000.00000" pt_clust_8="13000.00000" pt_clust_9="21.42835" pt_clust_10="56.42733"></scales>
<clustering>
<clus scale="   21.428">  1  9  2 -1</clus>
<clus scale="   56.427">  2 10  1 -1</clus>
<clus scale="   90.942">  5  6 -1 -1</clus>
<clus scale="   95.659">  7  8 -1 -1</clus>
<clus scale="  341.535">  2  5  1 -1</clus>
<clus scale="   56.427">  2  5  1 -1</clus>
</clustering>
</event>
<event>
10    2  0.1133532E-006  0.1042817E+03  0.7546771E-02  0.1282701E+00
         -1   -1    0    0    0  501 -0.00000000000E+00  0.00000000000E+00  0.30640585986E+03  0.30640585986E+03  0.00000000000E+00 0.  1.
          1   -1    0    0  503    0  0.00000000000E+00 -0.00000000000E+00 -0.87535507245E+02  0.87535507245E+02  0.00000000000E+00 0. -1.
         23    2    1    2    0    0  0.49765453561E+02 -0.12858819877E+02  0.24389856395E+03  0.26616614677E+03  0.93359298252E+02 0.  0.
         23    2    1    2    0    0 -0.23221649092E+02  0.72684698590E+01 -0.22283289283E+02  0.77635112601E+02  0.70275102893E+02 0.  0.
        -11    1    4    4    0    0  0.15425968896E+02 -0.14473466224E+02  0.93882026698E+01  0.23142603360E+02  0.00000000000E+00 0.  1.
         11    1    4    4    0    0 -0.38647617988E+02  0.21741936083E+02 -0.31671491953E+02  0.54492509241E+02  0.00000000000E+00 0. -1.
        -13    1    3    3    0    0 -0.80630972218E+01 -0.40443670234E+02  0.11608831540E+03  0.12319578309E+03  0.00000000000E+00 0.  1.
         13    1    3    3    0    0  0.57828550783E+02  0.27584850357E+02  0.12781024855E+03  0.14297036368E+03  0.00000000000E+00 0. -1.
         21    1    1    2  502  501 -0.10647600780E+02  0.23660625852E+02 -0.25633230896E+01  0.26072346334E+02  0.00000000000E+00 0.  1.
         21    1    1    2  503  502 -0.15896203689E+02 -0.18070275834E+02 -0.18159897180E+00  0.24067761397E+02  0.00000000000E+00 0.  1.
<scales pt_clust_5="13000.00000" pt_clust_6="13000.00000" pt_clust_7="13000.00000" pt_clust_8="13000.00000" pt_clust_9="24.41298" pt_clust_10="24.06708"></scales>
<clustering>
<clus scale="   24.067">  2 10  1 -1</clus>
<clus scale="   24.413">  2  9  1 -1</clus>
<clus scale="   70.275">  5  6 -1 -1</clus>
<clus scale="   84.245">  2  5  1 -1</clus>
<clus scale="   93.359">  7  8 -1 -1</clus>
<clus scale="   24.067">  2  5  1 -1</clus>
</clustering>
</event>
<event>
10    2  0.1133532E-006  0.2589166E+03  0.7546771E-02  0.1107815E+00
         -3   -1    0    0    0  501 -0.00000000000E+00  0.00000000000E+00  0.65208190636E+03  0.65208190636E+03  0.00000000000E+00 0.  1.
          3   -1    0    0  502    0  0.00000000000E+00 -0.00000000000E+00 -0.18357533988E+03  0.18357533988E+03  0.00000000000E+00 0. -1.
         23    2    1    2    0    0  0.48997926449E+02  0.20586601664E+03  0.41027127990E+03  0.47058441806E+03  0.91354024612E+02 0.  0.
         23    2    1    2    0    0 -0.66283570470E+02 -0.24159571616E+03 -0.26718861433E+02  0.26811421218E+03  0.91702406922E+02 0.  0.
        -11    1    3    3    0    0  0.28799358372E+02  0.12316882341E+03  0.33066987711E+03  0.35403746939E+03  0.00000000000E+00 0.  1.
         11    1    3    3    0    0  0.20198568078E+02  0.82697193222E+02  0.79601402786E+02  0.11654694867E+03  0.00000000000E+00 0. -1.
        -13    1    4    4    0    0 -0.74036900118E+01 -0.12579217278E+03 -0.51022604769E+02  0.13594775304E+03  0.00000000000E+00 0.  1.
         13    1    4    4    0    0 -0.58879880458E+02 -0.11580354338E+03  0.24303743335E+02  0.13216645914E+03  0.00000000000E+00 0. -1.
         21    1    1    2  502  503  0.20914736072E+02  0.15143730412E+02  0.46193994632E+02  0.52921110115E+02  0.00000000000E+00 0.  1.
         21    1    1    2  503  501 -0.36290920518E+01  0.20585969113E+02  0.38760153381E+02  0.44037505874E+02  0.00000000000E+00 0.  1.
<scales pt_clust_5="13000.00000" pt_clust_6="13000.00000" pt_clust_7="13000.00000" pt_clust_8="13000.00000" pt_clust_9="26.60667" pt_clust_10="20.90341"></scales>
<clustering>
<clus scale="   20.903">  1 10  2 -1</clus>
<clus scale="   26.607">  1  9  2 -1</clus>
<clus scale="   91.354">  5  6 -1 -1</clus>
<clus scale="   91.702">  7  8 -1 -1</clus>
<clus scale="  258.793">  1  5  2 -1</clus>
<clus scale="  258.917">  2  5  1 -1</clus>
</clustering>
</event>
<event>
10    2  0.1133532E-006  0.1582447E+03  0.7546771E-02  0.1190792E+00
         -3   -1    0    0    0  501 -0.00000000000E+00  0.00000000000E+00  0.18116496276E+03  0.18116496276E+03  0.00000000000E+00 0.  1.
          3   -1    0    0  503    0  0.00000000000E+00 -0.00000000000E+00 -0.25632119468E+03  0.25632119468E+03  0.00000000000E+00 0. -1.
         23    2    1    2    0    0 -0.95835032475E+02  0.11241567114E+03  0.64861983126E+02  0.18414128962E+03  0.88765427502E+02 0.  0.
         23    2    1    2    0    0  0.87083704011E+02 -0.59180084943E+02 -0.93164576725E+02  0.16593774630E+03  0.88146714806E+02 0.  0.
        -11    1    3    3    0    0 -0.40852569076E+02  0.28123706382E+02 -0.19029281306E+02  0.53122394598E+02  0.00000000000E+00 0. -1.
         11    1    3    3    0    0 -0.54982463400E+02  0.84291964761E+02  0.83891264432E+02  0.13101889502E+03  0.00000000000E+00 0.  1.
        -13    1    4    4    0    0  0.13834448238E+02 -0.34338359663E+02 -0.79083231457E+02  0.87319370131E+02  0.00000000000E+00 0. -1.
         13    1    4    4    0    0  0.73249255773E+02 -0.24841725281E+02 -0.14081345268E+02  0.78618376165E+02  0.00000000000E+00 0.  1.
         21    1    1    2  502  501 -0.15160558625E+02 -0.21808715479E+02 -0.57044644386E+00  0.26566671184E+02  0.00000000000E+00 0. -1.
         21    1    1    2  503  502  0.23911887089E+02 -0.31426870721E+02 -0.46283191873E+02  0.60840450339E+02  0.00000000000E+00 0. -1.
<scales pt_clust_5="13000.00000" pt_clust_6="13000.00000" pt_clust_7="13000.00000" pt_clust_8="13000.00000" pt_clust_9="26.56055" pt_clust_10="39.85846"></scales>
<clustering>
<clus scale="   26.561">  1  9  2 -1</clus>
<clus scale="   39.858">  2 10  1 -1</clus>
<clus scale="   88.147">  7  8 -1 -1</clus>
<clus scale="   88.765">  5  6 -1 -1</clus>
<clus scale="  157.898">  2  7  1 -1</clus>
<clus scale="   39.858">  2  5  1 -1</clus>
</clustering>
</event>
<event>
10    2  0.1133532E-006  0.1015896E+03  0.7546771E-02  0.1278597E+00
          3   -1    0    0  503    0  0.00000000000E+00  0.00000000000E+00  0.16526343595E+03  0.16526343595E+03  0.00000000000E+00 0. -1.
         -3   -1    0    0    0  501 -0.00000000000E+00 -0.00000000000E+00 -0.19548169110E+03  0.19548169110E+03  0.00000000000E+00 0.  1.
         23    2    1    2    0    0 -0.67402647301E+01 -0.21717693927E+02 -0.98246927744E+01  0.90776913158E+02  0.87331746669E+02 0.  0.
         23    2    1    2    0    0  0.21579075444E+02  0.67599038919E+02  0.98281901141E+01  0.11564442682E+03  0.90784104189E+02 0.  0.
        -13    1    3    3    0    0  0.26169033304E+02 -0.22890204051E+02 -0.34994282061E+02  0.49329296797E+02  0.00000000000E+00 0.  1.
         13    1    3    3    0    0 -0.32909298034E+02  0.11725101236E+01  0.25169589287E+02  0.41447616360E+02  0.00000000000E+00 0. -1.
        -13    1    4    4    0    0 -0.35830375031E+02  0.24572532754E+02  0.23112896117E+01  0.43508242903E+02  0.00000000000E+00 0. -1.
         13    1    4    4    0    0  0.57409450476E+02  0.43026506166E+02  0.75169005024E+01  0.72136183916E+02  0.00000000000E+00 0.  1.
         21    1    1    2  502  501  0.28915411464E+01 -0.30966494764E+02 -0.87325540606E+02  0.92698623778E+02  0.00000000000E+00 0. -1.
         21    1    1    2  503  502 -0.17730351861E+02 -0.14914850228E+02  0.57103788111E+02  0.61625163294E+02  0.00000000000E+00 0. -1.
<scales pt_clust_5="13000.00000" pt_clust_6="13000.00000" pt_clust_7="13000.00000" pt_clust_8="13000.00000" pt_clust_9="31.43983" pt_clust_10="23.16934"></scales>
<clustering>
<clus scale="   23.169">  1 10  2 -1</clus>
<clus scale="   31.440">  2  9  1 -1</clus>
<clus scale="   87.332">  5  6 -1 -1</clus>
<clus scale="   90.784">  7  8 -1 -1</clus>
<clus scale="   98.517">  2  5  1 -1</clus>
<clus scale="   23.169">  1  5  2 -1</clus>
</clustering>
</event>
<event>
10    2  0.1133532E-006  0.1466469E+03  0.7546771E-02  0.1204765E+00
         -1   -1    0    0    0  501 -0.00000000000E+00  0.00000000000E+00  0.17325869184E+03  0.17325869184E+03  0.00000000000E+00 0.  1.
          1   -1    0    0  503    0  0.00000000000E+00 -0.00000000000E+00 -0.21277376779E+03  0.21277376779E+03  0.00000000000E+00 0. -1.
         23    2    1    2    0    0  0.10437327342E+03 -0.20778352915E+02  0.12564323190E+02  0.14138933087E+03  0.92236438100E+02 0.  0.
         23    2    1    2    0    0 -0.11168095375E+03  0.71284586630E+02 -0.68619154687E+02  0.17512333446E+03  0.91681329398E+02 0.  0.
        -13    1    3    3    0    0  0.48080564782E+02 -0.15645416733E+02  0.51950979594E+02  0.72494303606E+02  0.00000000000E+00 0.  1.
         13    1    3    3    0    0  0.56292708634E+02 -0.51329361822E+01 -0.39386656404E+02  0.68895027266E+02  0.00000000000E+00 0. -1.
        -13    1    4    4    0    0 -0.71419768521E+02 -0.82345656454E+01 -0.33651063861E+02  0.79378747193E+02  0.00000000000E+00 0.  1.
         13    1    4    4    0    0 -0.40261185232E+02  0.79519152276E+02 -0.34968090826E+02  0.95744587267E+02  0.00000000000E+00 0. -1.
         21    1    1    2  502  501 -0.11923724052E+02 -0.30965042226E+02  0.24181010958E+02  0.41057646381E+02  0.00000000000E+00 0. -1.
         21    1    1    2  503  502  0.19231404388E+02 -0.19541191489E+02 -0.76412554110E+01  0.28462147912E+02  0.00000000000E+00 0.  1.
<scales pt_clust_5="13000.00000" pt_clust_6="13000.00000" pt_clust_7="13000.00000" pt_clust_8="13000.00000" pt_clust_9="33.68961" pt_clust_10="27.41724"></scales>
<clustering>
<clus scale="   27.417">  2 10  1 -1</clus>
<clus scale="   33.690">  1  9  2 -1</clus>
<clus scale="   91.681">  7  8 -1 -1</clus>
<clus scale="   92.236">  5  6 -1 -1</clus>
<clus scale="  146.298">  2  7  1 -1</clus>
<clus scale="   27.417">  2  5  1 -1</clus>
</clustering>
</event>
<event>
10    2  0.1133532E-006  0.1055238E+03  0.7546771E-02  0.1269399E+00
         -3   -1    0    0    0  501 -0.00000000000E+00  0.00000000000E+00  0.42728174022E+03  0.42728174022E+03  0.00000000000E+00 0.  1.
          3   -1    0    0  503    0  0.00000000000E+00 -0.00000000000E+00 -0.50618242068E+02  0.50618242068E+02  0.00000000000E+00 0. -1.
         23    2    1    2    0    0  0.72099114904E+02 -0.13850921033E+02  0.16843634786E+03  0.20529271577E+03  0.91565088771E+02 0.  0.
         23    2    1    2    0    0 -0.32447964273E+02  0.27054679553E+01  0.61720597812E+02  0.11455023895E+03  0.90841263243E+02 0.  0.
        -13    1    3    3    0    0  0.26788969259E+02 -0.51267088892E+02  0.95207624545E+02  0.11140222192E+03  0.00000000000E+00 0.  1.
         13    1    3    3    0    0  0.45310145645E+02  0.37416167860E+02  0.73228723318E+02  0.93890493845E+02  0.00000000000E+00 0. -1.
        -13    1    4    4    0    0  0.24345693258E+02  0.75382612882E+01 -0.58508596267E+01  0.26149009959E+02  0.00000000000E+00 0.  1.
         13    1    4    4    0    0 -0.56793657531E+02 -0.48327933329E+01  0.67571457439E+02  0.88401228994E+02  0.00000000000E+00 0. -1.
         21    1    1    2  502  501 -0.18418089659E+02  0.10443870986E+02  0.12842713607E+03  0.13016078422E+03  0.00000000000E+00 0.  1.
         21    1    1    2  503  502 -0.21233060973E+02  0.70158209142E+00  0.18079416400E+02  0.27896243351E+02  0.00000000000E+00 0. -1.
<scales pt_clust_5="13000.00000" pt_clust_6="13000.00000" pt_clust_7="13000.00000" pt_clust_8="13000.00000" pt_clust_9="21.17311" pt_clust_10="22.70398"></scales>
<clustering>
<clus scale="   21.173">  1  9  2 -1</clus>
<clus scale="   22.704">  2 10  1 -1</clus>
<clus scale="   90.841">  7  8 -1 -1</clus>
<clus scale="   91.565">  5  6 -1 -1</clus>
<clus scale="  104.896">  2  7  1 -1</clus>
<clus scale="   22.704">  2  5  1 -1</clus>
</clustering>
</event>
<event>
10    2  0.1133532E-006  0.1337681E+03  0.7546771E-02  0.1221995E+00
         -1   -1    0    0    0  501 -0.00000000000E+00  0.00000000000E+00  0.18425154473E+03  0.18425154473E+03  0.00000000000E+00 0.  1.
          1   -1    0    0  503    0  0.00000000000E+00 -0.00000000000E+00 -0.74720126425E+03  0.74720126425E+03  0.00000000000E+00 0. -1.
         23    2    1    2    0    0 -0.70271184720E+02 -0.13092719844E+03  0.59707652660E+02  0.18427938261E+03  0.91180679846E+02 0.  0.
         23    2    1    2    0    0 -0.21616202076E+02  0.61106307840E+02 -0.41212432588E+03  0.42706090431E+03  0.91286992274E+02 0.  0.
        -11    1    3    3    0    0  0.18931980871E+02 -0.49458581187E+02  0.11396653006E+02  0.54170608751E+02  0.00000000000E+00 0.  1.
         11    1    3    3    0    0 -0.89203165590E+02 -0.81468617249E+02  0.48310999654E+02  0.13010877386E+03  0.00000000000E+00 0. -1.
        -13    1    4    4    0    0 -0.23271076111E+01  0.81105591911E+02 -0.25819914785E+03  0.27064798618E+03  0.00000000000E+00 0.  1.
         13    1    4    4    0    0 -0.19289094465E+02 -0.19999284072E+02 -0.15392517803E+03  0.15641291814E+03  0.00000000000E+00 0. -1.
         21    1    1    2  502  501  0.12845908988E+02  0.49250200708E+02  0.34723311262E+02  0.61614186617E+02  0.00000000000E+00 0. -1.
         21    1    1    2  503  502  0.79041477808E+02  0.20570689888E+02 -0.24525635757E+03  0.25849833544E+03  0.00000000000E+00 0.  1.
<scales pt_clust_5="13000.00000" pt_clust_6="13000.00000" pt_clust_7="13000.00000" pt_clust_8="13000.00000" pt_clust_9="50.89793" pt_clust_10="82.91096"></scales>
<clustering>
<clus scale="   50.898">  1  9  2 -1</clus>
<clus scale="   82.911">  2 10  1 -1</clus>
<clus scale="   91.181">  5  6 -1 -1</clus>
<clus scale="   91.287">  7  8 -1 -1</clus>
<clus scale="  133.696">  1  5  2 -1</clus>
<clus scale="   82.911">  2  5  1 -1</clus>
</clustering>
</event>
<event>
10    2  0.1133532E-006  0.1036507E+03  0.7546771E-02  0.1273245E+00
         -1   -1    0    0    0  501 -0.00000000000E+00  0.00000000000E+00  0.17626086813E+03  0.17626086813E+03  0.00000000000E+00 0.  1.
          1   -1    0    0  503    0  0.00000000000E+00 -0.00000000000E+00 -0.16349211031E+03  0.16349211031E+03  0.00000000000E+00 0. -1.
         23    2    1    2    0    0 -0.59879084676E+02  0.43092116822E+02  0.69113142074E+02  0.13611617555E+03  0.91151256307E+02 0.  0.
         23    2    1    2    0    0 -0.84199005286E+00 -0.22408376934E+02 -0.73662624542E+02  0.12008204695E+03  0.92144839476E+02 0.  0.
        -11    1    4    4    0    0  0.40941421856E+02  0.88186494751E+01 -0.25179486325E+02  0.48866912463E+02  0.00000000000E+00 0.  1.
         11    1    4    4    0    0 -0.41783411908E+02 -0.31227026409E+02 -0.48483138217E+02  0.71215134490E+02  0.00000000000E+00 0. -1.
        -11    1    3    3    0    0  0.14258563072E+02  0.40599201788E+02  0.23375642605E+02  0.48969607655E+02  0.00000000000E+00 0.  1.
         11    1    3    3    0    0 -0.74137647747E+02  0.24929150340E+01  0.45737499469E+02  0.87146567898E+02  0.00000000000E+00 0. -1.
         21    1    1    2  502  501  0.26860994613E+02 -0.39555252625E+01  0.32937604141E+02  0.42685418802E+02  0.00000000000E+00 0. -1.
         21    1    1    2  503  502  0.33860080115E+02 -0.16728214625E+02 -0.15619363856E+02  0.40869337127E+02  0.00000000000E+00 0.  1.
<scales pt_clust_5="13000.00000" pt_clust_6="13000.00000" pt_clust_7="13000.00000" pt_clust_8="13000.00000" pt_clust_9="27.15068" pt_clust_10="40.12992"></scales>
<clustering>
<clus scale="   27.151">  1  9  2 -1</clus>
<clus scale="   40.130">  2 10  1 -1</clus>
<clus scale="   91.151">  7  8 -1 -1</clus>
<clus scale="   92.145">  5  6 -1 -1</clus>
<clus scale="  102.768">  1  7  2 -1</clus>
<clus scale="   40.130">  2  5  1 -1</clus>
</clustering>
</event>
<event>
10    2  0.1133532E-006  0.9327065E+02  0.7546771E-02  0.1296943E+00
         -1   -1    0    0    0  501 -0.00000000000E+00  0.00000000000E+00  0.48090603534E+02  0.48090603534E+02  0.00000000000E+00 0.  1.
          1   -1    0    0  503    0  0.00000000000E+00 -0.00000000000E+00 -0.53319840964E+03  0.53319840964E+03  0.00000000000E+00 0. -1.
         23    2    1    2    0    0 -0.14051351262E+02  0.21121854120E+02 -0.30383037397E+02  0.97222378425E+02  0.88800274276E+02 0.  0.
         23    2    1    2    0    0 -0.19275188168E+01 -0.38789463205E+02 -0.34302681899E+03  0.35725407351E+03  0.91949642238E+02 0.  0.
        -11    1    4    4    0    0  0.43915543082E+02 -0.90130141343E+01 -0.16888496964E+03  0.17473391862E+03  0.00000000000E+00 0. -1.
         11    1    4    4    0    0 -0.45843061899E+02 -0.29776449071E+02 -0.17414184936E+03  0.18252015489E+03  0.00000000000E+00 0.  1.
        -13    1    3    3    0    0 -0.24363494203E+02  0.43539246746E+02  0.90487791035E+01  0.50706274368E+02  0.00000000000E+00 0.  1.
         13    1    3    3    0    0  0.10312142941E+02 -0.22417392626E+02 -0.39431816500E+02  0.46516104058E+02  0.00000000000E+00 0. -1.
         21    1    1    2  502  501  0.18054557159E+02 -0.15083015705E+02 -0.26090965285E+02  0.35131223527E+02  0.00000000000E+00 0. -1.
         21    1    1    2  503  502 -0.20756870802E+01  0.32750624790E+02 -0.85606984432E+02  0.91681337711E+02  0.00000000000E+00 0.  1.
<scales pt_clust_5="13000.00000" pt_clust_6="13000.00000" pt_clust_7="13000.00000" pt_clust_8="13000.00000" pt_clust_9="23.52582" pt_clust_10="31.70976"></scales>
<clustering>
<clus scale="   23.526">  1  9  2 -1</clus>
<clus scale="   31.710">  2 10  1 -1</clus>
<clus scale="   88.800">  7  8 -1 -1</clus>
<clus scale="   90.167">  1  7  2 -1</clus>
<clus scale="   91.950">  5  6 -1 -1</clus>
<clus scale="   31.710">  2  5  1 -1</clus>
</clustering>
</event>
<event>
10    2  0.1133532E-006  0.4200576E+03  0.7546771E-02  0.1037076E+00
         -1   -1    0    0    0  501 -0.00000000000E+00  0.00000000000E+00  0.38140652822E+03  0.38140652822E+03  0.00000000000E+00 0.  1.
          1   -1    0    0  503    0  0.00000000000E+00 -0.00000000000E+00 -0.81850575528E+03  0.81850575528E+03  0.00000000000E+00 0. -1.
         23    2    1    2    0    0  0.35005345028E+03 -0.11853309283E+03  0.99138162020E+02  0.39308116264E+03  0.89982848956E+02 0.  0.
         23    2    1    2    0    0 -0.41919197438E+03  0.14267225998E+03 -0.40727835007E+03  0.60855853968E+03  0.91599981611E+02 0.  0.
        -13    1    4    4    0    0 -0.30070375934E+03  0.12350112003E+03 -0.34232266078E+03  0.47208058805E+03  0.00000000000E+00 0. -1.
         13    1    4    4    0    0 -0.11848821504E+03  0.19171139947E+02 -0.64955689291E+02  0.13647795163E+03  0.00000000000E+00 0.  1.
        -13    1    3    3    0    0  0.28679074426E+03 -0.68236084061E+02  0.10272286670E+03  0.31218116776E+03  0.00000000000E+00 0.  1.
         13    1    3    3    0    0  0.63262706011E+02 -0.50297008769E+02 -0.35847046777E+01  0.80899994874E+02  0.00000000000E+00 0. -1.
         21    1    1    2  502  501  0.44836543396E+02 -0.12695659272E+02  0.17195052590E+02  0.49670566955E+02  0.00000000000E+00 0.  1.
         21    1    1    2  503  502  0.24301980705E+02 -0.11443507876E+02 -0.14615409161E+03  0.14860201423E+03  0.00000000000E+00 0. -1.
<scales pt_clust_5="13000.00000" pt_clust_6="13000.00000" pt_clust_7="13000.00000" pt_clust_8="13000.00000" pt_clust_9="47.24060" pt_clust_10="26.86150"></scales>
<clustering>
<clus scale="   26.861">  2 10  1 -1</clus>
<clus scale="   47.241">  1  9  2 -1</clus>
<clus scale="   89.983">  7  8 -1 -1</clus>
<clus scale="   91.600">  5  6 -1 -1</clus>
<clus scale="  419.708">  1  7  2 -1</clus>
<clus scale="   26.861">  2  5  1 -1</clus>
</clustering>
</event>
<event>
10    2  0.1133532E-006  0.9333299E+02  0.7546771E-02  0.1296226E+00
          4   -1    0    0  503    0  0.00000000000E+00  0.00000000000E+00  0.45450657663E+03  0.45450657663E+03  0.00000000000E+00 0. -1.
         -4   -1    0    0    0  501 -0.00000000000E+00 -0.00000000000E+00 -0.62983436090E+02  0.62983436090E+02  0.00000000000E+00 0.  1.
         23    2    1    2    0    0  0.35105752247E+02  0.83857361022E+01  0.36313139445E+02  0.10553807339E+03  0.92287087007E+02 0.  0.
         23    2    1    2    0    0 -0.18287699098E+02 -0.11174286920E+02  0.17818588045E+03  0.20082618215E+03  0.90120157666E+02 0.  0.
        -11    1    4    4    0    0  0.33074030667E+02  0.11199082889E+02  0.50566033596E+02  0.61451075790E+02  0.00000000000E+00 0.  1.
         11    1    4    4    0    0 -0.51361729765E+02 -0.22373369809E+02  0.12761984686E+03  0.13937510636E+03  0.00000000000E+00 0. -1.
        -13    1    3    3    0    0  0.63630281646E+02 -0.49548681719E+01  0.10207075271E+02  0.64633952738E+02  0.00000000000E+00 0.  1.
         13    1    3    3    0    0 -0.28524529399E+02  0.13340604274E+02  0.26106064174E+02  0.40904120654E+02  0.00000000000E+00 0. -1.
         21    1    1    2  502  501 -0.39145729404E+02 -0.68230071116E+01  0.82160202234E+01  0.40576403795E+02  0.00000000000E+00 0. -1.
         21    1    1    2  503  502  0.22327676254E+02  0.96115579297E+01  0.16880810042E+03  0.17054935338E+03  0.00000000000E+00 0. -1.
<scales pt_clust_5="13000.00000" pt_clust_6="13000.00000" pt_clust_7="13000.00000" pt_clust_8="13000.00000" pt_clust_9="37.71361" pt_clust_10="24.30858"></scales>
<clustering>
<clus scale="   24.309">  1 10  2 -1</clus>
<clus scale="   37.714">  2  9  1 -1</clus>
<clus scale="   90.120">  5  6 -1 -1</clus>
<clus scale="   91.191">  1  5  2 -1</clus>
<clus scale="   92.287">  7  8 -1 -1</clus>
<clus scale="   24.309">  1  5  2 -1</clus>
</clustering>
</event>
<event>
10    2  0.1133532E-006  0.1311110E+03  0.7546771E-02  0.1226222E+00
          2   -1    0    0  503    0  0.00000000000E+00  0.00000000000E+00  0.12771835899E+03  0.12771835899E+03  0.00000000000E+00 0. -1.
         -2   -1    0    0    0  501 -0.00000000000E+00 -0.00000000000E+00 -0.27307270213E+03  0.27307270213E+03  0.00000000000E+00 0.  1.
         23    2    1    2    0    0 -0.36082853776E+02 -0.99844962761E+02 -0.18424710152E+03  0.23075652766E+03  0.89613568803E+02 0.  0.
         23    2    1    2    0    0  0.25799933975E+02  0.51131222669E+02  0.32357790616E+02  0.11244946939E+03  0.91202072497E+02 0.  0.
        -11    1    4    4    0    0 -0.28062947106E+01  0.49456041387E+02 -0.19472345424E+02  0.53225440872E+02  0.00000000000E+00 0.  1.
         11    1    4    4    0    0  0.28606228686E+02  0.16751812815E+01  0.51830136040E+02  0.59224028518E+02  0.00000000000E+00 0. -1.
        -13    1    3    3    0    0 -0.66198069108E+02 -0.66340566177E+02 -0.11914983300E+03  0.15159135127E+03  0.00000000000E+00 0.  1.
         13    1    3    3    0    0  0.30115215332E+02 -0.33504396584E+02 -0.65097268518E+02  0.79165176394E+02  0.00000000000E+00 0. -1.
         21    1    1    2  502  501  0.99582322150E+01  0.25335518533E+02 -0.99430546931E+01  0.28981359954E+02  0.00000000000E+00 0. -1.
         21    1    1    2  503  502  0.32468758635E+00  0.23378221559E+02  0.16478022459E+02  0.28603704121E+02  0.00000000000E+00 0. -1.
<scales pt_clust_5="13000.00000" pt_clust_6="13000.00000" pt_clust_7="13000.00000" pt_clust_8="13000.00000" pt_clust_9="29.21182" pt_clust_10="23.38048"></scales>
<clustering>
<clus scale="   23.380">  1 10  2 -1</clus>
<clus scale="   29.212">  1  9  2 -1</clus>
<clus scale="   89.614">  7  8 -1 -1</clus>
<clus scale="   91.202">  5  6 -1 -1</clus>
<clus scale="  130.011">  2  7  1 -1</clus>
<clus scale="   23.380">  1  5  2 -1</clus>
</clustering>
</event>
<event>
10    2  0.1133532E-006  0.9695382E+02  0.7546771E-02  0.1287969E+00
         -2   -1    0    0    0  501 -0.00000000000E+00  0.00000000000E+00  0.33113675641E+03  0.33113675641E+03  0.00000000000E+00 0.  1.
          2   -1    0    0  503    0  0.00000000000E+00 -0.00000000000E+00 -0.67081572804E+02  0.67081572804E+02  0.00000000000E+00 0. -1.
         23    2    1    2    0    0 -0.34520644095E+02  0.38364880400E+02  0.19506626939E+03  0.22179333853E+03  0.92075494261E+02 0.  0.
         23    2    1    2    0    0  0.20422401986E+02  0.51784142141E+01  0.30835901730E+02  0.97366664307E+02  0.89919541848E+02 0.  0.
        -13    1    3    3    0    0 -0.52511169609E+02  0.18016567189E+02  0.51647533479E+02  0.75825373994E+02  0.00000000000E+00 0. -1.
         13    1    3    3    0    0  0.17990525514E+02  0.20348313211E+02  0.14341873591E+03  0.14596796453E+03  0.00000000000E+00 0.  1.
        -13    1    4    4    0    0 -0.35759833089E+02  0.48363160517E+01  0.14117902975E+02  0.38748816755E+02  0.00000000000E+00 0. -1.
         13    1    4    4    0    0  0.56182235075E+02  0.34209816248E+00  0.16717998755E+02  0.58617847552E+02  0.00000000000E+00 0.  1.
         21    1    1    2  502  501  0.17059138035E+02 -0.12616705222E+02  0.42679101523E+02  0.47662366160E+02  0.00000000000E+00 0.  1.
         21    1    1    2  503  502 -0.29608959270E+01 -0.30926589392E+02 -0.45260890393E+01  0.31395960219E+02  0.00000000000E+00 0.  1.
<scales pt_clust_5="13000.00000" pt_clust_6="13000.00000" pt_clust_7="13000.00000" pt_clust_8="13000.00000" pt_clust_9="21.21781" pt_clust_10="31.59322"></scales>
<clustering>
<clus scale="   21.218">  1  9  2 -1</clus>
<clus scale="   31.593">  2 10  1 -1</clus>
<clus scale="   89.920">  7  8 -1 -1</clus>
<clus scale="   92.075">  5  6 -1 -1</clus>
<clus scale="   94.909">  2  7  1 -1</clus>
<clus scale="   31.593">  2  5  1 -1</clus>
</clustering>
</event>
<event>
10    2  0.1133532E-006  0.1652240E+03  0.7546771E-02  0.1183017E+00
         -1   -1    0    0    0  501 -0.00000000000E+00  0.00000000000E+00  0.36856020554E+03  0.36856020554E+03  0.00000000000E+00 0.  1.
          1   -1    0    0  503    0  0.00000000000E+00 -0.00000000000E+00 -0.33115166547E+03  0.33115166547E+03  0.00000000000E+00 0. -1.
         23    2    1    2    0    0 -0.66342381473E+02  0.10808314086E+03  0.82291084554E+02  0.17553788437E+03  0.89210141431E+02 0.  0.
         23    2    1    2    0    0  0.50164947145E+01 -0.14426751778E+03 -0.22500659574E+03  0.28202843323E+03  0.89854254869E+02 0.  0.
        -11    1    3    3    0    0 -0.31818077114E+02 -0.75943551119E+01  0.76094789112E+01  0.33585241255E+02  0.00000000000E+00 0. -1.
         11    1    3    3    0    0 -0.34524304358E+02  0.11567749598E+03  0.74681605642E+02  0.14195264312E+03  0.00000000000E+00 0.  1.
        -11    1    4    4    0    0 -0.40698522211E+01 -0.47734693687E+02 -0.14160475587E+02  0.49956818827E+02  0.00000000000E+00 0.  1.
         11    1    4    4    0    0  0.90863469356E+01 -0.96532824095E+02 -0.21084612015E+03  0.23207161440E+03  0.00000000000E+00 0. -1.
         21    1    1    2  502  501  0.19196379914E+02  0.14832051524E+02  0.19193313134E+03  0.19346011904E+03  0.00000000000E+00 0.  1.
         21    1    1    2  503  502  0.42129506844E+02  0.21352325395E+02 -0.11809080082E+02  0.48685434363E+02  0.00000000000E+00 0.  1.
<scales pt_clust_5="13000.00000" pt_clust_6="13000.00000" pt_clust_7="13000.00000" pt_clust_8="13000.00000" pt_clust_9="24.25883" pt_clust_10="49.73203"></scales>
<clustering>
<clus scale="   24.259">  1  9  2 -1</clus>
<clus scale="   49.732">  1 10  2 -1</clus>
<clus scale="   89.210">  5  6 -1 -1</clus>
<clus scale="   89.854">  7  8 -1 -1</clus>
<clus scale="  164.875">  1  5  2 -1</clus>
<clus scale="  165.224">  2  5  1 -1</clus>
</clustering>
</event>
<event>
10    2  0.1133532E-006  0.2364843E+03  0.7546771E-02  0.1122350E+00
         -2   -1    0    0    0  501 -0.00000000000E+00  0.00000000000E+00  0.10829980329E+03  0.10829980329E+03  0.00000000000E+00 0.  1.
          2   -1    0    0  503    0  0.00000000000E+00 -0.00000000000E+00 -0.12497304052E+04  0.12497304052E+04  0.00000000000E+00 0. -1.
         23    2    1    2    0    0  0.46629864115E+02 -0.18743590343E+03 -0.85294907386E+02  0.22916331449E+03  0.89073235951E+02 0.  0.
         23    2    1    2    0    0 -0.94270119446E+02  0.22369052178E+03 -0.93157058425E+03  0.96706544578E+03  0.92019117689E+02 0.  0.
        -11    1    4    4    0    0 -0.44311273027E+02  0.98922425367E+02 -0.59244226102E+03  0.60227648784E+03  0.00000000000E+00 0. -1.
         11    1    4    4    0    0 -0.49958846420E+02  0.12476809641E+03 -0.33912832323E+03  0.36478895794E+03  0.00000000000E+00 0.  1.
        -13    1    3    3    0    0  0.25777055849E+02 -0.14535985261E+03 -0.20356651370E+02  0.14902461748E+03  0.00000000000E+00 0.  1.
         13    1    3    3    0    0  0.20852808266E+02 -0.42076050814E+02 -0.64938256016E+02  0.80138697014E+02  0.00000000000E+00 0. -1.
         21    1    1    2  502  501  0.29317979886E+02 -0.18253275589E+02  0.81389805957E-01  0.34535961528E+02  0.00000000000E+00 0.  1.
         21    1    1    2  503  502  0.18322275445E+02 -0.18001342766E+02 -0.12464650013E+03  0.12726548674E+03  0.00000000000E+00 0.  1.
<scales pt_clust_5="13000.00000" pt_clust_6="13000.00000" pt_clust_7="13000.00000" pt_clust_8="13000.00000" pt_clust_9="34.92026" pt_clust_10="25.68568"></scales>
<clustering>
<clus scale="   25.686">  2 10  1 -1</clus>
<clus scale="   34.920">  1  9  2 -1</clus>
<clus scale="   89.073">  7  8 -1 -1</clus>
<clus scale="   92.019">  5  6 -1 -1</clus>
<clus scale="  235.354">  1  7  2 -1</clus>
<clus scale="   25.686">  2  5  1 -1</clus>
</clustering>
</event>
<event>
10    2  0.1133532E-006  0.2940045E+03  0.7546771E-02  0.1088356E+00
          1   -1    0    0  503    0  0.00000000000E+00  0.00000000000E+00  0.15462847513E+04  0.15462847513E+04  0.00000000000E+00 0. -1.
         -1   -1    0    0    0  501 -0.00000000000E+00 -0.00000000000E+00 -0.23548190324E+03  0.23548190324E+03  0.00000000000E+00 0.  1.
         23    2    1    2    0    0  0.14477085810E+03 -0.21302993261E+03  0.32522983906E+03  0.42497569192E+03  0.92138683328E+02 0.  0.
         23    2    1    2    0    0 -0.21822299177E+03  0.23520469333E+03  0.29538136248E+03  0.44614546492E+03  0.94090938311E+02 0.  0.
        -11    1    3    3    0    0  0.11656857528E+03 -0.20526120144E+03  0.31573737154E+03  0.39422136084E+03  0.00000000000E+00 0. -1.
         11    1    3    3    0    0  0.28202282822E+02 -0.77687311736E+01  0.94924675184E+01  0.30754331077E+02  0.00000000000E+00 0.  1.
        -13    1    4    4    0    0 -0.13198402614E+03  0.10319638474E+03  0.20370038911E+03  0.26374822370E+03  0.00000000000E+00 0.  1.
         13    1    4    4    0    0 -0.86238965626E+02  0.13200830859E+03  0.91680973368E+02  0.18239724123E+03  0.00000000000E+00 0. -1.
         21    1    1    2  502  501  0.26307759550E+02  0.17386164295E+03 -0.15683555198E+02  0.17653878612E+03  0.00000000000E+00 0.  1.
         21    1    1    2  503  502  0.47144374115E+02 -0.19603640367E+03  0.70587520176E+03  0.73410671161E+03  0.00000000000E+00 0. -1.
<scales pt_clust_5="13000.00000" pt_clust_6="13000.00000" pt_clust_7="13000.00000" pt_clust_8="13000.00000" pt_clust_9="175.84075" pt_clust_10="185.24913"></scales>
<clustering>
<clus scale="   92.139">  5  6 -1 -1</clus>
<clus scale="   94.091">  7  8 -1 -1</clus>
<clus scale="  175.841">  2  9  1 -1</clus>
<clus scale="  185.249">  1 10  2 -1</clus>
<clus scale="  293.386">  2  5  1 -1</clus>
<clus scale="  185.249">  1  5  2 -1</clus>
</clustering>
</event>
<event>
10    2  0.1133532E-006  0.1253293E+03  0.7546771E-02  0.1235959E+00
          2   -1    0    0  503    0  0.00000000000E+00  0.00000000000E+00  0.45898224346E+03  0.45898224346E+03  0.00000000000E+00 0. -1.
         -2   -1    0    0    0  501 -0.00000000000E+00 -0.00000000000E+00 -0.71546191360E+02  0.71546191360E+02  0.00000000000E+00 0.  1.
         23    2    1    2    0    0  0.32988864083E+02  0.76040279557E+02  0.10831613403E+03  0.16058085479E+03  0.84755157758E+02 0.  0.
         23    2    1    2    0    0 -0.29801973747E+02 -0.83301431887E+02  0.17808634684E+03  0.21817977167E+03  0.89779617073E+02 0.  0.
        -13    1    3    3    0    0  0.39741640733E+02 -0.23973205870E+01  0.37218233588E+02  0.54500844632E+02  0.00000000000E+00 0. -1.
         13    1    3    3    0    0 -0.67527766495E+01  0.78437600144E+02  0.71097900441E+02  0.10608001016E+03  0.00000000000E+00 0.  1.
        -13    1    4    4    0    0  0.28508508402E+02 -0.52981920661E+02  0.90600339928E+02  0.10875771496E+03  0.00000000000E+00 0.  1.
         13    1    4    4    0    0 -0.58310482149E+02 -0.30319511226E+02  0.87486006912E+02  0.10942205671E+03  0.00000000000E+00 0. -1.
         21    1    1    2  502  501 -0.14019528930E+02  0.26666047714E+02 -0.14979447986E+02  0.33645343721E+02  0.00000000000E+00 0. -1.
         21    1    1    2  503  502  0.10832638594E+02 -0.19404895385E+02  0.11601301922E+03  0.11812246464E+03  0.00000000000E+00 0. -1.
<scales pt_clust_5="13000.00000" pt_clust_6="13000.00000" pt_clust_7="13000.00000" pt_clust_8="13000.00000" pt_clust_9="29.52039" pt_clust_10="22.22377"></scales>
<clustering>
<clus scale="   22.224">  1 10  2 -1</clus>
<clus scale="   29.520">  2  9  1 -1</clus>
<clus scale="   84.755">  5  6 -1 -1</clus>
<clus scale="   89.780">  7  8 -1 -1</clus>
<clus scale="  121.781">  2  5  1 -1</clus>
<clus scale="   22.224">  1  5  2 -1</clus>
</clustering>
</event>
<event>
10    2  0.1133532E-006  0.9639626E+02  0.7546771E-02  0.1288959E+00
          2   -1    0    0  503    0  0.00000000000E+00  0.00000000000E+00  0.37011389888E+03  0.37011389888E+03  0.00000000000E+00 0. -1.
         -2   -1    0    0    0  501 -0.00000000000E+00 -0.00000000000E+00 -0.20444151549E+03  0.20444151549E+03  0.00000000000E+00 0.  1.
         23    2    1    2    0    0  0.23368700370E+02  0.46533614966E+02 -0.85358174711E+02  0.13453127424E+03  0.90006512425E+02 0.  0.
         23    2    1    2    0    0 -0.14608209752E+02 -0.12283099188E+02  0.37744725974E+02  0.97889816582E+02  0.88280674748E+02 0.  0.
        -11    1    4    4    0    0 -0.51700099486E+02 -0.17954692487E+01  0.23119129519E+02  0.56662316811E+02  0.00000000000E+00 0.  1.
         11    1    4    4    0    0  0.37091889734E+02 -0.10487629939E+02  0.14625596455E+02  0.41227499771E+02  0.00000000000E+00 0. -1.
        -13    1    3    3    0    0  0.56990828432E+02  0.21094268598E+02 -0.59632480287E+02  0.85140797496E+02  0.00000000000E+00 0. -1.
         13    1    3    3    0    0 -0.33622128062E+02  0.25439346368E+02 -0.25725694424E+02  0.49390476741E+02  0.00000000000E+00 0.  1.
         21    1    1    2  502  501 -0.30480668243E+02 -0.62266693294E+01 -0.59452932612E+02  0.67100624018E+02  0.00000000000E+00 0.  1.
         21    1    1    2  503  502  0.21720177625E+02 -0.28023846449E+02  0.27273876474E+03  0.27503369953E+03  0.00000000000E+00 0. -1.
<scales pt_clust_5="13000.00000" pt_clust_6="13000.00000" pt_clust_7="13000.00000" pt_clust_8="13000.00000" pt_clust_9="31.11017" pt_clust_10="35.34459"></scales>
<clustering>
<clus scale="   31.110">  2  9  1 -1</clus>
<clus scale="   35.345">  1 10  2 -1</clus>
<clus scale="   88.281">  5  6 -1 -1</clus>
<clus scale="   90.007">  7  8 -1 -1</clus>
<clus scale="   94.787">  1  5  2 -1</clus>
<clus scale="   35.345">  1  5  2 -1</clus>
</clustering>
</event>
<event>
10    2  0.1133532E-006  0.1259700E+03  0.7546771E-02  0.1234372E+00
         -2   -1    0    0    0  501 -0.00000000000E+00  0.00000000000E+00  0.36702336262E+03  0.36702336262E+03  0.00000000000E+00 0.  1.
          2   -1    0    0  503    0  0.00000000000E+00 -0.00000000000E+00 -0.12086973416E+03  0.12086973416E+03  0.00000000000E+00 0. -1.
         23    2    1    2    0    0 -0.13644897991E+02 -0.75073821398E+02  0.15270858690E+03  0.19229049702E+03  0.88506840571E+02 0.  0.
         23    2    1    2    0    0  0.17012823091E+02  0.67079515887E+02 -0.39307014896E+02  0.12119054608E+03  0.91394799843E+02 0.  0.
        -13    1    4    4    0    0 -0.35766175681E+02  0.12687706814E+02 -0.60666394359E+01  0.38431775149E+02  0.00000000000E+00 0.  1.
         13    1    4    4    0    0  0.52778998772E+02  0.54391809073E+02 -0.33240375460E+02  0.82758770933E+02  0.00000000000E+00 0. -1.
        -13    1    3    3    0    0  0.26306162116E+01 -0.26768735325E+02  0.13602130105E+03  0.13865525476E+03  0.00000000000E+00 0.  1.
         13    1    3    3    0    0 -0.16275514202E+02 -0.48305086073E+02  0.16687285856E+02  0.53635242260E+02  0.00000000000E+00 0. -1.
         21    1    1    2  502  501 -0.71245817084E+01 -0.21789591302E+02  0.14134067068E+03  0.14318774788E+03  0.00000000000E+00 0.  1.
         21    1    1    2  503  502  0.37566566084E+01  0.29783896813E+02 -0.85886142323E+01  0.31224305800E+02  0.00000000000E+00 0. -1.
<scales pt_clust_5="13000.00000" pt_clust_6="13000.00000" pt_clust_7="13000.00000" pt_clust_8="13000.00000" pt_clust_9="22.92479" pt_clust_10="28.88721"></scales>
<clustering>
<clus scale="   22.925">  1  9  2 -1</clus>
<clus scale="   28.887">  2 10  1 -1</clus>
<clus scale="   88.507">  7  8 -1 -1</clus>
<clus scale="   91.395">  5  6 -1 -1</clus>
<clus scale="  123.891">  1  7  2 -1</clus>
<clus scale="   28.887">  2  5  1 -1</clus>
</clustering>
</event>
<event>
10    2  0.1133532E-006  0.1330923E+03  0.7546771E-02  0.1222965E+00
         -1   -1    0    0    0  501 -0.00000000000E+00  0.00000000000E+00  0.38867511576E+03  0.38867511576E+03  0.00000000000E+00 0.  1.
          1   -1    0    0  503    0  0.00000000000E+00 -0.00000000000E+00 -0.12473966543E+03  0.12473966543E+03  0.00000000000E+00 0. -1.
         23    2    1    2    0    0  0.69359552428E+02  0.70429631185E+02  0.22811283391E+03  0.26556577469E+03  0.93373632434E+02 0.  0.
         23    2    1    2    0    0 -0.60216394246E+02 -0.23255847165E+02 -0.38379614521E+02  0.11974491314E+03  0.93268434369E+02 0.  0.
        -13    1    4    4    0    0 -0.60085238375E+02 -0.52963163094E+02 -0.40893478954E+02  0.89931135523E+02  0.00000000000E+00 0. -1.
         13    1    4    4    0    0 -0.13115587083E+00  0.29707315929E+02  0.25138644336E+01  0.29813777620E+02  0.00000000000E+00 0.  1.
        -13    1    3    3    0    0  0.59116119495E+02  0.14282125100E+02  0.50635054464E+02  0.79136612400E+02  0.00000000000E+00 0.  1.
         13    1    3    3    0    0  0.10243432933E+02  0.56147506085E+02  0.17747777944E+03  0.18642916229E+03  0.00000000000E+00 0. -1.
         21    1    1    2  502  501  0.23781625932E+02 -0.19057199178E+02  0.78873542953E+02  0.84556361975E+02  0.00000000000E+00 0.  1.
         21    1    1    2  503  502 -0.32924784114E+02 -0.28116584842E+02 -0.46713120086E+01  0.43547731376E+02  0.00000000000E+00 0. -1.
<scales pt_clust_5="13000.00000" pt_clust_6="13000.00000" pt_clust_7="13000.00000" pt_clust_8="13000.00000" pt_clust_9="30.47528" pt_clust_10="42.97677"></scales>
<clustering>
<clus scale="   30.475">  1  9  2 -1</clus>
<clus scale="   42.977">  2 10  1 -1</clus>
<clus scale="   93.268">  5  6 -1 -1</clus>
<clus scale="   93.374">  7  8 -1 -1</clus>
<clus scale="  133.019">  2  5  1 -1</clus>
<clus scale="   42.977">  2  5  1 -1</clus>
</clustering>
</event>
<event>
10    2  0.1133532E-006  0.9837698E+02  0.7546771E-02  0.1284318E+00
         -2   -1    0    0    0  501 -0.00000000000E+00  0.00000000000E+00  0.10946925222E+03  0.10946925222E+03  0.00000000000E+00 0.  1.
          2   -1    0    0  503    0  0.00000000000E+00 -0.00000000000E+00 -0.21572906387E+03  0.21572906387E+03  0.00000000000E+00 0. -1.
         23    2    1    2    0    0 -0.71577343959E+02 -0.41402004032E+01  0.27603834473E+02  0.11841088202E+03  0.90103872701E+02 0.  0.
         23    2    1    2    0    0  0.14446093701E+02 -0.28892773992E+00 -0.90994502894E+02  0.12806483397E+03  0.88948462826E+02 0.  0.
        -11    1    3    3    0    0 -0.20606752256E+02  0.24947513183E+02  0.46594775100E+02  0.56728209202E+02  0.00000000000E+00 0.  1.
         11    1    3    3    0    0 -0.50970591703E+02 -0.29087713587E+02 -0.18990940627E+02  0.61682672819E+02  0.00000000000E+00 0. -1.
        -13    1    4    4    0    0 -0.11102065963E+02 -0.20846575108E+02  0.70771451585E+01  0.24656065095E+02  0.00000000000E+00 0.  1.
         13    1    4    4    0    0  0.25548159664E+02  0.20557647368E+02 -0.98071648052E+02  0.10340876887E+03  0.00000000000E+00 0. -1.
         21    1    1    2  502  501  0.32403170507E+02 -0.10036791934E+02 -0.10529760999E+02  0.35518706591E+02  0.00000000000E+00 0. -1.
         21    1    1    2  503  502  0.24728079750E+02  0.14465920077E+02 -0.32339382232E+02  0.43203893516E+02  0.00000000000E+00 0. -1.
<scales pt_clust_5="13000.00000" pt_clust_6="13000.00000" pt_clust_7="13000.00000" pt_clust_8="13000.00000" pt_clust_9="36.52682" pt_clust_10="28.64857"></scales>
<clustering>
<clus scale="   28.649">  2 10  1 -1</clus>
<clus scale="   36.527">  1  9  2 -1</clus>
<clus scale="   88.948">  7  8 -1 -1</clus>
<clus scale="   90.104">  5  6 -1 -1</clus>
<clus scale="   97.320">  2  7  1 -1</clus>
<clus scale="   28.649">  2  5  1 -1</clus>
</clustering>
</event>
<event>
10    2  0.1133532E-006  0.2981553E+03  0.7546771E-02  0.1087615E+00
          1   -1    0    0  503    0  0.00000000000E+00  0.00000000000E+00  0.47646242810E+03  0.47646242810E+03  0.00000000000E+00 0. -1.
         -1   -1    0    0    0  501 -0.00000000000E+00 -0.00000000000E+00 -0.72329566958E+03  0.72329566958E+03  0.00000000000E+00 0.  1.
         23    2    1    2    0    0 -0.21337573667E+03 -0.12063290558E+03 -0.44579921461E+03  0.51644036787E+03  0.88838116272E+02 0.  0.
         23    2    1    2    0    0  0.21992282747E+03  0.16252842835E+03  0.30803885132E+03  0.42913202439E+03  0.12035289931E+03 0.  0.
        -11    1    3    3    0    0 -0.15696138585E+03 -0.60599962096E+02 -0.22632541592E+03  0.28201493922E+03  0.00000000000E+00 0.  1.
         11    1    3    3    0    0 -0.56414350829E+02 -0.60032943482E+02 -0.21947379870E+03  0.23442542865E+03  0.00000000000E+00 0. -1.
        -13    1    4    4    0    0  0.50363892295E+02  0.45496714141E+02  0.12725974812E+02  0.69053769482E+02  0.00000000000E+00 0.  1.
         13    1    4    4    0    0  0.16955893518E+03  0.11703171421E+03  0.29531287651E+03  0.36007825491E+03  0.00000000000E+00 0. -1.
         21    1    1    2  502  501 -0.25718774733E+02 -0.19335441159E+02 -0.17709798721E+03  0.17999725480E+03  0.00000000000E+00 0.  1.
         21    1    1    2  503  502  0.19171683936E+02 -0.22560081610E+02  0.68025109024E+02  0.74188450617E+02  0.00000000000E+00 0.  1.
<scales pt_clust_5="13000.00000" pt_clust_6="13000.00000" pt_clust_7="13000.00000" pt_clust_8="13000.00000" pt_clust_9="32.17016" pt_clust_10="29.60592"></scales>
<clustering>
<clus scale="   29.606">  1 10  2 -1</clus>
<clus scale="   32.170">  2  9  1 -1</clus>
<clus scale="   88.838">  5  6 -1 -1</clus>
<clus scale="  120.353">  7  8 -1 -1</clus>
<clus scale="  286.887">  2  5  1 -1</clus>
<clus scale="   29.606">  1  5  2 -1</clus>
</clustering>
</event>
<event>
10    2  0.1133532E-006  0.9923462E+02  0.7546771E-02  0.1282511E+00
          2   -1    0    0  503    0  0.00000000000E+00  0.00000000000E+00  0.35150070603E+03  0.35150070603E+03  0.00000000000E+00 0. -1.
         -2   -1    0    0    0  501 -0.00000000000E+00 -0.00000000000E+00 -0.82206025050E+02  0.82206025050E+02  0.00000000000E+00 0.  1.
         23    2    1    2    0    0  0.23923602669E+02  0.42151220277E+02  0.24207419739E+01  0.10156489128E+03  0.89221651034E+02 0.  0.
         23    2    1    2    0    0 -0.20762954899E+02 -0.97237586793E+01  0.13176580908E+03  0.16145842818E+03  0.90448569951E+02 0.  0.
        -11    1    4    4    0    0  0.88424171733E+01 -0.32240569717E+02  0.11155900085E+02  0.35243393478E+02  0.00000000000E+00 0. -1.
         11    1    4    4    0    0 -0.29605372072E+02  0.22516811037E+02  0.12060990900E+03  0.12621503470E+03  0.00000000000E+00 0.  1.
        -13    1    3    3    0    0 -0.73595282613E+01  0.57569956588E+02  0.21400712147E+02  0.61858330386E+02  0.00000000000E+00 0. -1.
         13    1    3    3    0    0  0.31283130930E+02 -0.15418736310E+02 -0.18979970173E+02  0.39706560893E+02  0.00000000000E+00 0.  1.
         21    1    1    2  502  501  0.45714369002E+02 -0.25974096484E+02  0.51348075757E+02  0.73492054709E+02  0.00000000000E+00 0.  1.
         21    1    1    2  503  502 -0.48875016772E+02 -0.64533651137E+01  0.83760054162E+02  0.97191356915E+02  0.00000000000E+00 0. -1.
<scales pt_clust_5="13000.00000" pt_clust_6="13000.00000" pt_clust_7="13000.00000" pt_clust_8="13000.00000" pt_clust_9="43.76091" pt_clust_10="49.29922"></scales>
<clustering>
<clus scale="   49.299">  1 10  2 -1</clus>
<clus scale="   43.761">  1  9  2 -1</clus>
<clus scale="   89.222">  7  8 -1 -1</clus>
<clus scale="   90.449">  5  6 -1 -1</clus>
<clus scale="   98.118">  2  7  1 -1</clus>
<clus scale="   49.299">  1  5  2 -1</clus>
</clustering>
</event>
<event>
10    2  0.1133532E-006  0.1126506E+03  0.7546771E-02  0.1256762E+00
          1   -1    0    0  503    0  0.00000000000E+00  0.00000000000E+00  0.14316258599E+04  0.14316258599E+04  0.00000000000E+00 0. -1.
         -1   -1    0    0    0  501 -0.00000000000E+00 -0.00000000000E+00 -0.44143173265E+02  0.44143173265E+02  0.00000000000E+00 0.  1.
         23    2    1    2    0    0  0.11407431937E+03  0.57760487883E+02  0.25414231015E+03  0.29786356848E+03  0.88233595181E+02 0.  0.
         23    2    1    2    0    0 -0.14954431881E+02  0.70219458715E+02  0.33157924202E+03  0.35170126200E+03  0.92706939003E+02 0.  0.
        -11    1    3    3    0    0  0.54688534363E+02 -0.11425990783E+02  0.14651992320E+03  0.15681032157E+03  0.00000000000E+00 0. -1.
         11    1    3    3    0    0  0.59385785010E+02  0.69186478666E+02  0.10762238695E+03  0.14105324691E+03  0.00000000000E+00 0.  1.
        -11    1    4    4    0    0  0.15282292277E+00 -0.21293898729E+02  0.35122514778E+02  0.41073647541E+02  0.00000000000E+00 0. -1.
         11    1    4    4    0    0 -0.15107254804E+02  0.91513357444E+02  0.29645672724E+03  0.31062761446E+03  0.00000000000E+00 0.  1.
         21    1    1    2  502  501 -0.29785900467E+02 -0.88440084924E+02  0.21973303081E+03  0.23872882800E+03  0.00000000000E+00 0. -1.
         21    1    1    2  503  502 -0.69333987024E+02 -0.39539861674E+02  0.58202810368E+03  0.58747537471E+03  0.00000000000E+00 0. -1.
<scales pt_clust_5="13000.00000" pt_clust_6="13000.00000" pt_clust_7="13000.00000" pt_clust_8="13000.00000" pt_clust_9="110.39330" pt_clust_10="79.81605"></scales>
<clustering>
<clus scale="   79.816">  1 10  2 -1</clus>
<clus scale="   88.234">  5  6 -1 -1</clus>
<clus scale="   92.707">  7  8 -1 -1</clus>
<clus scale="  110.393">  2  9  1 -1</clus>
<clus scale="  110.393">  2  5  1 -1</clus>
<clus scale="   79.816">  1  5  2 -1</clus>
</clustering>
</event>
<event>
10    2  0.1133532E-006  0.1489035E+03  0.7546771E-02  0.1202595E+00
         -1   -1    0    0    0  501 -0.00000000000E+00  0.00000000000E+00  0.48195833022E+03  0.48195833022E+03  0.00000000000E+00 0.  1.
          1   -1    0    0  503    0  0.00000000000E+00 -0.00000000000E+00 -0.14697256075E+03  0.14697256075E+03  0.00000000000E+00 0. -1.
         23    2    1    2    0    0 -0.93025375070E+02  0.42789673559E+02  0.27069477812E+03  0.30376442769E+03  0.92263145717E+02 0.  0.
         23    2    1    2    0    0  0.68933632811E+02 -0.60280308604E+02 -0.44410867802E+02  0.13998255664E+03  0.96110507469E+02 0.  0.
        -11    1    4    4    0    0 -0.21560790990E+01  0.21842060642E+02  0.16322607019E+01  0.22008829255E+02  0.00000000000E+00 0.  1.
         11    1    4    4    0    0  0.71089711910E+02 -0.82122369246E+02 -0.46043128504E+02  0.11797372738E+03  0.00000000000E+00 0. -1.
        -13    1    3    3    0    0 -0.60859178957E+02 -0.15838253017E+02  0.80471284182E+02  0.10212892587E+03  0.00000000000E+00 0.  1.
         13    1    3    3    0    0 -0.32166196114E+02  0.58627926576E+02  0.19022349394E+03  0.20163550182E+03  0.00000000000E+00 0. -1.
         21    1    1    2  502  501 -0.20636333052E+02  0.75478062678E+01  0.13197537650E+03  0.13379210598E+03  0.00000000000E+00 0. -1.
         21    1    1    2  503  502  0.44728075311E+02  0.99428287768E+01 -0.23273517344E+02  0.51391800656E+02  0.00000000000E+00 0. -1.
<scales pt_clust_5="13000.00000" pt_clust_6="13000.00000" pt_clust_7="13000.00000" pt_clust_8="13000.00000" pt_clust_9="21.97334" pt_clust_10="45.07703"></scales>
<clustering>
<clus scale="   21.973">  1  9  2 -1</clus>
<clus scale="   45.077">  2 10  1 -1</clus>
<clus scale="   92.263">  7  8 -1 -1</clus>
<clus scale="   96.111">  5  6 -1 -1</clus>
<clus scale="  146.450">  1  7  2 -1</clus>
<clus scale="   45.077">  2  5  1 -1</clus>
</clustering>
</event>
<event>
10    2  0.1133532E-006  0.1740299E+03  0.7546771E-02  0.1188991E+00
         -1   -1    0    0    0  501 -0.00000000000E+00  0.00000000000E+00  0.15635906851E+03  0.15635906851E+03  0.00000000000E+00 0.  1.
          1   -1    0    0  503    0  0.00000000000E+00 -0.00000000000E+00 -0.16367192313E+04  0.16367192313E+04  0.00000000000E+00 0. -1.
         23    2    1    2    0    0  0.50605004429E+02 -0.19519187349E+03 -0.96731637510E+03  0.99322996503E+03  0.10071772410E+03 0.  0.
         23    2    1    2    0    0  0.61803003581E+01  0.90549357486E+02 -0.22721887216E+03  0.26086967369E+03  0.90483084251E+02 0.  0.
        -13    1    3    3    0    0  0.30132409957E+02 -0.22532429099E+02 -0.72539483566E+02  0.81716884222E+02  0.00000000000E+00 0.  1.
         13    1    3    3    0    0  0.20472594472E+02 -0.17265944439E+03 -0.89477689153E+03  0.91151308080E+03  0.00000000000E+00 0. -1.
        -13    1    4    4    0    0 -0.33563480705E+02  0.49522209471E+02 -0.62452032432E+02  0.86482442280E+02  0.00000000000E+00 0.  1.
         13    1    4    4    0    0  0.39743781063E+02  0.41027148016E+02 -0.16476683972E+03  0.17438723141E+03  0.00000000000E+00 0. -1.
         21    1    1    2  502  501 -0.20789223059E+02  0.13803322321E+03  0.85980691549E+02  0.16394524032E+03  0.00000000000E+00 0.  1.
         21    1    1    2  503  502 -0.35996081728E+02 -0.33390707210E+02 -0.37180560710E+03  0.37503342077E+03  0.00000000000E+00 0. -1.
<scales pt_clust_5="13000.00000" pt_clust_6="13000.00000" pt_clust_7="13000.00000" pt_clust_8="13000.00000" pt_clust_9="141.92378" pt_clust_10="49.09844"></scales>
<clustering>
<clus scale="   49.098">  2 10  1 -1</clus>
<clus scale="   90.483">  7  8 -1 -1</clus>
<clus scale="  100.718">  5  6 -1 -1</clus>
<clus scale="  123.533">  2  7  1 -1</clus>
<clus scale="  141.924">  1  9  2 -1</clus>
<clus scale="   49.098">  2  5  1 -1</clus>
</clustering>
</event>
<event>
10    2  0.1133532E-006  0.9863120E+02  0.7546771E-02  0.1284139E+00
          2   -1    0    0  502    0  0.00000000000E+00  0.00000000000E+00  0.19401296031E+03  0.19401296031E+03  0.00000000000E+00 0. -1.
         -2   -1    0    0    0  501 -0.00000000000E+00 -0.00000000000E+00 -0.16301623805E+03  0.16301623805E+03  0.00000000000E+00 0.  1.
         23    2    1    2    0    0  0.36746108922E+02 -0.32557522801E+02 -0.21229180902E+02  0.10553323795E+03  0.90974267674E+02 0.  0.
         23    2    1    2    0    0  0.74996592189E+01  0.26116006730E+02 -0.47330040438E+01  0.96831837466E+02  0.92820863623E+02 0.  0.
        -13    1    4    4    0    0 -0.15399713038E+02 -0.24707309689E+02 -0.24125902331E+02  0.37810864536E+02  0.00000000000E+00 0.  1.
         13    1    4    4    0    0  0.22899372257E+02  0.50823316418E+02  0.19392898287E+02  0.59020972929E+02  0.00000000000E+00 0. -1.
        -13    1    3    3    0    0  0.16586820533E+01  0.29710793160E+02 -0.16204775194E+02  0.33883287849E+02  0.00000000000E+00 0. -1.
         13    1    3    3    0    0  0.35087426869E+02 -0.62268315961E+02 -0.50244057076E+01  0.71649950102E+02  0.00000000000E+00 0.  1.
         21    1    1    2  502  503  0.47060195291E+02  0.20146486097E+02  0.15776512850E+02  0.53567165695E+02  0.00000000000E+00 0.  1.
         21    1    1    2  503  501 -0.91305963432E+02 -0.13704970026E+02  0.41182394355E+02  0.10109695726E+03  0.00000000000E+00 0. -1.
<scales pt_clust_5="13000.00000" pt_clust_6="13000.00000" pt_clust_7="13000.00000" pt_clust_8="13000.00000" pt_clust_9="51.19124" pt_clust_10="70.45304"></scales>
<clustering>
<clus scale="   51.191">  1  9  2 -1</clus>
<clus scale="   70.453">  1 10  2 -1</clus>
<clus scale="   90.974">  7  8 -1 -1</clus>
<clus scale="   92.821">  5  6 -1 -1</clus>
<clus scale="   96.895">  2  7  1 -1</clus>
<clus scale="   51.191">  1  5  2 -1</clus>
</clustering>
</event>
<event>
10    2  0.1133532E-006  0.1524184E+03  0.7546771E-02  0.1197549E+00
         -3   -1    0    0    0  501 -0.00000000000E+00  0.00000000000E+00  0.31249702032E+03  0.31249702032E+03  0.00000000000E+00 0.  1.
          3   -1    0    0  503    0  0.00000000000E+00 -0.00000000000E+00 -0.47350147864E+03  0.47350147864E+03  0.00000000000E+00 0. -1.
         23    2    1    2    0    0  0.10291258607E+03 -0.10762623133E+03  0.70961130953E+02  0.18870483579E+03  0.91649478467E+02 0.  0.
         23    2    1    2    0    0  0.28558907173E+02  0.16958989989E+03 -0.16326993018E+03  0.25419742039E+03  0.91558249816E+02 0.  0.
        -11    1    3    3    0    0  0.41393004523E+02 -0.50551621351E+00  0.47429872473E+02  0.62954183125E+02  0.00000000000E+00 0.  1.
         11    1    3    3    0    0  0.61519581543E+02 -0.10712071511E+03  0.23531258479E+02  0.12575065266E+03  0.00000000000E+00 0. -1.
        -11    1    4    4    0    0  0.58683577507E+02  0.14328998851E+03 -0.12953922770E+03  0.20188163509E+03  0.00000000000E+00 0.  1.
         11    1    4    4    0    0 -0.30124670334E+02  0.26299911380E+02 -0.33730702475E+02  0.52315785292E+02  0.00000000000E+00 0. -1.
         21    1    1    2  502  501 -0.32187742935E+02  0.29634022299E+02  0.11040906159E+03  0.11876189184E+03  0.00000000000E+00 0.  1.
         21    1    1    2  503  502 -0.99283750304E+02 -0.91597690860E+02 -0.17910472068E+03  0.22433435095E+03  0.00000000000E+00 0. -1.
<scales pt_clust_5="13000.00000" pt_clust_6="13000.00000" pt_clust_7="13000.00000" pt_clust_8="13000.00000" pt_clust_9="43.75187" pt_clust_10="135.58167"></scales>
<clustering>
<clus scale="   43.752">  1  9  2 -1</clus>
<clus scale="   91.558">  7  8 -1 -1</clus>
<clus scale="   91.649">  5  6 -1 -1</clus>
<clus scale="  135.582">  2 10  1 -1</clus>
<clus scale="  152.364">  2  7  1 -1</clus>
<clus scale="  135.582">  2  5  1 -1</clus>
</clustering>
</event>
<event>
10    2  0.1133532E-006  0.1557234E+03  0.7546771E-02  0.1193771E+00
         -2   -1    0    0    0  501 -0.00000000000E+00  0.00000000000E+00  0.15990219254E+03  0.15990219254E+03  0.00000000000E+00 0.  1.
          2   -1    0    0  503    0  0.00000000000E+00 -0.00000000000E+00 -0.30927986091E+03  0.30927986091E+03  0.00000000000E+00 0. -1.
         23    2    1    2    0    0 -0.22368868924E+02 -0.11532475840E+03  0.39159438001E+02  0.15315195771E+03  0.90121553291E+02 0.  0.
         23    2    1    2    0    0  0.79549018220E+02  0.12125543058E+03 -0.94286887928E+02  0.19547867384E+03  0.91054757959E+02 0.  0.
        -11    1    3    3    0    0 -0.14235805940E+01 -0.51147322040E+02  0.63356305718E+02  0.81437685427E+02  0.00000000000E+00 0.  1.
         11    1    3    3    0    0 -0.20945288330E+02 -0.64177436363E+02 -0.24196867717E+02  0.71714272281E+02  0.00000000000E+00 0. -1.
        -13    1    4    4    0    0 -0.19619781871E+02  0.28985388561E+02 -0.12068877047E+02  0.37023592261E+02  0.00000000000E+00 0.  1.
         13    1    4    4    0    0  0.99168800092E+02  0.92270042022E+02 -0.82218010882E+02  0.15845508158E+03  0.00000000000E+00 0. -1.
         21    1    1    2  502  501 -0.20860537181E+02  0.40801134030E+00 -0.17067461992E+01  0.20934217620E+02  0.00000000000E+00 0. -1.
         21    1    1    2  503  502 -0.36319612115E+02 -0.63386835210E+01 -0.92543472242E+02  0.99617204275E+02  0.00000000000E+00 0. -1.
<scales pt_clust_5="13000.00000" pt_clust_6="13000.00000" pt_clust_7="13000.00000" pt_clust_8="13000.00000" pt_clust_9="20.86453" pt_clust_10="37.35068"></scales>
<clustering>
<clus scale="   20.865">  1  9  2 -1</clus>
<clus scale="   37.351">  2 10  1 -1</clus>
<clus scale="   90.122">  5  6 -1 -1</clus>
<clus scale="   91.055">  7  8 -1 -1</clus>
<clus scale="  155.180">  1  5  2 -1</clus>
<clus scale="   37.351">  2  5  1 -1</clus>
</clustering>
</event>
<event>
10    2  0.1133532E-006  0.1901124E+03  0.7546771E-02  0.1158610E+00
         -4   -1    0    0    0  501 -0.00000000000E+00  0.00000000000E+00  0.62299597526E+03  0.62299597526E+03  0.00000000000E+00 0.  1.
          4   -1    0    0  502    0  0.00000000000E+00 -0.00000000000E+00 -0.19936176303E+03  0.19936176303E+03  0.00000000000E+00 0. -1.
         23    2    1    2    0    0  0.22646831170E+03 -0.44849418197E+02  0.36286127569E+03  0.44000201256E+03  0.92919853308E+02 0.  0.
         23    2    1    2    0    0 -0.12683287237E+03  0.52249215756E+02 -0.84605023406E+02  0.18490303141E+03  0.90634226300E+02 0.  0.
        -11    1    3    3    0    0  0.37471910983E+02  0.12721438952E+02  0.12322120987E+03  0.12941964953E+03  0.00000000000E+00 0. -1.
         11    1    3    3    0    0  0.18899640072E+03 -0.57570857149E+02  0.23964006582E+03  0.31058236303E+03  0.00000000000E+00 0.  1.
        -11    1    4    4    0    0 -0.11283588222E+02  0.38346732667E+02  0.17051243173E+01  0.40008733025E+02  0.00000000000E+00 0.  1.
         11    1    4    4    0    0 -0.11554928415E+03  0.13902483089E+02 -0.86310147723E+02  0.14489429838E+03  0.00000000000E+00 0. -1.
         21    1    1    2  502  503 -0.12502656283E+02  0.31640690023E+02  0.18698579634E+02  0.38821212753E+02  0.00000000000E+00 0.  1.
         21    1    1    2  503  501 -0.87132783048E+02 -0.39040487582E+02  0.12667938031E+03  0.15863148158E+03  0.00000000000E+00 0.  1.
<scales pt_clust_5="13000.00000" pt_clust_6="13000.00000" pt_clust_7="13000.00000" pt_clust_8="13000.00000" pt_clust_9="34.02131" pt_clust_10="95.39341"></scales>
<clustering>
<clus scale="   34.021">  2  9  1 -1</clus>
<clus scale="   90.634">  7  8 -1 -1</clus>
<clus scale="   92.920">  5  6 -1 -1</clus>
<clus scale="   95.393">  1 10  2 -1</clus>
<clus scale="  189.006">  2  7  1 -1</clus>
<clus scale="   34.021">  2  5  1 -1</clus>
</clustering>
</event>
<event>
10    2  0.1133532E-006  0.1153546E+03  0.7546771E-02  0.1252082E+00
         -1   -1    0    0    0  501 -0.00000000000E+00  0.00000000000E+00  0.90911128317E+02  0.90911128317E+02  0.00000000000E+00 0.  1.
          1   -1    0    0  503    0  0.00000000000E+00 -0.00000000000E+00 -0.99693282846E+03  0.99693282846E+03  0.00000000000E+00 0. -1.
         23    2    1    2    0    0  0.82348667950E+01  0.21035325581E+02 -0.45369721910E+02  0.10685367194E+03  0.94069110694E+02 0.  0.
         23    2    1    2    0    0 -0.83927423573E+02  0.34545156182E+02 -0.76912609104E+03  0.78052628177E+03  0.97103822666E+02 0.  0.
        -13    1    4    4    0    0 -0.10547650793E+03  0.33963331133E+02 -0.66796841366E+03  0.67709718891E+03  0.00000000000E+00 0. -1.
         13    1    4    4    0    0  0.21549084355E+02  0.58182504871E+00 -0.10115767738E+03  0.10342909286E+03  0.00000000000E+00 0.  1.
        -13    1    3    3    0    0 -0.22263017389E+02  0.49762569403E+02 -0.21258124743E+02  0.58513785764E+02  0.00000000000E+00 0. -1.
         13    1    3    3    0    0  0.30497884184E+02 -0.28727243822E+02 -0.24111597167E+02  0.48339886173E+02  0.00000000000E+00 0.  1.
         21    1    1    2  502  501  0.64673563627E+02 -0.24307454954E+02  0.29391750767E+02  0.75082602590E+02  0.00000000000E+00 0.  1.
         21    1    1    2  503  502  0.11018993151E+02 -0.31273026809E+02 -0.12091763797E+03  0.12538140049E+03  0.00000000000E+00 0.  1.
<scales pt_clust_5="13000.00000" pt_clust_6="13000.00000" pt_clust_7="13000.00000" pt_clust_8="13000.00000" pt_clust_9="69.65119" pt_clust_10="33.15751"></scales>
<clustering>
<clus scale="   33.158">  2 10  1 -1</clus>
<clus scale="   69.651">  1  9  2 -1</clus>
<clus scale="   94.069">  7  8 -1 -1</clus>
<clus scale="   97.104">  5  6 -1 -1</clus>
<clus scale="  112.812">  1  7  2 -1</clus>
<clus scale="   33.158">  2  5  1 -1</clus>
</clustering>
</event>
<event>
10    2  0.1133532E-006  0.9995381E+02  0.7546771E-02  0.1281967E+00
         -2   -1    0    0    0  501 -0.00000000000E+00  0.00000000000E+00  0.18231606541E+03  0.18231606541E+03  0.00000000000E+00 0.  1.
          2   -1    0    0  503    0  0.00000000000E+00 -0.00000000000E+00 -0.18806709634E+03  0.18806709634E+03  0.00000000000E+00 0. -1.
         23    2    1    2    0    0 -0.12703788072E+02 -0.36050304235E+02  0.90652394011E+02  0.13275561502E+03  0.89135773477E+02 0.  0.
         23    2    1    2    0    0  0.46380493400E+02  0.64049863870E+00  0.49392615667E+00  0.10332926138E+03  0.92331640778E+02 0.  0.
        -13    1    3    3    0    0 -0.46747999300E+02 -0.17939328096E+01  0.31535672444E+02  0.56418899936E+02  0.00000000000E+00 0.  1.
         13    1    3    3    0    0  0.34044211228E+02 -0.34256371425E+02  0.59116721567E+02  0.76336715087E+02  0.00000000000E+00 0. -1.
        -13    1    4    4    0    0 -0.26941481836E+02 -0.10279176747E+02 -0.37424748622E+01  0.29077672469E+02  0.00000000000E+00 0.  1.
         13    1    4    4    0    0  0.73321975235E+02  0.10919675385E+02  0.42364010189E+01  0.74251588916E+02  0.00000000000E+00 0. -1.
         21    1    1    2  502  501 -0.21596649465E+02  0.62205161110E+01  0.86826763957E+01  0.24093545986E+02  0.00000000000E+00 0. -1.
         21    1    1    2  503  502 -0.12080055863E+02  0.29189289485E+02 -0.10558002750E+03  0.11020473935E+03  0.00000000000E+00 0. -1.
<scales pt_clust_5="13000.00000" pt_clust_6="13000.00000" pt_clust_7="13000.00000" pt_clust_8="13000.00000" pt_clust_9="22.47465" pt_clust_10="31.78636"></scales>
<clustering>
<clus scale="   22.475">  1  9  2 -1</clus>
<clus scale="   31.786">  2 10  1 -1</clus>
<clus scale="   89.136">  5  6 -1 -1</clus>
<clus scale="   92.332">  7  8 -1 -1</clus>
<clus scale="   97.009">  1  5  2 -1</clus>
<clus scale="   31.786">  2  5  1 -1</clus>
</clustering>
</event>
<event>
10    2  0.1133532E-006  0.1971896E+03  0.7546771E-02  0.1152340E+00
          1   -1    0    0  503    0  0.00000000000E+00  0.00000000000E+00  0.90734723480E+03  0.90734723480E+03  0.00000000000E+00 0. -1.
         -1   -1    0    0    0  501 -0.00000000000E+00 -0.00000000000E+00 -0.44411771647E+03  0.44411771647E+03  0.00000000000E+00 0.  1.
         23    2    1    2    0    0  0.13720205266E+03 -0.13750180868E+03  0.83991050123E+00  0.21486297802E+03  0.91838136020E+02 0.  0.
         23    2    1    2    0    0 -0.17032499819E+03  0.14497673088E+03  0.46615430808E+03  0.52549296540E+03  0.93883759167E+02 0.  0.
        -13    1    4    4    0    0 -0.53714537994E+02  0.68050090102E+02  0.93469016694E+02  0.12748538519E+03  0.00000000000E+00 0.  1.
         13    1    4    4    0    0 -0.11661046019E+03  0.76926640782E+02  0.37268529139E+03  0.39800758021E+03  0.00000000000E+00 0. -1.
        -13    1    3    3    0    0  0.12134354590E+03 -0.12210464337E+03  0.33551334092E+02  0.17538384214E+03  0.00000000000E+00 0. -1.
         13    1    3    3    0    0  0.15858506763E+02 -0.15397165310E+02 -0.32711423591E+02  0.39479135878E+02  0.00000000000E+00 0.  1.
         21    1    1    2  502  501 -0.16334350499E+02  0.41232884344E+02 -0.30182822684E+03  0.30506923850E+03  0.00000000000E+00 0.  1.
         21    1    1    2  503  502  0.49457296024E+02 -0.48707806550E+02  0.29806352659E+03  0.30603976936E+03  0.00000000000E+00 0.  1.
<scales pt_clust_5="13000.00000" pt_clust_6="13000.00000" pt_clust_7="13000.00000" pt_clust_8="13000.00000" pt_clust_9="44.35044" pt_clust_10="68.26690"></scales>
<clustering>
<clus scale="   44.350">  2  9  1 -1</clus>
<clus scale="   68.267">  1 10  2 -1</clus>
<clus scale="   91.838">  7  8 -1 -1</clus>
<clus scale="   93.884">  5  6 -1 -1</clus>
<clus scale="  196.224">  2  7  1 -1</clus>
<clus scale="   68.267">  1  5  2 -1</clus>
</clustering>
</event>
<event>
10    2  0.1133532E-006  0.2577677E+03  0.7546771E-02  0.1108569E+00
         -1   -1    0    0    0  501 -0.00000000000E+00  0.00000000000E+00  0.45418295984E+03  0.45418295984E+03  0.00000000000E+00 0.  1.
          1   -1    0    0  503    0  0.00000000000E+00 -0.00000000000E+00 -0.43249307899E+03  0.43249307899E+03  0.00000000000E+00 0. -1.
         23    2    1    2    0    0  0.84844451914E+02 -0.19679916324E+03  0.19454088836E+03  0.30339870898E+03  0.90973225154E+02 0.  0.
         23    2    1    2    0    0 -0.92539063802E+02  0.20649869963E+03 -0.30860920026E+03  0.39367552745E+03  0.92388263065E+02 0.  0.
        -11    1    4    4    0    0 -0.57735815994E+02  0.11334189425E+03 -0.24376418567E+03  0.27495597403E+03  0.00000000000E+00 0. -1.
         11    1    4    4    0    0 -0.34803247808E+02  0.93156805388E+02 -0.64845014588E+02  0.11871955342E+03  0.00000000000E+00 0.  1.
        -13    1    3    3    0    0  0.61108656897E+02 -0.15173196772E+03  0.19223529476E+03  0.25241090810E+03  0.00000000000E+00 0.  1.
         13    1    3    3    0    0  0.23735795017E+02 -0.45067195518E+02  0.23055936014E+01  0.50987800882E+02  0.00000000000E+00 0. -1.
         21    1    1    2  502  501  0.75941007338E+01 -0.36461270840E+02  0.15319719510E+03  0.15765936453E+03  0.00000000000E+00 0.  1.
         21    1    1    2  503  502  0.10051115428E+00  0.26761734445E+02 -0.17439002358E+02  0.31942437857E+02  0.00000000000E+00 0.  1.
<scales pt_clust_5="13000.00000" pt_clust_6="13000.00000" pt_clust_7="13000.00000" pt_clust_8="13000.00000" pt_clust_9="37.10051" pt_clust_10="26.76192"></scales>
<clustering>
<clus scale="   26.762">  2 10  1 -1</clus>
<clus scale="   37.101">  1  9  2 -1</clus>
<clus scale="   90.973">  7  8 -1 -1</clus>
<clus scale="   92.388">  5  6 -1 -1</clus>
<clus scale="  257.264">  1  7  2 -1</clus>
<clus scale="   26.762">  2  5  1 -1</clus>
</clustering>
</event>
<event>
10    2  0.1133532E-006  0.1644693E+03  0.7546771E-02  0.1184646E+00
          1   -1    0    0  503    0  0.00000000000E+00  0.00000000000E+00  0.14791929851E+03  0.14791929851E+03  0.00000000000E+00 0. -1.
         -1   -1    0    0    0  501 -0.00000000000E+00 -0.00000000000E+00 -0.52442115427E+03  0.52442115427E+03  0.00000000000E+00 0.  1.
         23    2    1    2    0    0  0.12336158990E+03  0.12500988739E+02 -0.26724175978E+03  0.30683013230E+03  0.85745060117E+02 0.  0.
         23    2    1    2    0    0 -0.17612685745E+03 -0.42123569584E+02 -0.11780719443E+03  0.23472659047E+03  0.91776751890E+02 0.  0.
        -11    1    4    4    0    0 -0.30357588371E+02  0.23327863033E+02 -0.45141583301E+02  0.59190665720E+02  0.00000000000E+00 0.  1.
         11    1    4    4    0    0 -0.14576926907E+03 -0.65451432618E+02 -0.72665611131E+02  0.17553592475E+03  0.00000000000E+00 0. -1.
        -13    1    3    3    0    0  0.73990714845E+02 -0.32242371406E+02 -0.17813986163E+03  0.19557097612E+03  0.00000000000E+00 0.  1.
         13    1    3    3    0    0  0.49370875056E+02  0.44743360145E+02 -0.89101898145E+02  0.11125915618E+03  0.00000000000E+00 0. -1.
         21    1    1    2  502  501 -0.64471366739E+01 -0.30919367090E+02 -0.24404537695E+02  0.39914336932E+02  0.00000000000E+00 0. -1.
         21    1    1    2  503  502  0.59212404218E+02  0.60541947936E+02  0.32951636142E+02  0.90869393074E+02  0.00000000000E+00 0.  1.
<scales pt_clust_5="13000.00000" pt_clust_6="13000.00000" pt_clust_7="13000.00000" pt_clust_8="13000.00000" pt_clust_9="31.58438" pt_clust_10="83.12479"></scales>
<clustering>
<clus scale="   31.584">  2  9  1 -1</clus>
<clus scale="   83.125">  1 10  2 -1</clus>
<clus scale="   85.745">  7  8 -1 -1</clus>
<clus scale="   91.777">  5  6 -1 -1</clus>
<clus scale="  161.181">  2  7  1 -1</clus>
<clus scale="   83.125">  1  5  2 -1</clus>
</clustering>
</event>
<event>
10    2  0.1133532E-006  0.2516380E+03  0.7546771E-02  0.1112279E+00
         -1   -1    0    0    0  501 -0.00000000000E+00  0.00000000000E+00  0.19023012127E+03  0.19023012127E+03  0.00000000000E+00 0.  1.
          1   -1    0    0  503    0  0.00000000000E+00 -0.00000000000E+00 -0.90960540719E+03  0.90960540719E+03  0.00000000000E+00 0. -1.
         23    2    1    2    0    0 -0.10281815645E+02 -0.31230427315E+03 -0.26312139588E+03  0.41832852429E+03  0.90145496321E+02 0.  0.
         23    2    1    2    0    0 -0.33680494478E+01  0.21210934617E+03 -0.35892004900E+03  0.42653964575E+03  0.90059698728E+02 0.  0.
        -11    1    4    4    0    0 -0.30132430665E+02  0.33301911908E+02 -0.41029206838E+02  0.60830720267E+02  0.00000000000E+00 0. -1.
         11    1    4    4    0    0  0.26764381217E+02  0.17880743426E+03 -0.31789084217E+03  0.36570892549E+03  0.00000000000E+00 0.  1.
        -11    1    3    3    0    0 -0.34055005611E+02 -0.15916285549E+03 -0.17921593953E+03  0.24209690406E+03  0.00000000000E+00 0. -1.
         11    1    3    3    0    0  0.23773189966E+02 -0.15314141766E+03 -0.83905456351E+02  0.17623162023E+03  0.00000000000E+00 0.  1.
         21    1    1    2  502  501 -0.80054655569E+01  0.12282549098E+03  0.27620454893E+02  0.12614705007E+03  0.00000000000E+00 0.  1.
         21    1    1    2  503  502  0.21655330650E+02 -0.22630563999E+02 -0.12495429592E+03  0.12882030834E+03  0.00000000000E+00 0. -1.
<scales pt_clust_5="13000.00000" pt_clust_6="13000.00000" pt_clust_7="13000.00000" pt_clust_8="13000.00000" pt_clust_9="121.58274" pt_clust_10="31.32245"></scales>
<clustering>
<clus scale="   31.322">  2 10  1 -1</clus>
<clus scale="   90.060">  5  6 -1 -1</clus>
<clus scale="   90.145">  7  8 -1 -1</clus>
<clus scale="  121.583">  1  9  2 -1</clus>
<clus scale="  251.607">  2  5  1 -1</clus>
<clus scale="   31.322">  2  5  1 -1</clus>
</clustering>
</event>
<event>
10    2  0.1133532E-006  0.1268256E+03  0.7546771E-02  0.1242730E+00
          4   -1    0    0  503    0  0.00000000000E+00  0.00000000000E+00  0.84964938289E+03  0.84964938289E+03  0.00000000000E+00 0. -1.
         -4   -1    0    0    0  501 -0.00000000000E+00 -0.00000000000E+00 -0.10706091652E+03  0.10706091652E+03  0.00000000000E+00 0.  1.
         23    2    1    2    0    0  0.56518841670E+02  0.75082528608E+01  0.20913342701E+03  0.23451515343E+03  0.89497561803E+02 0.  0.
         23    2    1    2    0    0  0.57861943050E+02  0.29873892991E+02  0.18851642432E+03  0.21881731482E+03  0.90011783061E+02 0.  0.
        -11    1    4    4    0    0  0.33001494097E+02  0.18472330587E+02  0.18768171303E+03  0.19145430529E+03  0.00000000000E+00 0. -1.
         11    1    4    4    0    0  0.24860448954E+02  0.11401562404E+02  0.83471129374E+00  0.27363009527E+02  0.00000000000E+00 0.  1.
        -11    1    3    3    0    0 -0.20690839689E+02  0.17577188940E+02  0.69926698578E+02  0.75012076308E+02  0.00000000000E+00 0. -1.
         11    1    3    3    0    0  0.77209681359E+02 -0.10068936079E+02  0.13920672844E+03  0.15950307712E+03  0.00000000000E+00 0.  1.
         21    1    1    2  502  501 -0.18043359854E+02 -0.13669245402E+02 -0.71648615064E+02  0.75139438016E+02  0.00000000000E+00 0.  1.
         21    1    1    2  503  502 -0.96337424866E+02 -0.23712900450E+02  0.41658723010E+03  0.42823839314E+03  0.00000000000E+00 0. -1.
<scales pt_clust_5="13000.00000" pt_clust_6="13000.00000" pt_clust_7="13000.00000" pt_clust_8="13000.00000" pt_clust_9="22.63650" pt_clust_10="89.34544"></scales>
<clustering>
<clus scale="   22.636">  2  9  1 -1</clus>
<clus scale="   89.498">  7  8 -1 -1</clus>
<clus scale="   90.012">  5  6 -1 -1</clus>
<clus scale="  102.407">  2  7  1 -1</clus>
<clus scale="   89.345">  1 10  2 -1</clus>
<clus scale="   89.345">  1  5  2 -1</clus>
</clustering>
</event>
<event>
10    2  0.1133532E-006  0.1074838E+03  0.7546771E-02  0.1266339E+00
          1   -1    0    0  503    0  0.00000000000E+00  0.00000000000E+00  0.17652806551E+03  0.17652806551E+03  0.00000000000E+00 0. -1.
         -1   -1    0    0    0  501 -0.00000000000E+00 -0.00000000000E+00 -0.27051776343E+03  0.27051776343E+03  0.00000000000E+00 0.  1.
         23    2    1    2    0    0 -0.28339529220E+02 -0.84315160694E+02 -0.49528921188E-01  0.12649153015E+03  0.89932916706E+02 0.  0.
         23    2    1    2    0    0 -0.16669805078E+01  0.39590112980E+02  0.56413719719E+02  0.11531620961E+03  0.92440059268E+02 0.  0.
        -11    1    3    3    0    0 -0.42594628748E+02 -0.31681326660E+02 -0.33260583420E+02  0.62644036161E+02  0.00000000000E+00 0.  1.
         11    1    3    3    0    0  0.14255099528E+02 -0.52633834034E+02  0.33211054499E+02  0.63847493988E+02  0.00000000000E+00 0. -1.
        -13    1    4    4    0    0 -0.41169820723E+02  0.44496588118E+02  0.37090971806E+02  0.71067859698E+02  0.00000000000E+00 0. -1.
         13    1    4    4    0    0  0.39502840216E+02 -0.49064751384E+01  0.19322747914E+02  0.44248349916E+02  0.00000000000E+00 0.  1.
         21    1    1    2  502  501  0.66902690558E+02  0.51255723368E+02 -0.14454446507E+03  0.16732071469E+03  0.00000000000E+00 0.  1.
         21    1    1    2  503  502 -0.36896180830E+02 -0.65306756542E+01 -0.58094236442E+01  0.37917374479E+02  0.00000000000E+00 0.  1.
<scales pt_clust_5="13000.00000" pt_clust_6="13000.00000" pt_clust_7="13000.00000" pt_clust_8="13000.00000" pt_clust_9="81.92881" pt_clust_10="37.46969"></scales>
<clustering>
<clus scale="   37.470">  1 10  2 -1</clus>
<clus scale="   81.929">  2  9  1 -1</clus>
<clus scale="   89.933">  5  6 -1 -1</clus>
<clus scale="   92.440">  7  8 -1 -1</clus>
<clus scale="  105.335">  2  5  1 -1</clus>
<clus scale="   37.470">  1  5  2 -1</clus>
</clustering>
</event>
<event>
10    2  0.1133532E-006  0.9919394E+02  0.7546771E-02  0.1282489E+00
         -2   -1    0    0    0  501 -0.00000000000E+00  0.00000000000E+00  0.43034504364E+02  0.43034504364E+02  0.00000000000E+00 0.  1.
          2   -1    0    0  503    0  0.00000000000E+00 -0.00000000000E+00 -0.61253546559E+03  0.61253546559E+03  0.00000000000E+00 0. -1.
         23    2    1    2    0    0  0.15942794314E+02 -0.58892381179E+01 -0.52586645833E+02  0.10818565938E+03  0.93004977070E+02 0.  0.
         23    2    1    2    0    0 -0.23470642854E+02  0.12600532312E+01 -0.34317585555E+03  0.35658481381E+03  0.93971287106E+02 0.  0.
        -11    1    4    4    0    0  0.15574972136E+02 -0.38197171422E+02 -0.15456588490E+03  0.15997567451E+03  0.00000000000E+00 0.  1.
         11    1    4    4    0    0 -0.39045614990E+02  0.39457224653E+02 -0.18860997065E+03  0.19660913930E+03  0.00000000000E+00 0. -1.
        -13    1    3    3    0    0 -0.25539255564E+02 -0.19442114210E+02 -0.55857984685E+02  0.64423317462E+02  0.00000000000E+00 0. -1.
         13    1    3    3    0    0  0.41482049877E+02  0.13552876093E+02  0.32713388520E+01  0.43762341920E+02  0.00000000000E+00 0.  1.
         21    1    1    2  502  501  0.24937987187E+02  0.19052640268E+02 -0.24381894644E+02  0.39741453076E+02  0.00000000000E+00 0. -1.
         21    1    1    2  503  502 -0.17410138647E+02 -0.14423455382E+02 -0.14935656520E+03  0.15105804369E+03  0.00000000000E+00 0. -1.
<scales pt_clust_5="13000.00000" pt_clust_6="13000.00000" pt_clust_7="13000.00000" pt_clust_8="13000.00000" pt_clust_9="29.81663" pt_clust_10="22.60860"></scales>
<clustering>
<clus scale="   22.609">  2 10  1 -1</clus>
<clus scale="   29.817">  1  9  2 -1</clus>
<clus scale="   93.005">  7  8 -1 -1</clus>
<clus scale="   93.971">  5  6 -1 -1</clus>
<clus scale="   98.279">  1  7  2 -1</clus>
<clus scale="   22.609">  2  5  1 -1</clus>
</clustering>
</event>
<event>
10    2  0.1133532E-006  0.1157053E+03  0.7546771E-02  0.1260222E+00
         -1   -1    0    0    0  501 -0.00000000000E+00  0.00000000000E+00  0.18429450221E+03  0.18429450221E+03  0.00000000000E+00 0.  1.
          1   -1    0    0  503    0  0.00000000000E+00 -0.00000000000E+00 -0.28369637787E+03  0.28369637787E+03  0.00000000000E+00 0. -1.
         23    2    1    2    0    0 -0.10112414507E+01 -0.24630227643E+02  0.73471599271E+02  0.13888950846E+03  0.11525861763E+03 0.  0.
         23    2    1    2    0    0  0.31088607184E+02 -0.50786558936E+02 -0.38722267392E+02  0.11831554794E+03  0.94622295620E+02 0.  0.
        -11    1    3    3    0    0  0.36544977666E+02  0.29713113141E+02  0.50239662437E+02  0.68865290001E+02  0.00000000000E+00 0. -1.
         11    1    3    3    0    0 -0.37556219117E+02 -0.54343340784E+02  0.23231936834E+02  0.70024218460E+02  0.00000000000E+00 0.  1.
        -13    1    4    4    0    0  0.31239876753E+02 -0.77746133260E+02 -0.22137886950E+02  0.86663009266E+02  0.00000000000E+00 0.  1.
         13    1    4    4    0    0 -0.15126956939E+00  0.26959574324E+02 -0.16584380442E+02  0.31652538679E+02  0.00000000000E+00 0. -1.
         21    1    1    2  502  501 -0.60228382876E+02  0.33097145621E+02 -0.19627428735E+01  0.68751229165E+02  0.00000000000E+00 0. -1.
         21    1    1    2  503  502  0.30151017143E+02  0.42319640957E+02 -0.13218846466E+03  0.14203459450E+03  0.00000000000E+00 0. -1.
<scales pt_clust_5="13000.00000" pt_clust_6="13000.00000" pt_clust_7="13000.00000" pt_clust_8="13000.00000" pt_clust_9="68.40781" pt_clust_10="51.96187"></scales>
<clustering>
<clus scale="   51.962">  2 10  1 -1</clus>
<clus scale="   68.408">  2  9  1 -1</clus>
<clus scale="   94.622">  7  8 -1 -1</clus>
<clus scale="   95.166">  2  7  1 -1</clus>
<clus scale="  115.259">  5  6 -1 -1</clus>
<clus scale="   51.962">  2  5  1 -1</clus>
</clustering>
</event>
<event>
10    2  0.1133532E-006  0.1021118E+03  0.7546771E-02  0.1277096E+00
         -1   -1    0    0    0  501 -0.00000000000E+00  0.00000000000E+00  0.25746576493E+02  0.25746576493E+02  0.00000000000E+00 0.  1.
          1   -1    0    0  503    0  0.00000000000E+00 -0.00000000000E+00 -0.15204392975E+04  0.15204392975E+04  0.00000000000E+00 0. -1.
         23    2    1    2    0    0 -0.15316961047E+02 -0.76279183231E+01 -0.21391777045E+03  0.23639044167E+03  0.99130388714E+02 0.  0.
         23    2    1    2    0    0  0.21371953576E+02 -0.83652165583E+02 -0.49545131997E+03  0.51214542889E+03  0.96780600720E+02 0.  0.
        -13    1    4    4    0    0 -0.18411778963E+02  0.11917817707E+02 -0.46486316032E+02  0.51400443205E+02  0.00000000000E+00 0. -1.
         13    1    4    4    0    0  0.39783732539E+02 -0.95569983290E+02 -0.44896500393E+03  0.46074498569E+03  0.00000000000E+00 0.  1.
        -13    1    3    3    0    0  0.43256973469E+01 -0.51746511157E+02 -0.10060943636E+03  0.11321957321E+03  0.00000000000E+00 0.  1.
         13    1    3    3    0    0 -0.19642658394E+02  0.44118592834E+02 -0.11330833409E+03  0.12317086846E+03  0.00000000000E+00 0. -1.
         21    1    1    2  502  501  0.25162817723E+02 -0.81174424558E+00 -0.50574292840E+02  0.56494118462E+02  0.00000000000E+00 0. -1.
         21    1    1    2  503  502 -0.31217810252E+02  0.92091828152E+02 -0.73474933777E+03  0.74115588498E+03  0.00000000000E+00 0. -1.
<scales pt_clust_5="13000.00000" pt_clust_6="13000.00000" pt_clust_7="13000.00000" pt_clust_8="13000.00000" pt_clust_9="25.17591" pt_clust_10="96.05264"></scales>
<clustering>
<clus scale="   25.176">  1  9  2 -1</clus>
<clus scale="   96.053">  2 10  1 -1</clus>
<clus scale="   96.781">  5  6 -1 -1</clus>
<clus scale="   99.130">  7  8 -1 -1</clus>
<clus scale="   99.832">  2  5  1 -1</clus>
<clus scale="   96.053">  2  5  1 -1</clus>
</clustering>
</event>
<event>
10    2  0.1133532E-006  0.1618177E+03  0.7546771E-02  0.1186988E+00
          1   -1    0    0  503    0  0.00000000000E+00  0.00000000000E+00  0.46008185564E+03  0.46008185564E+03  0.00000000000E+00 0. -1.
         -1   -1    0    0    0  501 -0.00000000000E+00 -0.00000000000E+00 -0.91858120415E+02  0.91858120415E+02  0.00000000000E+00 0.  1.
         23    2    1    2    0    0 -0.14860568278E+03 -0.66011426015E+01  0.16361849925E+03  0.23841403197E+03  0.89123584445E+02 0.  0.
         23    2    1    2    0    0  0.11820569765E+03 -0.35163304384E+02  0.14136218262E+03  0.20860042011E+03  0.91224030066E+02 0.  0.
        -11    1    3    3    0    0 -0.81742134177E+02  0.20117879299E+01  0.14819541150E+03  0.16925632568E+03  0.00000000000E+00 0. -1.
         11    1    3    3    0    0 -0.66863548601E+02 -0.86129305313E+01  0.15423087747E+02  0.69157706292E+02  0.00000000000E+00 0.  1.
        -13    1    4    4    0    0  0.11602466454E+03 -0.13421814728E+02  0.14527247286E+03  0.18640268041E+03  0.00000000000E+00 0.  1.
         13    1    4    4    0    0  0.21810331137E+01 -0.21741489656E+02 -0.39102902446E+01  0.22197739698E+02  0.00000000000E+00 0. -1.
         21    1    1    2  502  501  0.24874886731E+02  0.19841019801E+02 -0.57397560285E+01  0.32332195346E+02  0.00000000000E+00 0. -1.
         21    1    1    2  503  502  0.55250983979E+01  0.21923427184E+02  0.68982809379E+02  0.72593328630E+02  0.00000000000E+00 0. -1.
<scales pt_clust_5="13000.00000" pt_clust_6="13000.00000" pt_clust_7="13000.00000" pt_clust_8="13000.00000" pt_clust_9="32.43646" pt_clust_10="22.60892"></scales>
<clustering>
<clus scale="   22.609">  1 10  2 -1</clus>
<clus scale="   32.436">  2  9  1 -1</clus>
<clus scale="   89.124">  5  6 -1 -1</clus>
<clus scale="   91.224">  7  8 -1 -1</clus>
<clus scale="  160.643">  2  5  1 -1</clus>
<clus scale="   22.609">  1  5  2 -1</clus>
</clustering>
</event>
<event>
10    2  0.1133532E-006  0.9589467E+02  0.7546771E-02  0.1291401E+00
          2   -1    0    0  502    0  0.00000000000E+00  0.00000000000E+00  0.23619890900E+03  0.23619890900E+03  0.00000000000E+00 0. -1.
         -2   -1    0    0    0  501 -0.00000000000E+00 -0.00000000000E+00 -0.10396806200E+03  0.10396806200E+03  0.00000000000E+00 0.  1.
         23    2    1    2    0    0 -0.27817657426E+01 -0.28015704363E+01 -0.16540870372E+02  0.92862715654E+02  0.91292368511E+02 0.  0.
         23    2    1    2    0    0  0.17025337440E+02  0.23500815096E+02  0.66378679538E+02  0.11965892970E+03  0.95236442258E+02 0.  0.
        -11    1    4    4    0    0  0.21462262141E+02 -0.17395354742E+02  0.72945658874E+02  0.78001898768E+02  0.00000000000E+00 0. -1.
         11    1    4    4    0    0 -0.44369247004E+01  0.40896169838E+02 -0.65669793367E+01  0.41657030929E+02  0.00000000000E+00 0.  1.
        -11    1    3    3    0    0  0.28286628434E+02  0.19350062932E+02 -0.36275531243E+02  0.49904633559E+02  0.00000000000E+00 0.  1.
         11    1    3    3    0    0 -0.31068394176E+02 -0.22151633369E+02  0.19734660871E+02  0.42958082095E+02  0.00000000000E+00 0. -1.
         21    1    1    2  502  503 -0.29714595615E+02  0.30638466172E+02  0.26740960721E+02  0.50366176967E+02  0.00000000000E+00 0.  1.
         21    1    1    2  503  501  0.15471023917E+02 -0.51337710832E+02  0.55652077112E+02  0.77279148684E+02  0.00000000000E+00 0. -1.
<scales pt_clust_5="13000.00000" pt_clust_6="13000.00000" pt_clust_7="13000.00000" pt_clust_8="13000.00000" pt_clust_9="42.68106" pt_clust_10="41.39847"></scales>
<clustering>
<clus scale="   42.681">  1  9  2 -1</clus>
<clus scale="   41.398">  1 10  2 -1</clus>
<clus scale="   91.292">  7  8 -1 -1</clus>
<clus scale="   91.979">  2  7  1 -1</clus>
<clus scale="   95.236">  5  6 -1 -1</clus>
<clus scale="   42.681">  1  5  2 -1</clus>
</clustering>
</event>
<event>
10    2  0.1133532E-006  0.1658158E+03  0.7546771E-02  0.1182319E+00
          2   -1    0    0  503    0  0.00000000000E+00  0.00000000000E+00  0.30447545877E+03  0.30447545877E+03  0.00000000000E+00 0. -1.
         -2   -1    0    0    0  501 -0.00000000000E+00 -0.00000000000E+00 -0.29410770025E+03  0.29410770025E+03  0.00000000000E+00 0.  1.
         23    2    1    2    0    0  0.14966285067E+03  0.30516084000E+02 -0.15778124058E+03  0.23798678282E+03  0.91720164987E+02 0.  0.
         23    2    1    2    0    0 -0.10449158814E+03 -0.53473882867E+02 -0.20010871865E+02  0.15015599437E+03  0.91479175297E+02 0.  0.
        -13    1    4    4    0    0 -0.53306865985E+02 -0.74533747482E+02 -0.23811210632E+02  0.94677744093E+02  0.00000000000E+00 0.  1.
         13    1    4    4    0    0 -0.51184722150E+02  0.21059864615E+02  0.38003387672E+01  0.55478250278E+02  0.00000000000E+00 0. -1.
        -13    1    3    3    0    0  0.46993725886E+01 -0.20661694334E+02 -0.36373775000E+02  0.42095620000E+02  0.00000000000E+00 0.  1.
         13    1    3    3    0    0  0.14496347808E+03  0.51177778334E+02 -0.12140746558E+03  0.19589116282E+03  0.00000000000E+00 0. -1.
         21    1    1    2  502  501 -0.22447358799E+02  0.20962787853E+02  0.12264065268E+02  0.33071584307E+02  0.00000000000E+00 0.  1.
         21    1    1    2  503  502 -0.22723903735E+02  0.19950110137E+01  0.17589580570E+03  0.17736879752E+03  0.00000000000E+00 0. -1.
<scales pt_clust_5="13000.00000" pt_clust_6="13000.00000" pt_clust_7="13000.00000" pt_clust_8="13000.00000" pt_clust_9="33.99118" pt_clust_10="22.81131"></scales>
<clustering>
<clus scale="   22.811">  1 10  2 -1</clus>
<clus scale="   33.991">  1  9  2 -1</clus>
<clus scale="   91.479">  5  6 -1 -1</clus>
<clus scale="   91.720">  7  8 -1 -1</clus>
<clus scale="  165.683">  1  5  2 -1</clus>
<clus scale="   22.811">  1  5  2 -1</clus>
</clustering>
</event>
<event>
10    2  0.1133532E-006  0.1092990E+03  0.7546771E-02  0.1263540E+00
         -1   -1    0    0    0  501 -0.00000000000E+00  0.00000000000E+00  0.22786747303E+02  0.22786747303E+02  0.00000000000E+00 0.  1.
          1   -1    0    0  503    0  0.00000000000E+00 -0.00000000000E+00 -0.14683992369E+04  0.14683992369E+04  0.00000000000E+00 0. -1.
         23    2    1    2    0    0  0.77606022396E+02 -0.44391826419E+01 -0.60633185219E+03  0.61869914389E+03  0.95435394967E+02 0.  0.
         23    2    1    2    0    0 -0.26388311746E+02 -0.32624130242E+02 -0.42863820700E+03  0.44027815290E+03  0.91397278648E+02 0.  0.
        -11    1    3    3    0    0  0.76873736335E+02  0.33945189247E+02 -0.44470577540E+03  0.45257604210E+03  0.00000000000E+00 0.  1.
         11    1    3    3    0    0  0.73228606145E+00 -0.38384371889E+02 -0.16162607680E+03  0.16612310179E+03  0.00000000000E+00 0. -1.
        -11    1    4    4    0    0 -0.25631847913E+02 -0.62211012120E+02 -0.34645363174E+03  0.35292679213E+03  0.00000000000E+00 0. -1.
         11    1    4    4    0    0 -0.75646383276E+00  0.29586881878E+02 -0.82184575265E+02  0.87351360770E+02  0.00000000000E+00 0.  1.
         21    1    1    2  502  501  0.28698365801E+02 -0.45089819186E-01 -0.30059508166E+02  0.41559262071E+02  0.00000000000E+00 0.  1.
         21    1    1    2  503  502 -0.79916076451E+02  0.37108402703E+02 -0.38058292226E+03  0.39064942537E+03  0.00000000000E+00 0. -1.
<scales pt_clust_5="13000.00000" pt_clust_6="13000.00000" pt_clust_7="13000.00000" pt_clust_8="13000.00000" pt_clust_9="28.69840" pt_clust_10="80.49460"></scales>
<clustering>
<clus scale="   28.698">  1  9  2 -1</clus>
<clus scale="   80.495">  1 10  2 -1</clus>
<clus scale="   91.397">  7  8 -1 -1</clus>
<clus scale="   95.435">  5  6 -1 -1</clus>
<clus scale="  105.791">  2  7  1 -1</clus>
<clus scale="  105.791">  2  5  1 -1</clus>
</clustering>
</event>
<event>
10    2  0.1133532E-006  0.1224973E+03  0.7546771E-02  0.1240639E+00
         -1   -1    0    0    0  501 -0.00000000000E+00  0.00000000000E+00  0.53775999981E+03  0.53775999981E+03  0.00000000000E+00 0.  1.
          1   -1    0    0  503    0  0.00000000000E+00 -0.00000000000E+00 -0.27974710476E+03  0.27974710476E+03  0.00000000000E+00 0. -1.
         23    2    1    2    0    0  0.99394825796E+02  0.83722201903E+01  0.45929752168E+03  0.47783379856E+03  0.86148129121E+02 0.  0.
         23    2    1    2    0    0 -0.45403017857E+02 -0.24757765501E+02 -0.14860143635E+03  0.18200555365E+03  0.91483625261E+02 0.  0.
        -11    1    3    3    0    0  0.77817227597E+02  0.18280046601E+01  0.44355684924E+03  0.45033492095E+03  0.00000000000E+00 0.  1.
         11    1    3    3    0    0  0.21577598199E+02  0.65442155302E+01  0.15740672440E+02  0.27498877610E+02  0.00000000000E+00 0. -1.
        -13    1    4    4    0    0 -0.28405059556E+02 -0.11822707684E+02 -0.15630088547E+03  0.15930031584E+03  0.00000000000E+00 0. -1.
         13    1    4    4    0    0 -0.16997958301E+02 -0.12935057817E+02  0.76994491288E+01  0.22705237810E+02  0.00000000000E+00 0.  1.
         21    1    1    2  502  501 -0.17877803546E+02 -0.33507850732E+02  0.34240167465E+02  0.51134929240E+02  0.00000000000E+00 0. -1.
         21    1    1    2  503  502 -0.36114004393E+02  0.49893396043E+02 -0.86923357744E+02  0.10653282313E+03  0.00000000000E+00 0. -1.
<scales pt_clust_5="13000.00000" pt_clust_6="13000.00000" pt_clust_7="13000.00000" pt_clust_8="13000.00000" pt_clust_9="37.97884" pt_clust_10="61.26575"></scales>
<clustering>
<clus scale="   37.979">  1  9  2 -1</clus>
<clus scale="   61.266">  2 10  1 -1</clus>
<clus scale="   86.148">  5  6 -1 -1</clus>
<clus scale="   91.484">  7  8 -1 -1</clus>
<clus scale="  118.566">  1  5  2 -1</clus>
<clus scale="   61.266">  2  5  1 -1</clus>
</clustering>
</event>
<event>
10    2  0.1133532E-006  0.1271417E+03  0.7546771E-02  0.1235251E+00
          1   -1    0    0  503    0  0.00000000000E+00  0.00000000000E+00  0.22917521105E+03  0.22917521105E+03  0.00000000000E+00 0. -1.
         -1   -1    0    0    0  501 -0.00000000000E+00 -0.00000000000E+00 -0.15396473625E+03  0.15396473625E+03  0.00000000000E+00 0.  1.
         23    2    1    2    0    0 -0.37136593619E+02  0.47526606404E+02 -0.64346466723E+02  0.12634454149E+03  0.90468616014E+02 0.  0.
         23    2    1    2    0    0  0.68460414808E+02 -0.39490441870E+02  0.96750108356E+02  0.16109102519E+03  0.10170256406E+03 0.  0.
        -11    1    3    3    0    0  0.23093066960E+02  0.23235924137E+02 -0.50095122381E+02  0.59855820089E+02  0.00000000000E+00 0.  1.
         11    1    3    3    0    0 -0.60229660579E+02  0.24290682267E+02 -0.14251344342E+02  0.66488721405E+02  0.00000000000E+00 0. -1.
        -11    1    4    4    0    0  0.89676061199E+02 -0.48977649970E+02  0.91732675629E+02  0.13731529386E+03  0.00000000000E+00 0. -1.
         11    1    4    4    0    0 -0.21215646391E+02  0.94872081000E+01  0.50174327270E+01  0.23775731335E+02  0.00000000000E+00 0.  1.
         21    1    1    2  502  501 -0.20435725717E+02  0.15512043521E+02 -0.16819843717E+02  0.30678160350E+02  0.00000000000E+00 0.  1.
         21    1    1    2  503  502 -0.10888095471E+02 -0.23548208054E+02  0.59626676887E+02  0.65026220266E+02  0.00000000000E+00 0.  1.
<scales pt_clust_5="13000.00000" pt_clust_6="13000.00000" pt_clust_7="13000.00000" pt_clust_8="13000.00000" pt_clust_9="25.65623" pt_clust_10="25.83469"></scales>
<clustering>
<clus scale="   25.656">  2  9  1 -1</clus>
<clus scale="   25.835">  1 10  2 -1</clus>
<clus scale="   90.469">  5  6 -1 -1</clus>
<clus scale="  101.703">  7  8 -1 -1</clus>
<clus scale="  118.348">  2  5  1 -1</clus>
<clus scale="   25.835">  1  5  2 -1</clus>
</clustering>
</event>
<event>
10    2  0.1133532E-006  0.1259207E+03  0.7546771E-02  0.1236677E+00
         -1   -1    0    0    0  501 -0.00000000000E+00  0.00000000000E+00  0.41301583947E+03  0.41301583947E+03  0.00000000000E+00 0.  1.
          1   -1    0    0  503    0  0.00000000000E+00 -0.00000000000E+00 -0.15278360453E+03  0.15278360453E+03  0.00000000000E+00 0. -1.
         23    2    1    2    0    0 -0.92438314502E+02 -0.51556868629E+02  0.22424429346E+03  0.26549298854E+03  0.94858163195E+02 0.  0.
         23    2    1    2    0    0  0.54836834341E+02  0.27325841111E+02  0.11481238198E+02  0.10501578342E+03  0.84514590122E+02 0.  0.
        -13    1    3    3    0    0 -0.39783786910E+02  0.22066033888E+02  0.11469376629E+03  0.12338686955E+03  0.00000000000E+00 0. -1.
         13    1    3    3    0    0 -0.52654527592E+02 -0.73622902516E+02  0.10955052718E+03  0.14210611899E+03  0.00000000000E+00 0.  1.
        -13    1    4    4    0    0  0.33800887489E+02  0.42894280463E+02 -0.25046109673E+02  0.60081002832E+02  0.00000000000E+00 0. -1.
         13    1    4    4    0    0  0.21035946853E+02 -0.15568439352E+02  0.36527347872E+02  0.44934780587E+02  0.00000000000E+00 0.  1.
         21    1    1    2  502  501  0.95607735980E+01  0.26710838131E+02  0.10565538474E+03  0.10939806941E+03  0.00000000000E+00 0. -1.
         21    1    1    2  503  502  0.28040706562E+02 -0.24798106140E+01 -0.81148681458E+02  0.85892602636E+02  0.00000000000E+00 0. -1.
<scales pt_clust_5="13000.00000" pt_clust_6="13000.00000" pt_clust_7="13000.00000" pt_clust_8="13000.00000" pt_clust_9="28.57207" pt_clust_10="28.15015"></scales>
<clustering>
<clus scale="   28.150">  2 10  1 -1</clus>
<clus scale="   28.572">  1  9  2 -1</clus>
<clus scale="   84.515">  7  8 -1 -1</clus>
<clus scale="   94.858">  5  6 -1 -1</clus>
<clus scale="  118.324">  2  7  1 -1</clus>
<clus scale="   28.150">  2  5  1 -1</clus>
</clustering>
</event>
<event>
10    2  0.1133532E-006  0.1526752E+03  0.7546771E-02  0.1198002E+00
         -1   -1    0    0    0  501 -0.00000000000E+00  0.00000000000E+00  0.22655298425E+03  0.22655298425E+03  0.00000000000E+00 0.  1.
          1   -1    0    0  503    0  0.00000000000E+00 -0.00000000000E+00 -0.34983797253E+03  0.34983797253E+03  0.00000000000E+00 0. -1.
         23    2    1    2    0    0 -0.86637779079E+02 -0.33953172465E+02 -0.71891637375E+02  0.14867316201E+03  0.90974605758E+02 0.  0.
         23    2    1    2    0    0  0.14937601856E+03  0.20243749131E+02 -0.15604438101E+03  0.23691137558E+03  0.95153280212E+02 0.  0.
        -13    1    3    3    0    0 -0.58673486108E+02  0.25850511930E+02 -0.35735432766E+02  0.73401962467E+02  0.00000000000E+00 0.  1.
         13    1    3    3    0    0 -0.27964292971E+02 -0.59803684395E+02 -0.36156204609E+02  0.75271199541E+02  0.00000000000E+00 0. -1.
        -13    1    4    4    0    0  0.10173032871E+03  0.19315197962E+02 -0.15835035808E+03  0.18920087884E+03  0.00000000000E+00 0. -1.
         13    1    4    4    0    0  0.47645689850E+02  0.92855116886E+00  0.23059770701E+01  0.47710496736E+02  0.00000000000E+00 0.  1.
         21    1    1    2  502  501 -0.49688982042E+02  0.46976356552E+02  0.13007300735E+03  0.14695155751E+03  0.00000000000E+00 0.  1.
         21    1    1    2  503  502 -0.13049257441E+02 -0.33266933217E+02 -0.25421977256E+02  0.43854861681E+02  0.00000000000E+00 0. -1.
<scales pt_clust_5="13000.00000" pt_clust_6="13000.00000" pt_clust_7="13000.00000" pt_clust_8="13000.00000" pt_clust_9="68.02739" pt_clust_10="35.73474"></scales>
<clustering>
<clus scale="   35.735">  2 10  1 -1</clus>
<clus scale="   68.027">  1  9  2 -1</clus>
<clus scale="   90.975">  5  6 -1 -1</clus>
<clus scale="   95.153">  7  8 -1 -1</clus>
<clus scale="  150.106">  1  5  2 -1</clus>
<clus scale="   35.735">  2  5  1 -1</clus>
</clustering>
</event>
<event>
10    2  0.1133532E-006  0.2152566E+03  0.7546771E-02  0.1157136E+00
         -3   -1    0    0    0  501 -0.00000000000E+00  0.00000000000E+00  0.47965522434E+03  0.47965522434E+03  0.00000000000E+00 0.  1.
          3   -1    0    0  503    0  0.00000000000E+00 -0.00000000000E+00 -0.31884590183E+03  0.31884590183E+03  0.00000000000E+00 0. -1.
         23    2    1    2    0    0  0.90196992303E+02 -0.57056377311E+02  0.68477020830E+02  0.15312693927E+03  0.85836061981E+02 0.  0.
         23    2    1    2    0    0  0.16732894365E+03 -0.55262868328E+02 -0.15407786967E+03  0.25466058065E+03  0.10029487233E+03 0.  0.
        -11    1    3    3    0    0 -0.74376174820E+01 -0.36281064257E+02  0.15872018948E+02  0.40293358794E+02  0.00000000000E+00 0. -1.
         11    1    3    3    0    0  0.97634609785E+02 -0.20775313054E+02  0.52605001881E+02  0.11283358048E+03  0.00000000000E+00 0.  1.
        -13    1    4    4    0    0  0.16896219378E+03 -0.25384492956E+02 -0.14282499483E+03  0.22269165803E+03  0.00000000000E+00 0. -1.
         13    1    4    4    0    0 -0.16332501364E+01 -0.29878375372E+02 -0.11252874848E+02  0.31968922616E+02  0.00000000000E+00 0.  1.
         21    1    1    2  502  501 -0.23132443572E+02 -0.15069157040E+02  0.57630290536E+02  0.63901798306E+02  0.00000000000E+00 0.  1.
         21    1    1    2  503  502 -0.23439349238E+03  0.12738840268E+03  0.18877988082E+03  0.32681180794E+03  0.00000000000E+00 0.  1.
<scales pt_clust_5="13000.00000" pt_clust_6="13000.00000" pt_clust_7="13000.00000" pt_clust_8="13000.00000" pt_clust_9="27.60778" pt_clust_10="190.46353"></scales>
<clustering>
<clus scale="   27.608">  1  9  2 -1</clus>
<clus scale="   85.836">  5  6 -1 -1</clus>
<clus scale="  100.295">  7  8 -1 -1</clus>
<clus scale="  134.771">  1  5  2 -1</clus>
<clus scale="  190.464">  1 10  2 -1</clus>
<clus scale="  215.257">  2  5  1 -1</clus>
</clustering>
</event>
<event>
10    2  0.1133532E-006  0.1342798E+03  0.7546771E-02  0.1221282E+00
          2   -1    0    0  503    0  0.00000000000E+00  0.00000000000E+00  0.27018552586E+03  0.27018552586E+03  0.00000000000E+00 0. -1.
         -2   -1    0    0    0  501 -0.00000000000E+00 -0.00000000000E+00 -0.16470060337E+03  0.16470060337E+03  0.00000000000E+00 0.  1.
         23    2    1    2    0    0 -0.62704939624E+02  0.42322815828E+02 -0.55212451096E+02  0.13007754652E+03  0.90269724494E+02 0.  0.
         23    2    1    2    0    0  0.86478321590E+02 -0.58931800818E+02  0.14448470479E+03  0.19986022708E+03  0.90093413737E+02 0.  0.
        -11    1    3    3    0    0  0.14409116836E+02  0.37195465769E+02 -0.12642157992E+02  0.41844348249E+02  0.00000000000E+00 0.  1.
         11    1    3    3    0    0 -0.77114056460E+02  0.51273500593E+01 -0.42570293104E+02  0.88233198272E+02  0.00000000000E+00 0. -1.
        -13    1    4    4    0    0  0.48020796738E+02 -0.33174002400E+02  0.14197717657E+03  0.15350579801E+03  0.00000000000E+00 0. -1.
         13    1    4    4    0    0  0.38457524852E+02 -0.25757798418E+02  0.25075282169E+01  0.46354429075E+02  0.00000000000E+00 0.  1.
         21    1    1    2  502  501 -0.27068565110E+01  0.50896608122E+02 -0.15978833239E+02  0.53414557026E+02  0.00000000000E+00 0.  1.
         21    1    1    2  503  502 -0.21066525455E+02 -0.34287623133E+02  0.32191502041E+02  0.51533798603E+02  0.00000000000E+00 0.  1.
<scales pt_clust_5="13000.00000" pt_clust_6="13000.00000" pt_clust_7="13000.00000" pt_clust_8="13000.00000" pt_clust_9="48.28970" pt_clust_10="40.24226"></scales>
<clustering>
<clus scale="   40.242">  1 10  2 -1</clus>
<clus scale="   48.290">  2  9  1 -1</clus>
<clus scale="   90.093">  7  8 -1 -1</clus>
<clus scale="   90.270">  5  6 -1 -1</clus>
<clus scale="  134.161">  1  7  2 -1</clus>
<clus scale="   40.242">  1  5  2 -1</clus>
</clustering>
</event>
<event>
10    2  0.1133532E-006  0.9692076E+02  0.7546771E-02  0.1288680E+00
          1   -1    0    0  503    0  0.00000000000E+00  0.00000000000E+00  0.93587852170E+03  0.93587852170E+03  0.00000000000E+00 0. -1.
         -1   -1    0    0    0  501 -0.00000000000E+00 -0.00000000000E+00 -0.22303351521E+02  0.22303351521E+02  0.00000000000E+00 0.  1.
         23    2    1    2    0    0 -0.13542502492E+02  0.12076433841E+02  0.26641509496E+03  0.28305004297E+03  0.93867376515E+02 0.  0.
         23    2    1    2    0    0  0.21652313972E+02 -0.15023956950E+02  0.48989516133E+03  0.49889611640E+03  0.90584346787E+02 0.  0.
        -11    1    4    4    0    0  0.48497187496E+02  0.17953780532E+02  0.28042228400E+03  0.28515078957E+03  0.00000000000E+00 0.  1.
         11    1    4    4    0    0 -0.26844873524E+02 -0.32977737482E+02  0.20947287734E+03  0.21374532683E+03  0.00000000000E+00 0. -1.
        -13    1    3    3    0    0  0.71315180377E+01 -0.35621952693E+02  0.16652829758E+03  0.17044487660E+03  0.00000000000E+00 0. -1.
         13    1    3    3    0    0 -0.20674020529E+02  0.47698386534E+02  0.99886797382E+02  0.11260516637E+03  0.00000000000E+00 0.  1.
         21    1    1    2  502  501  0.40328977000E+01  0.20440470366E+02  0.36499092827E+01  0.21151806789E+02  0.00000000000E+00 0.  1.
         21    1    1    2  503  502 -0.12142709181E+02 -0.17492947257E+02  0.15361500460E+03  0.15508390706E+03  0.00000000000E+00 0. -1.
<scales pt_clust_5="13000.00000" pt_clust_6="13000.00000" pt_clust_7="13000.00000" pt_clust_8="13000.00000" pt_clust_9="20.83452" pt_clust_10="20.26476"></scales>
<clustering>
<clus scale="   20.835">  2  9  1 -1</clus>
<clus scale="   20.265">  1 10  2 -1</clus>
<clus scale="   90.584">  5  6 -1 -1</clus>
<clus scale="   93.745">  1  5  2 -1</clus>
<clus scale="   93.867">  7  8 -1 -1</clus>
<clus scale="   20.265">  1  5  2 -1</clus>
</clustering>
</event>
<event>
10    2  0.1133532E-006  0.2002076E+03  0.7546771E-02  0.1149622E+00
          1   -1    0    0  503    0  0.00000000000E+00  0.00000000000E+00  0.37282610793E+03  0.37282610793E+03  0.00000000000E+00 0. -1.
         -1   -1    0    0    0  501 -0.00000000000E+00 -0.00000000000E+00 -0.79720231378E+03  0.79720231378E+03  0.00000000000E+00 0.  1.
         23    2    1    2    0    0  0.17632287993E+03 -0.11048647755E+03 -0.63851208507E+03  0.67793124853E+03  0.92715021700E+02 0.  0.
         23    2    1    2    0    0 -0.15604939305E+03 -0.31589683259E+00  0.18557443151E+03  0.25980035895E+03  0.93310471121E+02 0.  0.
        -13    1    3    3    0    0  0.10233461329E+03 -0.67082869877E+02 -0.23013781352E+03  0.26064515672E+03  0.00000000000E+00 0. -1.
         13    1    3    3    0    0  0.73988266640E+02 -0.43403607671E+02 -0.40837427155E+03  0.41728609181E+03  0.00000000000E+00 0.  1.
        -13    1    4    4    0    0 -0.52500830455E+02  0.41047921980E+02  0.95527712181E+02  0.11647666243E+03  0.00000000000E+00 0.  1.
         13    1    4    4    0    0 -0.10354856259E+03 -0.41363818813E+02  0.90046719327E+02  0.14332369652E+03  0.00000000000E+00 0. -1.
         21    1    1    2  502  501 -0.48680315662E+01  0.59747537531E+02 -0.86636788111E+02  0.10535368540E+03  0.00000000000E+00 0.  1.
         21    1    1    2  503  502 -0.15405455314E+02  0.51054836850E+02  0.11519823582E+03  0.12694312882E+03  0.00000000000E+00 0. -1.
<scales pt_clust_5="13000.00000" pt_clust_6="13000.00000" pt_clust_7="13000.00000" pt_clust_8="13000.00000" pt_clust_9="61.88501" pt_clust_10="53.32846"></scales>
<clustering>
<clus scale="   53.328">  1 10  2 -1</clus>
<clus scale="   61.885">  2  9  1 -1</clus>
<clus scale="   92.715">  5  6 -1 -1</clus>
<clus scale="   93.310">  7  8 -1 -1</clus>
<clus scale="  199.931">  2  5  1 -1</clus>
<clus scale="   53.328">  1  5  2 -1</clus>
</clustering>
</event>
<event>
10    2  0.1133532E-006  0.9478557E+02  0.7546771E-02  0.1291911E+00
         -1   -1    0    0    0  501 -0.00000000000E+00  0.00000000000E+00  0.19108128029E+03  0.19108128029E+03  0.00000000000E+00 0.  1.
          1   -1    0    0  503    0  0.00000000000E+00 -0.00000000000E+00 -0.36674954632E+03  0.36674954632E+03  0.00000000000E+00 0. -1.
         23    2    1    2    0    0  0.26075425570E+02  0.12692942813E+02  0.23376118772E+02  0.99279358572E+02  0.92026678162E+02 0.  0.
         23    2    1    2    0    0 -0.35270336934E+02  0.90353510310E+01 -0.25570295617E+03  0.27434028347E+03  0.92482188048E+02 0.  0.
        -13    1    3    3    0    0  0.54339630577E+02 -0.13458389295E+02  0.23649270203E+02  0.60771799997E+02  0.00000000000E+00 0.  1.
         13    1    3    3    0    0 -0.28264205007E+02  0.26151332108E+02 -0.27315143094E+00  0.38507558575E+02  0.00000000000E+00 0. -1.
        -13    1    4    4    0    0 -0.13128902527E+02  0.50310002254E+02 -0.11995466377E+03  0.13073861621E+03  0.00000000000E+00 0. -1.
         13    1    4    4    0    0 -0.22141434406E+02 -0.41274651223E+02 -0.13574829240E+03  0.14360166726E+03  0.00000000000E+00 0.  1.
         21    1    1    2  502  501 -0.19926783583E+02  0.82635053039E+01  0.11244724260E+03  0.11449779295E+03  0.00000000000E+00 0. -1.
         21    1    1    2  503  502  0.29121694946E+02 -0.29991799148E+02 -0.55788671230E+02  0.69713391614E+02  0.00000000000E+00 0.  1.
<scales pt_clust_5="13000.00000" pt_clust_6="13000.00000" pt_clust_7="13000.00000" pt_clust_8="13000.00000" pt_clust_9="21.57226" pt_clust_10="40.03424"></scales>
<clustering>
<clus scale="   21.572">  1  9  2 -1</clus>
<clus scale="   40.034">  2 10  1 -1</clus>
<clus scale="   92.027">  5  6 -1 -1</clus>
<clus scale="   92.482">  7  8 -1 -1</clus>
<clus scale="   94.341">  1  5  2 -1</clus>
<clus scale="   40.034">  2  5  1 -1</clus>
</clustering>
</event>
<event>
10    2  0.1133532E-006  0.1045211E+03  0.7546771E-02  0.1271193E+00
          1   -1    0    0  503    0  0.00000000000E+00  0.00000000000E+00  0.27149831890E+03  0.27149831890E+03  0.00000000000E+00 0. -1.
         -1   -1    0    0    0  501 -0.00000000000E+00 -0.00000000000E+00 -0.32078955649E+03  0.32078955649E+03  0.00000000000E+00 0.  1.
         23    2    1    2    0    0  0.40240643699E+02 -0.28299388847E+02  0.10415089426E+02  0.10321466725E+03  0.90136721887E+02 0.  0.
         23    2    1    2    0    0 -0.50840410845E+02  0.53605405769E+01  0.13438311275E+03  0.16953915284E+03  0.89839972084E+02 0.  0.
        -11    1    4    4    0    0 -0.33774870509E+02  0.47094618087E+02  0.68867697354E+02  0.90007803382E+02  0.00000000000E+00 0.  1.
         11    1    4    4    0    0 -0.17065540336E+02 -0.41734077510E+02  0.65515415392E+02  0.79531349458E+02  0.00000000000E+00 0. -1.
        -13    1    3    3    0    0 -0.24814960464E+02  0.79873342314E+01  0.12019101506E+02  0.28706072040E+02  0.00000000000E+00 0.  1.
         13    1    3    3    0    0  0.65055604163E+02 -0.36286723078E+02 -0.16040120794E+01  0.74508595206E+02  0.00000000000E+00 0. -1.
         21    1    1    2  502  501  0.22871409263E+02  0.41179130243E+02 -0.25263924843E+03  0.25699301932E+03  0.00000000000E+00 0.  1.
         21    1    1    2  503  502 -0.12271642117E+02 -0.18240281973E+02  0.58549808671E+02  0.62541035985E+02  0.00000000000E+00 0. -1.
<scales pt_clust_5="13000.00000" pt_clust_6="13000.00000" pt_clust_7="13000.00000" pt_clust_8="13000.00000" pt_clust_9="46.87834" pt_clust_10="21.98411"></scales>
<clustering>
<clus scale="   21.984">  1 10  2 -1</clus>
<clus scale="   46.878">  2  9  1 -1</clus>
<clus scale="   89.840">  5  6 -1 -1</clus>
<clus scale="   90.137">  7  8 -1 -1</clus>
<clus scale="  104.265">  1  5  2 -1</clus>
<clus scale="   21.984">  1  5  2 -1</clus>
</clustering>
</event>
<event>
10    2  0.1133532E-006  0.3626964E+03  0.7546771E-02  0.1057560E+00
         -2   -1    0    0    0  501 -0.00000000000E+00  0.00000000000E+00  0.94704110178E+02  0.94704110178E+02  0.00000000000E+00 0.  1.
          2   -1    0    0  503    0  0.00000000000E+00 -0.00000000000E+00 -0.19363347343E+04  0.19363347343E+04  0.00000000000E+00 0. -1.
         23    2    1    2    0    0 -0.34010404772E+03 -0.10498583503E+03 -0.67884886309E+03  0.77180283288E+03  0.90283138445E+02 0.  0.
         23    2    1    2    0    0  0.32952495260E+03  0.12596368931E+03 -0.94758776121E+03  0.10152910448E+04  0.91868357243E+02 0.  0.
        -11    1    4    4    0    0  0.48382585222E+02  0.33643595326E+02 -0.85583885237E+02  0.10391038192E+03  0.00000000000E+00 0.  1.
         11    1    4    4    0    0  0.28114236738E+03  0.92320093983E+02 -0.86200387597E+03  0.91138066289E+03  0.00000000000E+00 0. -1.
        -11    1    3    3    0    0 -0.29033414579E+03 -0.77200378435E+02 -0.62469293950E+03  0.69317752655E+03  0.00000000000E+00 0.  1.
         11    1    3    3    0    0 -0.49769901933E+02 -0.27785456596E+02 -0.54155923588E+02  0.78625306336E+02  0.00000000000E+00 0. -1.
         21    1    1    2  502  501  0.18392919248E+02  0.98545535826E+01  0.50068230438E+01  0.21458797304E+02  0.00000000000E+00 0. -1.
         21    1    1    2  503  502 -0.78138241210E+01 -0.30832407860E+02 -0.22020082283E+03  0.22248616945E+03  0.00000000000E+00 0. -1.
<scales pt_clust_5="13000.00000" pt_clust_6="13000.00000" pt_clust_7="13000.00000" pt_clust_8="13000.00000" pt_clust_9="20.86652" pt_clust_10="31.61051"></scales>
<clustering>
<clus scale="   20.867">  1  9  2 -1</clus>
<clus scale="   31.611">  2 10  1 -1</clus>
<clus scale="   90.283">  7  8 -1 -1</clus>
<clus scale="   91.868">  5  6 -1 -1</clus>
<clus scale="  362.298">  1  7  2 -1</clus>
<clus scale="   31.611">  2  5  1 -1</clus>
</clustering>
</event>
<event>
10    2  0.1133532E-006  0.1090073E+03  0.7546771E-02  0.1263038E+00
          3   -1    0    0  503    0  0.00000000000E+00  0.00000000000E+00  0.17494084489E+03  0.17494084489E+03  0.00000000000E+00 0. -1.
         -3   -1    0    0    0  501 -0.00000000000E+00 -0.00000000000E+00 -0.15712565817E+03  0.15712565817E+03  0.00000000000E+00 0.  1.
         23    2    1    2    0    0 -0.71505075159E+02  0.55139510263E+01 -0.18504372496E+02  0.11696751500E+03  0.90529599215E+02 0.  0.
         23    2    1    2    0    0  0.56601017561E+02 -0.22234238227E+02  0.41237064648E+02  0.11780591393E+03  0.92085293705E+02 0.  0.
        -13    1    3    3    0    0 -0.90833431339E+02 -0.71598862613E+00 -0.27281046631E+02  0.94844506398E+02  0.00000000000E+00 0. -1.
         13    1    3    3    0    0  0.19328356180E+02  0.62299396524E+01  0.87766741342E+01  0.22123008601E+02  0.00000000000E+00 0.  1.
        -13    1    4    4    0    0 -0.19530952794E+02  0.12293586457E+02  0.22300713611E+02  0.32092245365E+02  0.00000000000E+00 0. -1.
         13    1    4    4    0    0  0.76131970355E+02 -0.34527824684E+02  0.18936351037E+02  0.85713668561E+02  0.00000000000E+00 0.  1.
         21    1    1    2  502  501  0.35684491843E+02  0.16628378728E+02 -0.40250184853E+02  0.56302427282E+02  0.00000000000E+00 0.  1.
         21    1    1    2  503  502 -0.20780434245E+02  0.91908472865E-01  0.35332679415E+02  0.40990646850E+02  0.00000000000E+00 0. -1.
<scales pt_clust_5="13000.00000" pt_clust_6="13000.00000" pt_clust_7="13000.00000" pt_clust_8="13000.00000" pt_clust_9="38.26913" pt_clust_10="20.78064"></scales>
<clustering>
<clus scale="   20.781">  1 10  2 -1</clus>
<clus scale="   38.269">  2  9  1 -1</clus>
<clus scale="   90.530">  5  6 -1 -1</clus>
<clus scale="   92.085">  7  8 -1 -1</clus>
<clus scale="  107.696">  2  5  1 -1</clus>
<clus scale="   20.781">  1  5  2 -1</clus>
</clustering>
</event>
<event>
10    2  0.1133532E-006  0.5990945E+03  0.7546771E-02  0.9907438E-01
          1   -1    0    0  503    0  0.00000000000E+00  0.00000000000E+00  0.91922106567E+03  0.91922106567E+03  0.00000000000E+00 0. -1.
         -1   -1    0    0    0  501 -0.00000000000E+00 -0.00000000000E+00 -0.46576877332E+03  0.46576877332E+03  0.00000000000E+00 0.  1.
         23    2    1    2    0    0  0.17253528018E+03  0.57075822699E+03  0.19629708926E+02  0.60352297480E+03  0.91221045022E+02 0.  0.
         23    2    1    2    0    0 -0.17794659690E+03 -0.55729465219E+03  0.37139313498E+03  0.69867461266E+03  0.89280641561E+02 0.  0.
        -11    1    3    3    0    0 -0.32125672130E+01  0.10509962770E+03 -0.42027722640E+01  0.10523267376E+03  0.00000000000E+00 0. -1.
         11    1    3    3    0    0  0.17574784739E+03  0.46565859929E+03  0.23832481189E+02  0.49829030104E+03  0.00000000000E+00 0.  1.
        -11    1    4    4    0    0 -0.14305650414E+03 -0.52488175984E+03  0.33731895379E+03  0.64011725627E+03  0.00000000000E+00 0. -1.
         11    1    4    4    0    0 -0.34890092764E+02 -0.32412892347E+02  0.34074181188E+02  0.58557356387E+02  0.00000000000E+00 0.  1.
         21    1    1    2  502  501 -0.16636642416E+02 -0.24463266010E+02  0.30928342460E+02  0.42799434833E+02  0.00000000000E+00 0. -1.
         21    1    1    2  503  502  0.22047959133E+02  0.10999691212E+02  0.31501105995E+02  0.39992816700E+02  0.00000000000E+00 0.  1.
<scales pt_clust_5="13000.00000" pt_clust_6="13000.00000" pt_clust_7="13000.00000" pt_clust_8="13000.00000" pt_clust_9="28.69181" pt_clust_10="24.63952"></scales>
<clustering>
<clus scale="   24.640">  1 10  2 -1</clus>
<clus scale="   28.692">  1  9  2 -1</clus>
<clus scale="   89.281">  7  8 -1 -1</clus>
<clus scale="   91.221">  5  6 -1 -1</clus>
<clus scale="  598.802">  1  7  2 -1</clus>
<clus scale="   24.640">  1  5  2 -1</clus>
</clustering>
</event>
<event>
10    2  0.1133532E-006  0.1050374E+03  0.7546771E-02  0.1271085E+00
         -1   -1    0    0    0  501 -0.00000000000E+00  0.00000000000E+00  0.17788396461E+03  0.17788396461E+03  0.00000000000E+00 0.  1.
          1   -1    0    0  503    0  0.00000000000E+00 -0.00000000000E+00 -0.18751127673E+03  0.18751127673E+03  0.00000000000E+00 0. -1.
         23    2    1    2    0    0 -0.25076655550E+02  0.82242903387E+02  0.69226907613E+02  0.14404166950E+03  0.92535960590E+02 0.  0.
         23    2    1    2    0    0 -0.19265234196E+02 -0.49176303183E+02 -0.79138710368E+02  0.13107640251E+03  0.90158913992E+02 0.  0.
        -11    1    4    4    0    0  0.30088216867E+02 -0.18167431806E+01 -0.56266213185E+01  0.30663662819E+02  0.00000000000E+00 0.  1.
         11    1    4    4    0    0 -0.49353451063E+02 -0.47359560002E+02 -0.73512089050E+02  0.10041273969E+03  0.00000000000E+00 0. -1.
        -11    1    3    3    0    0 -0.55686598206E+02  0.31742067880E+02  0.51967592403E+02  0.82517796585E+02  0.00000000000E+00 0. -1.
         11    1    3    3    0    0  0.30609942656E+02  0.50500835508E+02  0.17259315210E+02  0.61523872911E+02  0.00000000000E+00 0.  1.
         21    1    1    2  502  501  0.15086517973E+02 -0.48152041597E+02  0.17146466375E+02  0.53293746759E+02  0.00000000000E+00 0.  1.
         21    1    1    2  503  502  0.29255371774E+02  0.15085441393E+02 -0.16861975735E+02  0.36983422574E+02  0.00000000000E+00 0. -1.
<scales pt_clust_5="13000.00000" pt_clust_6="13000.00000" pt_clust_7="13000.00000" pt_clust_8="13000.00000" pt_clust_9="49.95785" pt_clust_10="32.91576"></scales>
<clustering>
<clus scale="   32.916">  2 10  1 -1</clus>
<clus scale="   49.958">  1  9  2 -1</clus>
<clus scale="   90.159">  5  6 -1 -1</clus>
<clus scale="   92.536">  7  8 -1 -1</clus>
<clus scale="  102.949">  2  5  1 -1</clus>
<clus scale="   32.916">  2  5  1 -1</clus>
</clustering>
</event>
<event>
10    2  0.1133532E-006  0.9581300E+02  0.7546771E-02  0.1290777E+00
         -1   -1    0    0    0  501 -0.00000000000E+00  0.00000000000E+00  0.11032816977E+03  0.11032816977E+03  0.00000000000E+00 0.  1.
          1   -1    0    0  503    0  0.00000000000E+00 -0.00000000000E+00 -0.22714698369E+03  0.22714698369E+03  0.00000000000E+00 0. -1.
         23    2    1    2    0    0  0.11576375244E+02 -0.20063501500E+02 -0.35236626724E+02  0.99198908569E+02  0.89790016384E+02 0.  0.
         23    2    1    2    0    0  0.49841523103E+00  0.36492481096E+02 -0.10056510231E+03  0.14136334853E+03  0.92402959420E+02 0.  0.
        -11    1    3    3    0    0  0.80125042216E+00 -0.54516737424E+02 -0.10732618410E+02  0.55568928004E+02  0.00000000000E+00 0.  1.
         11    1    3    3    0    0  0.10775124822E+02  0.34453235925E+02 -0.24504008314E+02  0.43629980565E+02  0.00000000000E+00 0. -1.
        -13    1    4    4    0    0  0.38165493931E+02  0.46417269108E+02 -0.66343621241E+02  0.89513372620E+02  0.00000000000E+00 0. -1.
         13    1    4    4    0    0 -0.37667078700E+02 -0.99247880121E+01 -0.34221481068E+02  0.51849975905E+02  0.00000000000E+00 0.  1.
         21    1    1    2  502  501 -0.20097737699E+02  0.27508459308E+01  0.53165746945E+02  0.56904155051E+02  0.00000000000E+00 0.  1.
         21    1    1    2  503  502  0.80229472235E+01 -0.19179825527E+02 -0.34182831829E+02  0.40008741311E+02  0.00000000000E+00 0. -1.
<scales pt_clust_5="13000.00000" pt_clust_6="13000.00000" pt_clust_7="13000.00000" pt_clust_8="13000.00000" pt_clust_9="20.28512" pt_clust_10="20.26887"></scales>
<clustering>
<clus scale="   20.285">  1  9  2 -1</clus>
<clus scale="   20.269">  2 10  1 -1</clus>
<clus scale="   89.790">  5  6 -1 -1</clus>
<clus scale="   92.403">  7  8 -1 -1</clus>
<clus scale="   93.296">  1  5  2 -1</clus>
<clus scale="   20.269">  2  5  1 -1</clus>
</clustering>
</event>
<event>
10    2  0.1133532E-006  0.2689105E+03  0.7546771E-02  0.1102095E+00
          2   -1    0    0  503    0  0.00000000000E+00  0.00000000000E+00  0.75926672424E+03  0.75926672424E+03  0.00000000000E+00 0. -1.
         -2   -1    0    0    0  501 -0.00000000000E+00 -0.00000000000E+00 -0.20353353568E+03  0.20353353568E+03  0.00000000000E+00 0.  1.
         23    2    1    2    0    0  0.16426237611E+03  0.15374459172E+03  0.11859138940E+03  0.27057633408E+03  0.92347751652E+02 0.  0.
         23    2    1    2    0    0 -0.85584352002E+02 -0.28112890181E+03  0.24858052098E+03  0.39671773263E+03  0.96096530784E+02 0.  0.
        -13    1    3    3    0    0  0.91792263705E+02  0.54837620676E+02  0.10029826974E+03  0.14660398095E+03  0.00000000000E+00 0. -1.
         13    1    3    3    0    0  0.72470112408E+02  0.98906971045E+02  0.18293119656E+02  0.12397235313E+03  0.00000000000E+00 0.  1.
        -13    1    4    4    0    0 -0.43632736664E+02 -0.28180554407E+02  0.53248134878E+02  0.74386310726E+02  0.00000000000E+00 0.  1.
         13    1    4    4    0    0 -0.41951615338E+02 -0.25294834741E+03  0.19533238610E+03  0.32233142190E+03  0.00000000000E+00 0. -1.
         21    1    1    2  502  501 -0.13971119909E+02  0.89561217115E+02 -0.20721139640E+01  0.90668061957E+02  0.00000000000E+00 0.  1.
         21    1    1    2  503  502 -0.64706904202E+02  0.37823092976E+02  0.19063339215E+03  0.20483813126E+03  0.00000000000E+00 0.  1.
<scales pt_clust_5="13000.00000" pt_clust_6="13000.00000" pt_clust_7="13000.00000" pt_clust_8="13000.00000" pt_clust_9="94.49053" pt_clust_10="74.95045"></scales>
<clustering>
<clus scale="   74.950">  1 10  2 -1</clus>
<clus scale="   92.348">  5  6 -1 -1</clus>
<clus scale="   94.491">  2  9  1 -1</clus>
<clus scale="   96.097">  7  8 -1 -1</clus>
<clus scale="  267.594">  2  5  1 -1</clus>
<clus scale="   74.950">  1  5  2 -1</clus>
</clustering>
</event>
<event>
10    2  0.1133532E-006  0.9539865E+02  0.7546771E-02  0.1291287E+00
          2   -1    0    0  503    0  0.00000000000E+00  0.00000000000E+00  0.42669673856E+03  0.42669673856E+03  0.00000000000E+00 0. -1.
         -2   -1    0    0    0  501 -0.00000000000E+00 -0.00000000000E+00 -0.68968361484E+02  0.68968361484E+02  0.00000000000E+00 0.  1.
         23    2    1    2    0    0 -0.43179786152E+02  0.19441312715E+01  0.12463608665E+03  0.16069779309E+03  0.91767930289E+02 0.  0.
         23    2    1    2    0    0 -0.37845149497E+02  0.49903943515E+02  0.18021347475E+03  0.21091422893E+03  0.89918054705E+02 0.  0.
        -11    1    4    4    0    0 -0.46163115579E+02  0.68692561498E+02  0.16728269326E+03  0.18663654708E+03  0.00000000000E+00 0. -1.
         11    1    4    4    0    0  0.83179660820E+01 -0.18788617983E+02  0.12930781499E+02  0.24277681842E+02  0.00000000000E+00 0.  1.
        -13    1    3    3    0    0 -0.36518229923E+02 -0.35883416814E+02  0.10661496963E+03  0.11827067459E+03  0.00000000000E+00 0.  1.
         13    1    3    3    0    0 -0.66615562294E+01  0.37827548085E+02  0.18021117025E+02  0.42427118502E+02  0.00000000000E+00 0. -1.
         21    1    1    2  502  501  0.45307504430E+02 -0.94683313250E+01 -0.16319685863E+01  0.46315036190E+02  0.00000000000E+00 0. -1.
         21    1    1    2  503  502  0.35717431219E+02 -0.42379743461E+02  0.54510784258E+02  0.77738041840E+02  0.00000000000E+00 0.  1.
<scales pt_clust_5="13000.00000" pt_clust_6="13000.00000" pt_clust_7="13000.00000" pt_clust_8="13000.00000" pt_clust_9="46.28628" pt_clust_10="65.24593"></scales>
<clustering>
<clus scale="   46.286">  2  9  1 -1</clus>
<clus scale="   65.246">  2 10  1 -1</clus>
<clus scale="   89.918">  5  6 -1 -1</clus>
<clus scale="   91.768">  7  8 -1 -1</clus>
<clus scale="   93.621">  1  5  2 -1</clus>
<clus scale="   93.621">  1  5  2 -1</clus>
</clustering>
</event>
<event>
10    2  0.1133532E-006  0.1310718E+03  0.7546771E-02  0.1243048E+00
          1   -1    0    0  502    0  0.00000000000E+00  0.00000000000E+00  0.12274013111E+03  0.12274013111E+03  0.00000000000E+00 0. -1.
         -1   -1    0    0    0  501 -0.00000000000E+00 -0.00000000000E+00 -0.26859441312E+03  0.26859441312E+03  0.00000000000E+00 0.  1.
         23    2    1    2    0    0 -0.63761323248E+02  0.61216006123E+02 -0.12842835048E+03  0.18042617225E+03  0.90812205554E+02 0.  0.
         23    2    1    2    0    0 -0.56649460852E+01  0.16618263089E+02  0.17998154831E+02  0.93919145018E+02  0.90490960550E+02 0.  0.
        -11    1    3    3    0    0 -0.64891340607E+02 -0.31164237572E+00 -0.72080295667E+02  0.96987381809E+02  0.00000000000E+00 0.  1.
         11    1    3    3    0    0  0.11300173587E+01  0.61527648498E+02 -0.56348054817E+02  0.83438790443E+02  0.00000000000E+00 0. -1.
        -11    1    4    4    0    0  0.10934336201E+02  0.47025552498E+02 -0.10086255838E+02  0.49322356521E+02  0.00000000000E+00 0. -1.
         11    1    4    4    0    0 -0.16599282286E+02 -0.30407289409E+02  0.28084410670E+02  0.44596788497E+02  0.00000000000E+00 0.  1.
         21    1    1    2  502  503  0.39429254529E+02 -0.51350839504E+02 -0.40932979334E+02  0.76596890457E+02  0.00000000000E+00 0.  1.
         21    1    1    2  503  501  0.29997014804E+02 -0.26483429708E+02  0.55088929686E+01  0.40392336501E+02  0.00000000000E+00 0. -1.
<scales pt_clust_5="13000.00000" pt_clust_6="13000.00000" pt_clust_7="13000.00000" pt_clust_8="13000.00000" pt_clust_9="102.40314" pt_clust_10="30.98581"></scales>
<clustering>
<clus scale="   30.986">  9 10 -1 -1</clus>
<clus scale="   90.491">  7  8 -1 -1</clus>
<clus scale="   90.812">  5  6 -1 -1</clus>
<clus scale="   92.178">  1  7  2 -1</clus>
<clus scale="  102.403">  1  9  2 -1</clus>
<clus scale="   92.178">  1  5  2 -1</clus>
</clustering>
</event>
<event>
10    2  0.1133532E-006  0.1170136E+03  0.7546771E-02  0.1253279E+00
          1   -1    0    0  503    0  0.00000000000E+00  0.00000000000E+00  0.57818756800E+03  0.57818756800E+03  0.00000000000E+00 0. -1.
         -1   -1    0    0    0  501 -0.00000000000E+00 -0.00000000000E+00 -0.87002267159E+02  0.87002267159E+02  0.00000000000E+00 0.  1.
         23    2    1    2    0    0  0.46005233505E+02 -0.16666524578E+02  0.18200542324E+02  0.10500228760E+03  0.91104149793E+02 0.  0.
         23    2    1    2    0    0  0.40815984366E+02  0.34615167930E+02  0.25948906455E+03  0.27891833073E+03  0.87159085393E+02 0.  0.
        -11    1    3    3    0    0 -0.10536058126E+02  0.23416230434E+02  0.24395349849E+02  0.35418377473E+02  0.00000000000E+00 0. -1.
         11    1    3    3    0    0  0.56541291631E+02 -0.40082755012E+02 -0.61948075249E+01  0.69583910129E+02  0.00000000000E+00 0.  1.
        -13    1    4    4    0    0  0.57433736511E+02  0.37401072680E+01  0.97867324167E+02  0.11353693510E+03  0.00000000000E+00 0. -1.
         13    1    4    4    0    0 -0.16617752144E+02  0.30875060662E+02  0.16162174038E+03  0.16538139563E+03  0.00000000000E+00 0.  1.
         21    1    1    2  502  501 -0.11639878726E+03 -0.92226215064E+01  0.73620958665E+02  0.13803543015E+03  0.00000000000E+00 0.  1.
         21    1    1    2  503  502  0.29577569389E+02 -0.87260218457E+01  0.13987473531E+03  0.14323378668E+03  0.00000000000E+00 0. -1.
<scales pt_clust_5="13000.00000" pt_clust_6="13000.00000" pt_clust_7="13000.00000" pt_clust_8="13000.00000" pt_clust_9="78.07350" pt_clust_10="30.83790"></scales>
<clustering>
<clus scale="   30.838">  1 10  2 -1</clus>
<clus scale="   87.159">  7  8 -1 -1</clus>
<clus scale="   91.104">  5  6 -1 -1</clus>
<clus scale="  105.537">  2  5  1 -1</clus>
<clus scale="   78.074">  2  9  1 -1</clus>
<clus scale="   30.838">  1  5  2 -1</clus>
</clustering>
</event>
<event>
10    2  0.1133532E-006  0.1015487E+03  0.7546771E-02  0.1280513E+00
          2   -1    0    0  503    0  0.00000000000E+00  0.00000000000E+00  0.27990599895E+03  0.27990599895E+03  0.00000000000E+00 0. -1.
         -2   -1    0    0    0  501 -0.00000000000E+00 -0.00000000000E+00 -0.16144049606E+03  0.16144049606E+03  0.00000000000E+00 0.  1.
         23    2    1    2    0    0  0.29020452547E+02 -0.17936840084E+01 -0.77572879106E+02  0.12275893668E+03  0.90591395800E+02 0.  0.
         23    2    1    2    0    0 -0.26715657707E+02 -0.37558398087E+02  0.21381754286E+03  0.23940944382E+03  0.97337456933E+02 0.  0.
        -13    1    4    4    0    0 -0.21357406985E+02  0.17537743223E+02  0.15942492713E+03  0.16180240623E+03  0.00000000000E+00 0. -1.
         13    1    4    4    0    0 -0.53582507226E+01 -0.55096141309E+02  0.54392615728E+02  0.77607037592E+02  0.00000000000E+00 0.  1.
        -13    1    3    3    0    0  0.10543634079E+01 -0.41203284357E+02 -0.15366576572E+02  0.43988112026E+02  0.00000000000E+00 0. -1.
         13    1    3    3    0    0  0.27966089139E+02  0.39409600349E+02 -0.62206302534E+02  0.78770824652E+02  0.00000000000E+00 0.  1.
         21    1    1    2  502  501 -0.26075962010E+02  0.33432996518E+02 -0.29865238483E+02  0.51861869621E+02  0.00000000000E+00 0.  1.
         21    1    1    2  503  502  0.23771167170E+02  0.59190855772E+01  0.12086077617E+02  0.27316244890E+02  0.00000000000E+00 0.  1.
<scales pt_clust_5="13000.00000" pt_clust_6="13000.00000" pt_clust_7="13000.00000" pt_clust_8="13000.00000" pt_clust_9="41.98955" pt_clust_10="24.49702"></scales>
<clustering>
<clus scale="   24.497">  1 10  2 -1</clus>
<clus scale="   41.990">  2  9  1 -1</clus>
<clus scale="   90.591">  7  8 -1 -1</clus>
<clus scale="   95.102">  2  7  1 -1</clus>
<clus scale="   97.337">  5  6 -1 -1</clus>
<clus scale="   24.497">  1  5  2 -1</clus>
</clustering>
</event>
<event>
10    2  0.1133532E-006  0.2573074E+03  0.7546771E-02  0.1109129E+00
         -1   -1    0    0    0  501 -0.00000000000E+00  0.00000000000E+00  0.33449033733E+03  0.33449033733E+03  0.00000000000E+00 0.  1.
          1   -1    0    0  503    0  0.00000000000E+00 -0.00000000000E+00 -0.77896931711E+03  0.77896931711E+03  0.00000000000E+00 0. -1.
         23    2    1    2    0    0 -0.22887223237E+03  0.57408223429E+02  0.21173747276E+03  0.33002206340E+03  0.91671162821E+02 0.  0.
         23    2    1    2    0    0  0.14322238547E+03  0.18983268142E+02 -0.33111728703E+03  0.37431631056E+03  0.97984827479E+02 0.  0.
        -11    1    4    4    0    0  0.11498763143E+03  0.41776122652E+02 -0.17173881465E+03  0.21085924277E+03  0.00000000000E+00 0. -1.
         11    1    4    4    0    0  0.28234754036E+02 -0.22792854509E+02 -0.15937847238E+03  0.16345706779E+03  0.00000000000E+00 0.  1.
        -13    1    3    3    0    0 -0.17897152755E+03  0.32789584185E+02  0.20479582244E+03  0.27394761068E+03  0.00000000000E+00 0.  1.
         13    1    3    3    0    0 -0.49900704814E+02  0.24618639244E+02  0.69416503225E+01  0.56074452725E+02  0.00000000000E+00 0. -1.
         21    1    1    2  502  501 -0.28281322588E+02  0.18964686751E+01  0.21757713509E+02  0.35732728666E+02  0.00000000000E+00 0. -1.
         21    1    1    2  503  502  0.11393116949E+03 -0.78287960246E+02 -0.34685687903E+03  0.37338855182E+03  0.00000000000E+00 0. -1.
<scales pt_clust_5="13000.00000" pt_clust_6="13000.00000" pt_clust_7="13000.00000" pt_clust_8="13000.00000" pt_clust_9="28.34484" pt_clust_10="137.17995"></scales>
<clustering>
<clus scale="   28.345">  1  9  2 -1</clus>
<clus scale="   91.671">  7  8 -1 -1</clus>
<clus scale="   97.985">  5  6 -1 -1</clus>
<clus scale="  137.180">  2 10  1 -1</clus>
<clus scale="  254.970">  1  7  2 -1</clus>
<clus scale="  137.180">  2  5  1 -1</clus>
</clustering>
</event>
<event>
10    2  0.1133532E-006  0.1105963E+03  0.7546771E-02  0.1261444E+00
          1   -1    0    0  503    0  0.00000000000E+00  0.00000000000E+00  0.50922168714E+03  0.50922168714E+03  0.00000000000E+00 0. -1.
         -1   -1    0    0    0  501 -0.00000000000E+00 -0.00000000000E+00 -0.20551232880E+03  0.20551232880E+03  0.00000000000E+00 0.  1.
         23    2    1    2    0    0  0.41323378555E+02 -0.52072414921E+01 -0.86442134098E+02  0.13186760248E+03  0.90454878577E+02 0.  0.
         23    2    1    2    0    0  0.50418546469E+02  0.54993304181E+02  0.35296324372E+03  0.37315454703E+03  0.95367558553E+02 0.  0.
        -13    1    3    3    0    0 -0.14618378951E+02  0.17252831325E+02 -0.63433620910E+02  0.67343755862E+02  0.00000000000E+00 0.  1.
         13    1    3    3    0    0  0.55941757506E+02 -0.22460072817E+02 -0.23008513188E+02  0.64523846622E+02  0.00000000000E+00 0. -1.
        -13    1    4    4    0    0  0.50858134454E+02 -0.54228389177E+01  0.91728349602E+02  0.10502403126E+03  0.00000000000E+00 0.  1.
         13    1    4    4    0    0 -0.43958798438E+00  0.60416143098E+02  0.26123489411E+03  0.26813051577E+03  0.00000000000E+00 0. -1.
         21    1    1    2  502  501 -0.70269235528E+02 -0.48948124211E+02 -0.63592067769E+02  0.10666599931E+03  0.00000000000E+00 0.  1.
         21    1    1    2  503  502 -0.21472689496E+02 -0.83793847706E+00  0.10078031650E+03  0.10304586711E+03  0.00000000000E+00 0. -1.
<scales pt_clust_5="13000.00000" pt_clust_6="13000.00000" pt_clust_7="13000.00000" pt_clust_8="13000.00000" pt_clust_9="86.59607" pt_clust_10="21.48903"></scales>
<clustering>
<clus scale="   21.489">  1 10  2 -1</clus>
<clus scale="   86.596">  2  9  1 -1</clus>
<clus scale="   90.455">  5  6 -1 -1</clus>
<clus scale="   95.368">  7  8 -1 -1</clus>
<clus scale="  106.389">  2  5  1 -1</clus>
<clus scale="   21.489">  1  5  2 -1</clus>
</clustering>
</event>
<event>
10    2  0.1133532E-006  0.1199857E+03  0.7546771E-02  0.1243927E+00
          2   -1    0    0  503    0  0.00000000000E+00  0.00000000000E+00  0.52883585775E+03  0.52883585775E+03  0.00000000000E+00 0. -1.
         -2   -1    0    0    0  501 -0.00000000000E+00 -0.00000000000E+00 -0.12629735563E+03  0.12629735563E+03  0.00000000000E+00 0.  1.
         23    2    1    2    0    0  0.49179960404E+02 -0.25182340190E+02 -0.60535882728E+02  0.12498652641E+03  0.94362174214E+02 0.  0.
         23    2    1    2    0    0 -0.50027494183E+02  0.56700858442E+02  0.34399954038E+03  0.36400060111E+03  0.91885887429E+02 0.  0.
        -11    1    3    3    0    0 -0.22746273197E+02 -0.18963668753E+02  0.17087285855E+01  0.29663671895E+02  0.00000000000E+00 0. -1.
         11    1    3    3    0    0  0.71926233601E+02 -0.62186714371E+01 -0.62244611314E+02  0.95322854510E+02  0.00000000000E+00 0.  1.
        -11    1    4    4    0    0 -0.25379296079E+02  0.62125567338E+02  0.32641078935E+03  0.33323820037E+03  0.00000000000E+00 0. -1.
         11    1    4    4    0    0 -0.24648198105E+02 -0.54247088961E+01  0.17588751030E+02  0.30762400739E+02  0.00000000000E+00 0.  1.
         21    1    1    2  502  501  0.17528707819E+02 -0.13245441765E+02 -0.17038035977E+02  0.27802733594E+02  0.00000000000E+00 0. -1.
         21    1    1    2  503  502 -0.16681174040E+02 -0.18273076487E+02  0.13611288045E+03  0.13834335226E+03  0.00000000000E+00 0. -1.
<scales pt_clust_5="13000.00000" pt_clust_6="13000.00000" pt_clust_7="13000.00000" pt_clust_8="13000.00000" pt_clust_9="21.97037" pt_clust_10="24.72127"></scales>
<clustering>
<clus scale="   21.970">  2  9  1 -1</clus>
<clus scale="   24.721">  1 10  2 -1</clus>
<clus scale="   91.886">  7  8 -1 -1</clus>
<clus scale="   94.362">  5  6 -1 -1</clus>
<clus scale="  118.048">  1  7  2 -1</clus>
<clus scale="   24.721">  1  5  2 -1</clus>
</clustering>
</event>
<event>
10    2  0.1133532E-006  0.1276759E+03  0.7546771E-02  0.1231853E+00
         -1   -1    0    0    0  501 -0.00000000000E+00  0.00000000000E+00  0.29071266649E+03  0.29071266649E+03  0.00000000000E+00 0.  1.
          1   -1    0    0  503    0  0.00000000000E+00 -0.00000000000E+00 -0.38341851707E+03  0.38341851707E+03  0.00000000000E+00 0. -1.
         23    2    1    2    0    0  0.40968908573E+02 -0.59571768053E+02  0.13108482261E+03  0.17523332099E+03  0.91083692540E+02 0.  0.
         23    2    1    2    0    0  0.32230233242E+02  0.14132188704E+03  0.45698309848E+02  0.17886704503E+03  0.94310235838E+02 0.  0.
        -11    1    4    4    0    0  0.56957932891E+02  0.10450358608E+03  0.58621311113E+02  0.13267126192E+03  0.00000000000E+00 0.  1.
         11    1    4    4    0    0 -0.24727699650E+02  0.36818300969E+02 -0.12923001265E+02  0.46195783118E+02  0.00000000000E+00 0. -1.
        -13    1    3    3    0    0  0.86500937497E+01 -0.69441092116E+02  0.12132593792E+03  0.14006024635E+03  0.00000000000E+00 0. -1.
         13    1    3    3    0    0  0.32318814823E+02  0.98693240638E+01  0.97588846969E+01  0.35173074639E+02  0.00000000000E+00 0.  1.
         21    1    1    2  502  501 -0.29333672468E+02 -0.39519542309E+01  0.61954471481E+01  0.30240136376E+02  0.00000000000E+00 0. -1.
         21    1    1    2  503  502 -0.43865469347E+02 -0.77798164761E+02 -0.27568443019E+03  0.28979068116E+03  0.00000000000E+00 0. -1.
<scales pt_clust_5="13000.00000" pt_clust_6="13000.00000" pt_clust_7="13000.00000" pt_clust_8="13000.00000" pt_clust_9="29.59869" pt_clust_10="89.77665"></scales>
<clustering>
<clus scale="   29.599">  1  9  2 -1</clus>
<clus scale="   89.777">  2 10  1 -1</clus>
<clus scale="   91.084">  7  8 -1 -1</clus>
<clus scale="   94.310">  5  6 -1 -1</clus>
<clus scale="  125.311">  1  7  2 -1</clus>
<clus scale="   89.777">  2  5  1 -1</clus>
</clustering>
</event>
<event>
10    2  0.1133532E-006  0.2439770E+03  0.7546771E-02  0.1117194E+00
          2   -1    0    0  503    0  0.00000000000E+00  0.00000000000E+00  0.71845737690E+03  0.71845737690E+03  0.00000000000E+00 0. -1.
         -2   -1    0    0    0  501 -0.00000000000E+00 -0.00000000000E+00 -0.15156167060E+03  0.15156167060E+03  0.00000000000E+00 0.  1.
         23    2    1    2    0    0  0.21386157325E+03  0.78482640550E+01  0.19207239456E+03  0.30132240287E+03  0.90027873213E+02 0.  0.
         23    2    1    2    0    0 -0.23539542985E+03  0.29652250971E+02  0.33468321651E+03  0.41992835353E+03  0.89647656443E+02 0.  0.
        -11    1    3    3    0    0  0.31114427318E+02 -0.21511522840E+02  0.70105549100E+02  0.79659533120E+02  0.00000000000E+00 0.  1.
         11    1    3    3    0    0  0.18274714593E+03  0.29359786895E+02  0.12196684546E+03  0.22166286975E+03  0.00000000000E+00 0. -1.
        -13    1    4    4    0    0 -0.17018115793E+03  0.21539448369E+01  0.28992483719E+03  0.33618845491E+03  0.00000000000E+00 0.  1.
         13    1    4    4    0    0 -0.65214271922E+02  0.27498306134E+02  0.44758379314E+02  0.83739898623E+02  0.00000000000E+00 0. -1.
         21    1    1    2  502  501  0.26772364971E+02 -0.14670120249E+02 -0.48377183211E+02  0.57204228949E+02  0.00000000000E+00 0.  1.
         21    1    1    2  503  502 -0.52385083696E+01 -0.22830394777E+02  0.88517278434E+02  0.91564062147E+02  0.00000000000E+00 0. -1.
<scales pt_clust_5="13000.00000" pt_clust_6="13000.00000" pt_clust_7="13000.00000" pt_clust_8="13000.00000" pt_clust_9="30.57341" pt_clust_10="23.42368"></scales>
<clustering>
<clus scale="   23.424">  1 10  2 -1</clus>
<clus scale="   30.573">  2  9  1 -1</clus>
<clus scale="   89.648">  7  8 -1 -1</clus>
<clus scale="   90.028">  5  6 -1 -1</clus>
<clus scale="  243.837">  1  7  2 -1</clus>
<clus scale="   23.424">  1  5  2 -1</clus>
</clustering>
</event>
<event>
10    2  0.1133532E-006  0.1046743E+03  0.7546771E-02  0.1276649E+00
         -1   -1    0    0    0  501 -0.00000000000E+00  0.00000000000E+00  0.11905047639E+03  0.11905047639E+03  0.00000000000E+00 0.  1.
          1   -1    0    0  503    0  0.00000000000E+00 -0.00000000000E+00 -0.35549660783E+03  0.35549660783E+03  0.00000000000E+00 0. -1.
         23    2    1    2    0    0  0.40592078776E+02 -0.82469212843E+02 -0.27666735338E+02  0.12279511760E+03  0.76578748583E+02 0.  0.
         23    2    1    2    0    0 -0.53204121521E+02  0.27708115931E+02 -0.19738251369E+03  0.22503713895E+03  0.89907947158E+02 0.  0.
        -11    1    4    4    0    0 -0.57054526291E+02  0.54625059202E+02 -0.12670155926E+03  0.14930640034E+03  0.00000000000E+00 0. -1.
         11    1    4    4    0    0  0.38504047694E+01 -0.26916943272E+02 -0.70680954428E+02  0.75730738613E+02  0.00000000000E+00 0.  1.
        -11    1    3    3    0    0  0.16767295120E+02 -0.87855430695E+02 -0.51744820805E+01  0.89590703497E+02  0.00000000000E+00 0.  1.
         11    1    3    3    0    0  0.23824783656E+02  0.53862178517E+01 -0.22492253258E+02  0.33204414099E+02  0.00000000000E+00 0. -1.
         21    1    1    2  502  501 -0.75888596331E+01  0.64219733898E+02  0.36229491907E+02  0.74123822731E+02  0.00000000000E+00 0. -1.
         21    1    1    2  503  502  0.20200902378E+02 -0.94586369851E+01 -0.47626374315E+02  0.52591004943E+02  0.00000000000E+00 0.  1.
<scales pt_clust_5="13000.00000" pt_clust_6="13000.00000" pt_clust_7="13000.00000" pt_clust_8="13000.00000" pt_clust_9="63.94751" pt_clust_10="22.30566"></scales>
<clustering>
<clus scale="   22.306">  2 10  1 -1</clus>
<clus scale="   63.948">  1  9  2 -1</clus>
<clus scale="   76.579">  7  8 -1 -1</clus>
<clus scale="   89.908">  5  6 -1 -1</clus>
<clus scale="   93.475">  1  7  2 -1</clus>
<clus scale="   22.306">  2  5  1 -1</clus>
</clustering>
</event>
<event>
10    2  0.1133532E-006  0.1103522E+03  0.7546771E-02  0.1260636E+00
          1   -1    0    0  503    0  0.00000000000E+00  0.00000000000E+00  0.14383694998E+03  0.14383694998E+03  0.00000000000E+00 0. -1.
         -1   -1    0    0    0  501 -0.00000000000E+00 -0.00000000000E+00 -0.39422379621E+03  0.39422379621E+03  0.00000000000E+00 0.  1.
         23    2    1    2    0    0  0.37447145462E+02  0.77055417564E+02 -0.24481636441E+03  0.27497813337E+03  0.91313172509E+02 0.  0.
         23    2    1    2    0    0 -0.11072500249E+00 -0.75619329271E+02  0.31710228589E+02  0.12409800900E+03  0.93147635623E+02 0.  0.
        -11    1    4    4    0    0  0.44178305319E+02 -0.55985745729E+02  0.15224264706E+02  0.72923964659E+02  0.00000000000E+00 0. -1.
         11    1    4    4    0    0 -0.44289030321E+02 -0.19633583542E+02  0.16485963883E+02  0.51174044345E+02  0.00000000000E+00 0.  1.
        -13    1    3    3    0    0  0.18073597611E+02  0.12677562812E+02 -0.10398863742E+01  0.22101060905E+02  0.00000000000E+00 0. -1.
         13    1    3    3    0    0  0.19373547850E+02  0.64377854751E+02 -0.24377647803E+03  0.25287707247E+03  0.00000000000E+00 0.  1.
         21    1    1    2  502  501 -0.20237468415E+02 -0.30070871358E+02 -0.78201975744E+02  0.86193743638E+02  0.00000000000E+00 0.  1.
         21    1    1    2  503  502 -0.17098952044E+02  0.28634783066E+02  0.40921265322E+02  0.52790860173E+02  0.00000000000E+00 0. -1.
<scales pt_clust_5="13000.00000" pt_clust_6="13000.00000" pt_clust_7="13000.00000" pt_clust_8="13000.00000" pt_clust_9="35.68276" pt_clust_10="33.35154"></scales>
<clustering>
<clus scale="   33.352">  1 10  2 -1</clus>
<clus scale="   35.683">  2  9  1 -1</clus>
<clus scale="   91.313">  7  8 -1 -1</clus>
<clus scale="   93.148">  5  6 -1 -1</clus>
<clus scale="  108.808">  2  7  1 -1</clus>
<clus scale="   33.352">  1  5  2 -1</clus>
</clustering>
</event>
<event>
10    2  0.1133532E-006  0.1312342E+03  0.7546771E-02  0.1226029E+00
          1   -1    0    0  503    0  0.00000000000E+00  0.00000000000E+00  0.21575109589E+03  0.21575109589E+03  0.00000000000E+00 0. -1.
         -1   -1    0    0    0  501 -0.00000000000E+00 -0.00000000000E+00 -0.20014388593E+03  0.20014388593E+03  0.00000000000E+00 0.  1.
         23    2    1    2    0    0  0.12724406237E+02  0.12604873702E+03 -0.51633152744E+02  0.16427501043E+03  0.90940100995E+02 0.  0.
         23    2    1    2    0    0 -0.35013394573E+01 -0.65394031656E+02 -0.13659234952E+02  0.11412649571E+03  0.92464282665E+02 0.  0.
        -11    1    4    4    0    0 -0.27167619257E+02  0.85876101996E+01  0.13906737750E+02  0.31705266754E+02  0.00000000000E+00 0. -1.
         11    1    4    4    0    0  0.23666279800E+02 -0.73981641856E+02 -0.27565972702E+02  0.82421228954E+02  0.00000000000E+00 0.  1.
        -13    1    3    3    0    0 -0.22399164661E+02  0.10336082761E+03 -0.11613067430E+02  0.10639570761E+03  0.00000000000E+00 0. -1.
         13    1    3    3    0    0  0.35123570899E+02  0.22687909410E+02 -0.40020085314E+02  0.57879302817E+02  0.00000000000E+00 0.  1.
         21    1    1    2  502  501 -0.16999959547E+01 -0.33359950660E+02 -0.15643201265E+02  0.36884767047E+02  0.00000000000E+00 0. -1.
         21    1    1    2  503  502 -0.75230708254E+01 -0.27294754707E+02  0.96542798927E+02  0.10060870864E+03  0.00000000000E+00 0. -1.
<scales pt_clust_5="13000.00000" pt_clust_6="13000.00000" pt_clust_7="13000.00000" pt_clust_8="13000.00000" pt_clust_9="35.91302" pt_clust_10="28.31255"></scales>
<clustering>
<clus scale="   28.313">  1 10  2 -1</clus>
<clus scale="   35.913">  2  9  1 -1</clus>
<clus scale="   90.940">  7  8 -1 -1</clus>
<clus scale="   92.464">  5  6 -1 -1</clus>
<clus scale="  130.165">  2  7  1 -1</clus>
<clus scale="   28.313">  1  5  2 -1</clus>
</clustering>
</event>
<event>
10    2  0.1133532E-006  0.2245460E+03  0.7546771E-02  0.1138025E+00
         -1   -1    0    0    0  501 -0.00000000000E+00  0.00000000000E+00  0.19000048548E+04  0.19000048548E+04  0.00000000000E+00 0.  1.
          1   -1    0    0  503    0  0.00000000000E+00 -0.00000000000E+00 -0.12584335642E+03  0.12584335642E+03  0.00000000000E+00 0. -1.
         23    2    1    2    0    0  0.28807998138E+03 -0.14367830968E+03  0.42529932292E+03  0.54124485091E+03  0.91831052567E+02 0.  0.
         23    2    1    2    0    0 -0.15284515886E+03 -0.17472860103E+02  0.86824037518E+02  0.19894241492E+03  0.91502609437E+02 0.  0.
        -11    1    3    3    0    0  0.20913758928E+03 -0.10752500331E+03  0.23689373001E+03  0.33379454296E+03  0.00000000000E+00 0. -1.
         11    1    3    3    0    0  0.78942392098E+02 -0.36153306372E+02  0.18840559291E+03  0.20745030795E+03  0.00000000000E+00 0.  1.
        -13    1    4    4    0    0 -0.11868447252E+03  0.23552539163E+02  0.80159635464E+02  0.14514232076E+03  0.00000000000E+00 0.  1.
         13    1    4    4    0    0 -0.34160686346E+02 -0.41025399266E+02  0.66644020539E+01  0.53800094157E+02  0.00000000000E+00 0. -1.
         21    1    1    2  502  501 -0.11433058970E+03  0.15623217916E+03  0.12395070566E+04  0.12545348624E+04  0.00000000000E+00 0.  1.
         21    1    1    2  503  502 -0.20904232819E+02  0.49189906208E+01  0.22531081391E+02  0.31126083067E+02  0.00000000000E+00 0. -1.
<scales pt_clust_5="13000.00000" pt_clust_6="13000.00000" pt_clust_7="13000.00000" pt_clust_8="13000.00000" pt_clust_9="204.90969" pt_clust_10="21.47518"></scales>
<clustering>
<clus scale="   21.475">  2 10  1 -1</clus>
<clus scale="   91.503">  7  8 -1 -1</clus>
<clus scale="   91.831">  5  6 -1 -1</clus>
<clus scale="  187.098">  2  7  1 -1</clus>
<clus scale="  204.910">  1  9  2 -1</clus>
<clus scale="   21.475">  2  5  1 -1</clus>
</clustering>
</event>
<event>
10    2  0.1133532E-006  0.1303347E+03  0.7546771E-02  0.1227125E+00
          2   -1    0    0  503    0  0.00000000000E+00  0.00000000000E+00  0.70425625355E+03  0.70425625355E+03  0.00000000000E+00 0. -1.
         -2   -1    0    0    0  501 -0.00000000000E+00 -0.00000000000E+00 -0.48156467039E+02  0.48156467039E+02  0.00000000000E+00 0.  1.
         23    2    1    2    0    0  0.55807088733E+02  0.92964727119E+02  0.14390145477E+03  0.20166988850E+03  0.90588319350E+02 0.  0.
         23    2    1    2    0    0 -0.58186732334E+02 -0.45653645840E+02  0.28515305746E+03  0.30838956632E+03  0.91224488172E+02 0.  0.
        -11    1    3    3    0    0  0.42163158537E+02  0.57700833859E+02  0.23124217300E+02  0.75112233302E+02  0.00000000000E+00 0.  1.
         11    1    3    3    0    0  0.13643930196E+02  0.35263893260E+02  0.12077723747E+03  0.12655765520E+03  0.00000000000E+00 0. -1.
        -11    1    4    4    0    0 -0.49000096447E+02 -0.20620323844E+02  0.27462091505E+03  0.27971924172E+03  0.00000000000E+00 0. -1.
         11    1    4    4    0    0 -0.91866358869E+01 -0.25033321996E+02  0.10532142408E+02  0.28670324602E+02  0.00000000000E+00 0.  1.
         21    1    1    2  502  501  0.14496756115E+02 -0.16661215798E+02  0.12674223073E+02  0.25463463634E+02  0.00000000000E+00 0.  1.
         21    1    1    2  503  502 -0.12117112514E+02 -0.30649865481E+02  0.21437105122E+03  0.21688980213E+03  0.00000000000E+00 0. -1.
<scales pt_clust_5="13000.00000" pt_clust_6="13000.00000" pt_clust_7="13000.00000" pt_clust_8="13000.00000" pt_clust_9="22.08511" pt_clust_10="33.26991"></scales>
<clustering>
<clus scale="   22.085">  2  9  1 -1</clus>
<clus scale="   33.270">  1 10  2 -1</clus>
<clus scale="   90.588">  5  6 -1 -1</clus>
<clus scale="   91.224">  7  8 -1 -1</clus>
<clus scale="  129.890">  2  5  1 -1</clus>
<clus scale="   33.270">  1  5  2 -1</clus>
</clustering>
</event>
<event>
10    2  0.1133532E-006  0.4804661E+03  0.7546771E-02  0.1063792E+00
         -2   -1    0    0    0  501 -0.00000000000E+00  0.00000000000E+00  0.34777788953E+03  0.34777788953E+03  0.00000000000E+00 0.  1.
          2   -1    0    0  503    0  0.00000000000E+00 -0.00000000000E+00 -0.17349261823E+04  0.17349261823E+04  0.00000000000E+00 0. -1.
         23    2    1    2    0    0 -0.41701896445E+03  0.71496793281E+02 -0.80341138935E+03  0.91251382400E+03  0.90526296140E+02 0.  0.
         23    2    1    2    0    0 -0.72313765248E+02 -0.75224122880E+02 -0.43822330933E+03  0.45951388943E+03  0.90693971322E+02 0.  0.
        -11    1    3    3    0    0 -0.60951787552E+02  0.41828323973E+02 -0.11124979600E+03  0.13357112788E+03  0.00000000000E+00 0. -1.
         11    1    3    3    0    0 -0.35606717690E+03  0.29668469308E+02 -0.69216159335E+03  0.77894269612E+03  0.00000000000E+00 0.  1.
        -11    1    4    4    0    0 -0.93006667303E+02 -0.64288470729E+02 -0.38737563751E+03  0.40353826605E+03  0.00000000000E+00 0. -1.
         11    1    4    4    0    0  0.20692902055E+02 -0.10935652151E+02 -0.50847671820E+02  0.55975623381E+02  0.00000000000E+00 0.  1.
         21    1    1    2  502  501  0.48263899304E+03 -0.37430580711E+02  0.71812682908E+02  0.48938584716E+03  0.00000000000E+00 0.  1.
         21    1    1    2  503  502  0.66937366555E+01  0.41157910310E+02 -0.21732627700E+03  0.22129051125E+03  0.00000000000E+00 0. -1.
<scales pt_clust_5="13000.00000" pt_clust_6="13000.00000" pt_clust_7="13000.00000" pt_clust_8="13000.00000" pt_clust_9="471.86082" pt_clust_10="41.69868"></scales>
<clustering>
<clus scale="   41.699">  2 10  1 -1</clus>
<clus scale="   90.526">  5  6 -1 -1</clus>
<clus scale="   90.694">  7  8 -1 -1</clus>
<clus scale="  130.940">  2  7  1 -1</clus>
<clus scale="  471.861">  1  9  2 -1</clus>
<clus scale="   41.699">  2  5  1 -1</clus>
</clustering>
</event>
<event>
10    2  0.1133532E-006  0.1599992E+03  0.7546771E-02  0.1191460E+00
          1   -1    0    0  503    0  0.00000000000E+00  0.00000000000E+00  0.12714674129E+03  0.12714674129E+03  0.00000000000E+00 0. -1.
         -1   -1    0    0    0  501 -0.00000000000E+00 -0.00000000000E+00 -0.65611361934E+03  0.65611361934E+03  0.00000000000E+00 0.  1.
         23    2    1    2    0    0 -0.14255548016E+03 -0.19094054883E+02 -0.45206150802E+03  0.48606830199E+03  0.10590627605E+03 0.  0.
         23    2    1    2    0    0  0.75260784250E+02  0.36139964927E+01 -0.77552915146E+02  0.14130306477E+03  0.90966229171E+02 0.  0.
        -13    1    4    4    0    0  0.29794561653E+02 -0.40505617727E+02 -0.53807030813E+02  0.73645213942E+02  0.00000000000E+00 0.  1.
         13    1    4    4    0    0  0.45466222597E+02  0.44119614220E+02 -0.23745884333E+02  0.67657850830E+02  0.00000000000E+00 0. -1.
        -13    1    3    3    0    0 -0.96738731095E+02 -0.48388202385E+02 -0.38403373103E+03  0.39897582232E+03  0.00000000000E+00 0.  1.
         13    1    3    3    0    0 -0.45816749069E+02  0.29294147503E+02 -0.68027776987E+02  0.87092479670E+02  0.00000000000E+00 0. -1.
         21    1    1    2  502  501  0.66735103418E+02 -0.31854689089E+02 -0.47880965499E+02  0.88095868815E+02  0.00000000000E+00 0.  1.
         21    1    1    2  503  502  0.55959249635E+00  0.47334747479E+02  0.48528510613E+02  0.67793125057E+02  0.00000000000E+00 0. -1.
<scales pt_clust_5="13000.00000" pt_clust_6="13000.00000" pt_clust_7="13000.00000" pt_clust_8="13000.00000" pt_clust_9="69.29257" pt_clust_10="47.33806"></scales>
<clustering>
<clus scale="   47.338">  1 10  2 -1</clus>
<clus scale="   69.293">  1  9  2 -1</clus>
<clus scale="   90.966">  5  6 -1 -1</clus>
<clus scale="  105.906">  7  8 -1 -1</clus>
<clus scale="  150.527">  1  5  2 -1</clus>
<clus scale="   47.338">  1  5  2 -1</clus>
</clustering>
</event>
<event>
10    2  0.1133532E-006  0.9299374E+02  0.7546771E-02  0.1295848E+00
          1   -1    0    0  503    0  0.00000000000E+00  0.00000000000E+00  0.31166076316E+03  0.31166076316E+03  0.00000000000E+00 0. -1.
         -1   -1    0    0    0  501 -0.00000000000E+00 -0.00000000000E+00 -0.10588689101E+03  0.10588689101E+03  0.00000000000E+00 0.  1.
         23    2    1    2    0    0  0.58688352735E+02 -0.24330387778E+02  0.25388415007E+02  0.11413850774E+03  0.91360477327E+02 0.  0.
         23    2    1    2    0    0  0.20008358206E+02 -0.89158128725E+01  0.13971648746E+03  0.16828209692E+03  0.91204940436E+02 0.  0.
        -13    1    3    3    0    0  0.70128206491E+02  0.82894356881E+01 -0.10422263786E+01  0.70624119998E+02  0.00000000000E+00 0. -1.
         13    1    3    3    0    0 -0.11439853756E+02 -0.32619823466E+02  0.26430641385E+02  0.43514387746E+02  0.00000000000E+00 0.  1.
        -13    1    4    4    0    0  0.16909658869E+02  0.35341540844E+02  0.10461231398E+03  0.11170808972E+03  0.00000000000E+00 0.  1.
         13    1    4    4    0    0  0.30986993367E+01 -0.44257353717E+02  0.35104173479E+02  0.56574007205E+02  0.00000000000E+00 0. -1.
         21    1    1    2  502  501 -0.42438449522E+02  0.24369405124E+02 -0.28425085231E+02  0.56593951746E+02  0.00000000000E+00 0.  1.
         21    1    1    2  503  502 -0.36258261419E+02  0.88767955262E+01  0.69094054914E+02  0.78533097764E+02  0.00000000000E+00 0.  1.
<scales pt_clust_5="13000.00000" pt_clust_6="13000.00000" pt_clust_7="13000.00000" pt_clust_8="13000.00000" pt_clust_9="51.06499" pt_clust_10="37.32906"></scales>
<clustering>
<clus scale="   37.329">  1 10  2 -1</clus>
<clus scale="   51.065">  2  9  1 -1</clus>
<clus scale="   91.205">  7  8 -1 -1</clus>
<clus scale="   91.360">  5  6 -1 -1</clus>
<clus scale="   92.841">  1  7  2 -1</clus>
<clus scale="   37.329">  1  5  2 -1</clus>
</clustering>
</event>
<event>
10    2  0.1133532E-006  0.1302006E+03  0.7546771E-02  0.1236687E+00
          1   -1    0    0  503    0  0.00000000000E+00  0.00000000000E+00  0.92688646678E+03  0.92688646678E+03  0.00000000000E+00 0. -1.
         -1   -1    0    0    0  501 -0.00000000000E+00 -0.00000000000E+00 -0.16431460465E+03  0.16431460465E+03  0.00000000000E+00 0.  1.
         23    2    1    2    0    0 -0.21834538430E+02 -0.13446750446E+01  0.43284654574E+02  0.10231327589E+03  0.90088233873E+02 0.  0.
         23    2    1    2    0    0 -0.44071453794E+02 -0.45084314155E+01  0.33633813095E+03  0.35100639344E+03  0.90108439732E+02 0.  0.
        -11    1    4    4    0    0 -0.52671354562E+02 -0.36009451264E+02  0.26463506160E+03  0.27221805230E+03  0.00000000000E+00 0.  1.
         11    1    4    4    0    0  0.85999007680E+01  0.31501019849E+02  0.71703069349E+02  0.78788341135E+02  0.00000000000E+00 0. -1.
        -11    1    3    3    0    0 -0.44535494440E+02 -0.31608050803E+02  0.21762566483E+02  0.58788506024E+02  0.00000000000E+00 0.  1.
         11    1    3    3    0    0  0.22700956010E+02  0.30263375759E+02  0.21522088092E+02  0.43524769866E+02  0.00000000000E+00 0. -1.
         21    1    1    2  502  501 -0.91328822852E+02  0.80466239491E+01 -0.96616120820E+02  0.13319300598E+03  0.00000000000E+00 0.  1.
         21    1    1    2  503  502  0.15723481508E+03 -0.21935174890E+01  0.47956519743E+03  0.50468839612E+03  0.00000000000E+00 0. -1.
<scales pt_clust_5="13000.00000" pt_clust_6="13000.00000" pt_clust_7="13000.00000" pt_clust_8="13000.00000" pt_clust_9="91.68262" pt_clust_10="94.00161"></scales>
<clustering>
<clus scale="   90.088">  7  8 -1 -1</clus>
<clus scale="   90.108">  5  6 -1 -1</clus>
<clus scale="   91.683">  2  9  1 -1</clus>
<clus scale="  107.012">  1  5  2 -1</clus>
<clus scale="   94.002">  1 10  2 -1</clus>
<clus scale="  107.012">  1  5  2 -1</clus>
</clustering>
</event>
<event>
10    2  0.1133532E-006  0.2182990E+03  0.7546771E-02  0.1135260E+00
          1   -1    0    0  503    0  0.00000000000E+00  0.00000000000E+00  0.63960719770E+03  0.63960719770E+03  0.00000000000E+00 0. -1.
         -1   -1    0    0    0  501 -0.00000000000E+00 -0.00000000000E+00 -0.16805572105E+03  0.16805572105E+03  0.00000000000E+00 0.  1.
         23    2    1    2    0    0  0.69652339891E+02 -0.16400854130E+03  0.87422668250E+02  0.21757019835E+03  0.89128100041E+02 0.  0.
         23    2    1    2    0    0 -0.74346859090E+02  0.20573771911E+03  0.38774982490E+03  0.45429709288E+03  0.90445880881E+02 0.  0.
        -13    1    3    3    0    0  0.77905683880E+02 -0.88056893824E+02  0.76807403353E+02  0.14043749265E+03  0.00000000000E+00 0.  1.
         13    1    3    3    0    0 -0.82533439890E+01 -0.75951647475E+02  0.10615264896E+02  0.77132705709E+02  0.00000000000E+00 0. -1.
        -13    1    4    4    0    0 -0.17658168203E+02  0.81088248871E+02  0.71002850999E+02  0.10921776348E+03  0.00000000000E+00 0.  1.
         13    1    4    4    0    0 -0.56688690888E+02  0.12464947024E+03  0.31674697390E+03  0.34507932940E+03  0.00000000000E+00 0. -1.
         21    1    1    2  502  501 -0.13334202380E+02 -0.29804326041E+02 -0.63899732847E+02  0.71758446623E+02  0.00000000000E+00 0.  1.
         21    1    1    2  503  502  0.18028721580E+02 -0.11924851771E+02  0.60278716354E+02  0.64037180894E+02  0.00000000000E+00 0.  1.
<scales pt_clust_5="13000.00000" pt_clust_6="13000.00000" pt_clust_7="13000.00000" pt_clust_8="13000.00000" pt_clust_9="32.67546" pt_clust_10="21.61566"></scales>
<clustering>
<clus scale="   21.616">  1 10  2 -1</clus>
<clus scale="   32.675">  2  9  1 -1</clus>
<clus scale="   89.128">  5  6 -1 -1</clus>
<clus scale="   90.446">  7  8 -1 -1</clus>
<clus scale="  217.756">  2  5  1 -1</clus>
<clus scale="   21.616">  1  5  2 -1</clus>
</clustering>
</event>
<event>
10    2  0.1133532E-006  0.1088315E+03  0.7546771E-02  0.1263121E+00
          1   -1    0    0  503    0  0.00000000000E+00  0.00000000000E+00  0.58951336077E+03  0.58951336077E+03  0.00000000000E+00 0. -1.
         -1   -1    0    0    0  501 -0.00000000000E+00 -0.00000000000E+00 -0.19517841478E+03  0.19517841478E+03  0.00000000000E+00 0.  1.
         23    2    1    2    0    0 -0.42803347951E+02  0.44500385790E+02  0.22870331507E+02  0.11157586323E+03  0.90076135909E+02 0.  0.
         23    2    1    2    0    0 -0.26531205660E+02 -0.95747983331E+02  0.90102548212E+02  0.16209497410E+03  0.91020493554E+02 0.  0.
        -11    1    4    4    0    0 -0.12605495253E+02 -0.67940718813E+02  0.10648807062E+03  0.12694309342E+03  0.00000000000E+00 0. -1.
         11    1    4    4    0    0 -0.13925710407E+02 -0.27807264517E+02 -0.16385522407E+02  0.35151880673E+02  0.00000000000E+00 0.  1.
        -13    1    3    3    0    0 -0.28147400320E+02 -0.23860631549E+02  0.19123872156E+02  0.41561140131E+02  0.00000000000E+00 0.  1.
         13    1    3    3    0    0 -0.14655947631E+02  0.68361017339E+02  0.37464593510E+01  0.70014723097E+02  0.00000000000E+00 0. -1.
         21    1    1    2  502  501  0.41609040190E+02 -0.11099854184E+02 -0.10771574557E+03  0.11600517589E+03  0.00000000000E+00 0.  1.
         21    1    1    2  503  502  0.27725513422E+02  0.62347451724E+02  0.38907781184E+03  0.39501576234E+03  0.00000000000E+00 0. -1.
<scales pt_clust_5="13000.00000" pt_clust_6="13000.00000" pt_clust_7="13000.00000" pt_clust_8="13000.00000" pt_clust_9="43.06413" pt_clust_10="68.49204"></scales>
<clustering>
<clus scale="   43.064">  2  9  1 -1</clus>
<clus scale="   68.492">  1 10  2 -1</clus>
<clus scale="   90.076">  7  8 -1 -1</clus>
<clus scale="   91.020">  5  6 -1 -1</clus>
<clus scale="  108.043">  2  7  1 -1</clus>
<clus scale="   68.492">  1  5  2 -1</clus>
</clustering>
</event>
<event>
10    2  0.1133532E-006  0.1409918E+03  0.7546771E-02  0.1213345E+00
          1   -1    0    0  503    0  0.00000000000E+00  0.00000000000E+00  0.27141077264E+03  0.27141077264E+03  0.00000000000E+00 0. -1.
         -1   -1    0    0    0  501 -0.00000000000E+00 -0.00000000000E+00 -0.46949021100E+03  0.46949021100E+03  0.00000000000E+00 0.  1.
         23    2    1    2    0    0  0.86445003472E+02 -0.21333781917E+02 -0.27450098850E+03  0.30467221736E+03  0.97706184387E+02 0.  0.
         23    2    1    2    0    0 -0.57444037224E+02 -0.38242985826E+02  0.19590075845E+03  0.22711578047E+03  0.91881049200E+02 0.  0.
        -13    1    3    3    0    0  0.48266682658E+02 -0.13909915075E+02 -0.25727852186E+03  0.26213621689E+03  0.00000000000E+00 0.  1.
         13    1    3    3    0    0  0.38178320815E+02 -0.74238668420E+01 -0.17222466636E+02  0.42536000472E+02  0.00000000000E+00 0. -1.
        -13    1    4    4    0    0 -0.30594357886E+02  0.18668891868E+02  0.21700640672E+02  0.41898210744E+02  0.00000000000E+00 0. -1.
         13    1    4    4    0    0 -0.26849679339E+02 -0.56911877693E+02  0.17420011778E+03  0.18521756973E+03  0.00000000000E+00 0.  1.
         21    1    1    2  502  501  0.16315763315E+01  0.93677227740E+02 -0.13174387604E+03  0.16166178866E+03  0.00000000000E+00 0. -1.
         21    1    1    2  503  502 -0.30632542580E+02 -0.34100459997E+02  0.12264667719E+02  0.47451197152E+02  0.00000000000E+00 0.  1.
<scales pt_clust_5="13000.00000" pt_clust_6="13000.00000" pt_clust_7="13000.00000" pt_clust_8="13000.00000" pt_clust_9="91.56583" pt_clust_10="45.83878"></scales>
<clustering>
<clus scale="   45.839">  1 10  2 -1</clus>
<clus scale="   91.566">  2  9  1 -1</clus>
<clus scale="   91.881">  7  8 -1 -1</clus>
<clus scale="   97.706">  5  6 -1 -1</clus>
<clus scale="  137.019">  1  7  2 -1</clus>
<clus scale="   45.839">  1  5  2 -1</clus>
</clustering>
</event>
<event>
10    2  0.1133532E-006  0.3276937E+03  0.7546771E-02  0.1072373E+00
         -1   -1    0    0    0  501 -0.00000000000E+00  0.00000000000E+00  0.57708034361E+03  0.57708034361E+03  0.00000000000E+00 0.  1.
          1   -1    0    0  503    0  0.00000000000E+00 -0.00000000000E+00 -0.34663577365E+03  0.34663577365E+03  0.00000000000E+00 0. -1.
         23    2    1    2    0    0 -0.87141205300E+02  0.26866889606E+03  0.22042800087E+03  0.36919573842E+03  0.89109058633E+02 0.  0.
         23    2    1    2    0    0  0.15344417070E+03 -0.31769173752E+03  0.75621049503E+01  0.36565547265E+03  0.95778837128E+02 0.  0.
        -13    1    3    3    0    0 -0.36804090507E+02  0.22356395906E+03  0.18708258642E+03  0.29382865587E+03  0.00000000000E+00 0.  1.
         13    1    3    3    0    0 -0.50337114793E+02  0.45104937000E+02  0.33345414443E+02  0.75367082548E+02  0.00000000000E+00 0. -1.
        -13    1    4    4    0    0  0.14405221615E+03 -0.20730378895E+03  0.24319053499E+02  0.25360859263E+03  0.00000000000E+00 0.  1.
         13    1    4    4    0    0  0.93919545503E+01 -0.11038794857E+03 -0.16756948548E+02  0.11204688003E+03  0.00000000000E+00 0. -1.
         21    1    1    2  502  501 -0.17564825261E+02  0.24906646552E+02  0.84841778244E+02  0.90149827867E+02  0.00000000000E+00 0.  1.
         21    1    1    2  503  502 -0.48738140140E+02  0.24116194902E+02 -0.82387314106E+02  0.98715078314E+02  0.00000000000E+00 0. -1.
<scales pt_clust_5="13000.00000" pt_clust_6="13000.00000" pt_clust_7="13000.00000" pt_clust_8="13000.00000" pt_clust_9="30.47727" pt_clust_10="54.82552"></scales>
<clustering>
<clus scale="   30.477">  1  9  2 -1</clus>
<clus scale="   54.826">  2 10  1 -1</clus>
<clus scale="   89.109">  5  6 -1 -1</clus>
<clus scale="   95.779">  7  8 -1 -1</clus>
<clus scale="  325.807">  1  5  2 -1</clus>
<clus scale="   54.826">  2  5  1 -1</clus>
</clustering>
</event>
<event>
10    2  0.1133532E-006  0.9234366E+02  0.7546771E-02  0.1297623E+00
          2   -1    0    0  502    0  0.00000000000E+00  0.00000000000E+00  0.41683568927E+03  0.41683568927E+03  0.00000000000E+00 0. -1.
         -2   -1    0    0    0  501 -0.00000000000E+00 -0.00000000000E+00 -0.68624508828E+02  0.68624508828E+02  0.00000000000E+00 0.  1.
         23    2    1    2    0    0  0.35754691021E+02 -0.10714203930E+02  0.99455488618E+01  0.98539645520E+02  0.90652940940E+02 0.  0.
         23    2    1    2    0    0 -0.17000399829E+02 -0.27135990483E+01  0.27283053997E+03  0.28820188417E+03  0.91254837053E+02 0.  0.
        -11    1    3    3    0    0 -0.90386037394E+00  0.36466565261E+02 -0.53409827607E+01  0.36866698284E+02  0.00000000000E+00 0.  1.
         11    1    3    3    0    0  0.36658551395E+02 -0.47180769190E+02  0.15286531623E+02  0.61672947236E+02  0.00000000000E+00 0. -1.
        -13    1    4    4    0    0 -0.28953969866E+02  0.38942409768E+02  0.12289240260E+03  0.13212640261E+03  0.00000000000E+00 0.  1.
         13    1    4    4    0    0  0.11953570037E+02 -0.41656008816E+02  0.14993813737E+03  0.15607548156E+03  0.00000000000E+00 0. -1.
         21    1    1    2  502  503  0.15334023223E+02 -0.14105890227E+02  0.46556018948E+02  0.51005600747E+02  0.00000000000E+00 0. -1.
         21    1    1    2  503  501 -0.34088314415E+02  0.27533693205E+02  0.18879072667E+02  0.47713067664E+02  0.00000000000E+00 0.  1.
<scales pt_clust_5="13000.00000" pt_clust_6="13000.00000" pt_clust_7="13000.00000" pt_clust_8="13000.00000" pt_clust_9="20.83527" pt_clust_10="41.93835"></scales>
<clustering>
<clus scale="   20.835">  1  9  2 -1</clus>
<clus scale="   41.938">  2 10  1 -1</clus>
<clus scale="   90.653">  5  6 -1 -1</clus>
<clus scale="   91.255">  7  8 -1 -1</clus>
<clus scale="   91.749">  2  5  1 -1</clus>
<clus scale="   20.835">  1  5  2 -1</clus>
</clustering>
</event>
<event>
10    2  0.1133532E-006  0.1071531E+03  0.7546771E-02  0.1268098E+00
          1   -1    0    0  503    0  0.00000000000E+00  0.00000000000E+00  0.18041724097E+03  0.18041724097E+03  0.00000000000E+00 0. -1.
         -1   -1    0    0    0  501 -0.00000000000E+00 -0.00000000000E+00 -0.47778880230E+03  0.47778880230E+03  0.00000000000E+00 0.  1.
         23    2    1    2    0    0 -0.58683368161E+01  0.42789742981E+02 -0.38783321639E+03  0.40075084246E+03  0.91220800893E+02 0.  0.
         23    2    1    2    0    0  0.12000060275E+02 -0.34534898196E+02 -0.11006629460E+01  0.93450633820E+02  0.85995051383E+02 0.  0.
        -13    1    3    3    0    0  0.48011626436E+01  0.63024049460E+02 -0.35590456675E+03  0.36147357110E+03  0.00000000000E+00 0.  1.
         13    1    3    3    0    0 -0.10669499460E+02 -0.20234306479E+02 -0.31928649644E+02  0.39277271360E+02  0.00000000000E+00 0. -1.
        -13    1    4    4    0    0 -0.28519612726E+02  0.12688594177E+02  0.72550336827E-01  0.31214964293E+02  0.00000000000E+00 0.  1.
         13    1    4    4    0    0  0.40519673001E+02 -0.47223492373E+02 -0.11732132829E+01  0.62235669527E+02  0.00000000000E+00 0. -1.
         21    1    1    2  502  501  0.82776935624E+01  0.21781770677E+02 -0.29984969889E+02  0.37974519928E+02  0.00000000000E+00 0.  1.
         21    1    1    2  503  502 -0.14409417022E+02 -0.30036615462E+02  0.12154728790E+03  0.12603004706E+03  0.00000000000E+00 0. -1.
<scales pt_clust_5="13000.00000" pt_clust_6="13000.00000" pt_clust_7="13000.00000" pt_clust_8="13000.00000" pt_clust_9="23.30163" pt_clust_10="33.19684"></scales>
<clustering>
<clus scale="   23.302">  2  9  1 -1</clus>
<clus scale="   33.197">  1 10  2 -1</clus>
<clus scale="   85.995">  7  8 -1 -1</clus>
<clus scale="   91.221">  5  6 -1 -1</clus>
<clus scale="  102.741">  1  7  2 -1</clus>
<clus scale="   33.197">  1  5  2 -1</clus>
</clustering>
</event>
<event>
10    2  0.1133532E-006  0.1743675E+03  0.7546771E-02  0.1174313E+00
          2   -1    0    0  503    0  0.00000000000E+00  0.00000000000E+00  0.32283590459E+03  0.32283590459E+03  0.00000000000E+00 0. -1.
         -2   -1    0    0    0  501 -0.00000000000E+00 -0.00000000000E+00 -0.19754144405E+03  0.19754144405E+03  0.00000000000E+00 0.  1.
         23    2    1    2    0    0 -0.11073118878E+03 -0.10232610544E+03  0.19931010780E+02  0.17928851277E+03  0.94947867789E+02 0.  0.
         23    2    1    2    0    0  0.20550649976E+02  0.14031674550E+03  0.90943116847E+02  0.19665898128E+03  0.10145435494E+03 0.  0.
        -11    1    3    3    0    0 -0.12786230607E+03 -0.84195219969E+02  0.14660918517E+02  0.15379384549E+03  0.00000000000E+00 0.  1.
         11    1    3    3    0    0  0.17131117286E+02 -0.18130885469E+02  0.52700922634E+01  0.25494667282E+02  0.00000000000E+00 0. -1.
        -13    1    4    4    0    0  0.29013764332E+02  0.33861367932E+02 -0.14196472889E+02  0.46796694343E+02  0.00000000000E+00 0.  1.
         13    1    4    4    0    0 -0.84631143566E+01  0.10645537756E+03  0.10513958974E+03  0.14986228694E+03  0.00000000000E+00 0. -1.
         21    1    1    2  502  501  0.48536174648E+02 -0.64581811278E+02 -0.21195618179E+02  0.83521403409E+02  0.00000000000E+00 0.  1.
         21    1    1    2  503  502  0.41644364158E+02  0.26591171219E+02  0.35615951090E+02  0.60908451179E+02  0.00000000000E+00 0.  1.
<scales pt_clust_5="13000.00000" pt_clust_6="13000.00000" pt_clust_7="13000.00000" pt_clust_8="13000.00000" pt_clust_9="81.40647" pt_clust_10="49.40995"></scales>
<clustering>
<clus scale="   49.410">  1 10  2 -1</clus>
<clus scale="   81.406">  2  9  1 -1</clus>
<clus scale="   94.948">  5  6 -1 -1</clus>
<clus scale="  101.454">  7  8 -1 -1</clus>
<clus scale="  170.664">  2  5  1 -1</clus>
<clus scale="   49.410">  1  5  2 -1</clus>
</clustering>
</event>
<event>
10    2  0.1133532E-006  0.1071861E+03  0.7546771E-02  0.1267518E+00
          1   -1    0    0  503    0  0.00000000000E+00  0.00000000000E+00  0.22967470437E+03  0.22967470437E+03  0.00000000000E+00 0. -1.
         -1   -1    0    0    0  501 -0.00000000000E+00 -0.00000000000E+00 -0.23722948253E+03  0.23722948253E+03  0.00000000000E+00 0.  1.
         23    2    1    2    0    0 -0.23334353722E+02 -0.62550505762E+01 -0.52111915428E+01  0.93207816731E+02  0.89871702227E+02 0.  0.
         23    2    1    2    0    0 -0.16921012552E+02 -0.93625745465E+02  0.12586767022E+03  0.17960853866E+03  0.85816407946E+02 0.  0.
        -11    1    4    4    0    0 -0.24615837893E+02 -0.22832457988E+02 -0.15845493645E+01  0.33612072379E+02  0.00000000000E+00 0.  1.
         11    1    4    4    0    0  0.76948253414E+01 -0.70793287478E+02  0.12745221959E+03  0.14599646628E+03  0.00000000000E+00 0. -1.
        -13    1    3    3    0    0 -0.28064525691E+02  0.37815701742E+02 -0.11405025918E+02  0.48453271476E+02  0.00000000000E+00 0.  1.
         13    1    3    3    0    0  0.47301719688E+01 -0.44070752318E+02  0.61938343751E+01  0.44754545255E+02  0.00000000000E+00 0. -1.
         21    1    1    2  502  501  0.50176039069E-02  0.38707711650E+02 -0.11279977985E+03  0.11925635119E+03  0.00000000000E+00 0. -1.
         21    1    1    2  503  502  0.40250348670E+02  0.61173084391E+02 -0.15411476995E+02  0.74831480309E+02  0.00000000000E+00 0.  1.
<scales pt_clust_5="13000.00000" pt_clust_6="13000.00000" pt_clust_7="13000.00000" pt_clust_8="13000.00000" pt_clust_9="38.70771" pt_clust_10="85.63346"></scales>
<clustering>
<clus scale="   38.708">  2  9  1 -1</clus>
<clus scale="   85.633">  2 10  1 -1</clus>
<clus scale="   85.816">  5  6 -1 -1</clus>
<clus scale="   89.872">  7  8 -1 -1</clus>
<clus scale="  103.809">  1  5  2 -1</clus>
<clus scale="  103.809">  1  5  2 -1</clus>
</clustering>
</event>
<event>
10    2  0.1133532E-006  0.9358823E+02  0.7546771E-02  0.1294571E+00
         -2   -1    0    0    0  501 -0.00000000000E+00  0.00000000000E+00  0.70001578883E+02  0.70001578883E+02  0.00000000000E+00 0.  1.
          2   -1    0    0  503    0  0.00000000000E+00 -0.00000000000E+00 -0.31601486723E+03  0.31601486723E+03  0.00000000000E+00 0. -1.
         23    2    1    2    0    0 -0.15230948772E+02 -0.65550172345E+01 -0.53280953430E+02  0.10755692250E+03  0.91949342179E+02 0.  0.
         23    2    1    2    0    0 -0.95058519807E+01  0.15754066402E+02 -0.14507270961E+03  0.17256832084E+03  0.91625228258E+02 0.  0.
        -11    1    3    3    0    0 -0.20276645345E+02  0.21807699190E+02  0.15076638673E+02  0.33376984946E+02  0.00000000000E+00 0. -1.
         11    1    3    3    0    0  0.50456965728E+01 -0.28362716424E+02 -0.68357592104E+02  0.74179937551E+02  0.00000000000E+00 0.  1.
        -13    1    4    4    0    0 -0.30273597120E+02 -0.19139580954E+02 -0.19898899058E+02  0.40972923076E+02  0.00000000000E+00 0.  1.
         13    1    4    4    0    0  0.20767745140E+02  0.34893647356E+02 -0.12517381055E+03  0.13159539776E+03  0.00000000000E+00 0. -1.
         21    1    1    2  502  501 -0.91532922612E+01 -0.18489325323E+02  0.20576576326E+02  0.29138177764E+02  0.00000000000E+00 0.  1.
         21    1    1    2  503  502  0.33890093014E+02  0.92902761549E+01 -0.68236201630E+02  0.76753025011E+02  0.00000000000E+00 0. -1.
<scales pt_clust_5="13000.00000" pt_clust_6="13000.00000" pt_clust_7="13000.00000" pt_clust_8="13000.00000" pt_clust_9="20.63099" pt_clust_10="33.87781"></scales>
<clustering>
<clus scale="   20.631">  1  9  2 -1</clus>
<clus scale="   33.878">  2 10  1 -1</clus>
<clus scale="   91.625">  7  8 -1 -1</clus>
<clus scale="   91.949">  5  6 -1 -1</clus>
<clus scale="   93.270">  2  7  1 -1</clus>
<clus scale="   33.878">  2  5  1 -1</clus>
</clustering>
</event>
<event>
10    2  0.1133532E-006  0.1028260E+03  0.7546771E-02  0.1275359E+00
          2   -1    0    0  503    0  0.00000000000E+00  0.00000000000E+00  0.41357026527E+03  0.41357026527E+03  0.00000000000E+00 0. -1.
         -2   -1    0    0    0  501 -0.00000000000E+00 -0.00000000000E+00 -0.30670285416E+03  0.30670285416E+03  0.00000000000E+00 0.  1.
         23    2    1    2    0    0 -0.51477100012E+02  0.24386856304E+02 -0.25869783310E+03  0.28041547975E+03  0.91998162167E+02 0.  0.
         23    2    1    2    0    0  0.47368530048E+02 -0.47478725537E+02  0.33334794796E+03  0.35174618984E+03  0.90036218508E+02 0.  0.
        -11    1    4    4    0    0  0.41426735917E+02  0.88988479690E-02  0.52631662121E+02  0.66979596786E+02  0.00000000000E+00 0.  1.
         11    1    4    4    0    0  0.59417941315E+01 -0.47487624385E+02  0.28071628583E+03  0.28476659305E+03  0.00000000000E+00 0. -1.
        -11    1    3    3    0    0  0.35266775425E+01 -0.22318051043E+02 -0.17281859781E+02  0.28446362410E+02  0.00000000000E+00 0. -1.
         11    1    3    3    0    0 -0.55003777555E+02  0.46704907347E+02 -0.24141597332E+03  0.25196911734E+03  0.00000000000E+00 0.  1.
         21    1    1    2  502  501  0.21212557944E+02  0.84384923195E+01 -0.20564051831E+02  0.30725575582E+02  0.00000000000E+00 0. -1.
         21    1    1    2  503  502 -0.17103987980E+02  0.14653376914E+02  0.52781348081E+02  0.57385874264E+02  0.00000000000E+00 0. -1.
<scales pt_clust_5="13000.00000" pt_clust_6="13000.00000" pt_clust_7="13000.00000" pt_clust_8="13000.00000" pt_clust_9="22.68267" pt_clust_10="22.52261"></scales>
<clustering>
<clus scale="   22.523">  1 10  2 -1</clus>
<clus scale="   22.683">  2  9  1 -1</clus>
<clus scale="   90.036">  5  6 -1 -1</clus>
<clus scale="   91.998">  7  8 -1 -1</clus>
<clus scale="  101.074">  1  5  2 -1</clus>
<clus scale="   22.523">  1  5  2 -1</clus>
</clustering>
</event>
<event>
10    2  0.1133532E-006  0.9654746E+02  0.7546771E-02  0.1289611E+00
          1   -1    0    0  503    0  0.00000000000E+00  0.00000000000E+00  0.43307151634E+03  0.43307151634E+03  0.00000000000E+00 0. -1.
         -1   -1    0    0    0  501 -0.00000000000E+00 -0.00000000000E+00 -0.70408773815E+02  0.70408773815E+02  0.00000000000E+00 0.  1.
         23    2    1    2    0    0 -0.63041010272E+02  0.26908237314E+02  0.49744950101E+02  0.12163204477E+03  0.87301615348E+02 0.  0.
         23    2    1    2    0    0  0.27286990178E+01  0.11331488235E+02  0.86746826915E+02  0.12616841630E+03  0.90871386414E+02 0.  0.
        -11    1    3    3    0    0 -0.40772052142E+02 -0.16261868143E+01 -0.18175219618E+02  0.44669266029E+02  0.00000000000E+00 0. -1.
         11    1    3    3    0    0 -0.22268958130E+02  0.28534424128E+02  0.67920169719E+02  0.76962778738E+02  0.00000000000E+00 0.  1.
        -11    1    4    4    0    0  0.10404560699E+01  0.50599639619E+02  0.60634027990E+02  0.78980323048E+02  0.00000000000E+00 0.  1.
         11    1    4    4    0    0  0.16882429478E+01 -0.39268151385E+02  0.26112798925E+02  0.47188093256E+02  0.00000000000E+00 0. -1.
         21    1    1    2  502  501  0.24152924329E+02 -0.27155942173E+02  0.12115845874E+02  0.38309302658E+02  0.00000000000E+00 0. -1.
         21    1    1    2  503  502  0.36159386926E+02 -0.11083783376E+02  0.21405511963E+03  0.21737052642E+03  0.00000000000E+00 0. -1.
<scales pt_clust_5="13000.00000" pt_clust_6="13000.00000" pt_clust_7="13000.00000" pt_clust_8="13000.00000" pt_clust_9="36.34294" pt_clust_10="38.72196"></scales>
<clustering>
<clus scale="   36.343">  2  9  1 -1</clus>
<clus scale="   38.722">  1 10  2 -1</clus>
<clus scale="   87.302">  5  6 -1 -1</clus>
<clus scale="   90.871">  7  8 -1 -1</clus>
<clus scale="   93.195">  2  5  1 -1</clus>
<clus scale="   38.722">  1  5  2 -1</clus>
</clustering>
</event>
<event>
10    2  0.1133532E-006  0.9075657E+02  0.7546771E-02  0.1301174E+00
          2   -1    0    0  503    0  0.00000000000E+00  0.00000000000E+00  0.49386632768E+03  0.49386632768E+03  0.00000000000E+00 0. -1.
         -2   -1    0    0    0  501 -0.00000000000E+00 -0.00000000000E+00 -0.35618356984E+02  0.35618356984E+02  0.00000000000E+00 0.  1.
         23    2    1    2    0    0  0.11235203657E+02  0.86574375120E+01  0.93756697589E+02  0.13106264975E+03  0.90476067502E+02 0.  0.
         23    2    1    2    0    0  0.11483106600E+02  0.17105738638E+02  0.14667040322E+03  0.17368384562E+03  0.90716057107E+02 0.  0.
        -11    1    3    3    0    0  0.17130655537E+02 -0.18384227915E+02  0.99646483535E+02  0.10276604924E+03  0.00000000000E+00 0. -1.
         11    1    3    3    0    0 -0.58954518800E+01  0.27041665427E+02 -0.58897859457E+01  0.28296600510E+02  0.00000000000E+00 0.  1.
        -13    1    4    4    0    0 -0.20042941214E+02  0.41933704272E+02  0.46366925542E+02  0.65650946914E+02  0.00000000000E+00 0.  1.
         13    1    4    4    0    0  0.31526047814E+02 -0.24827965634E+02  0.10030347768E+03  0.10803289871E+03  0.00000000000E+00 0. -1.
         21    1    1    2  502  501 -0.14560850227E+01 -0.27348035813E+02  0.66438841132E+02  0.71862054364E+02  0.00000000000E+00 0. -1.
         21    1    1    2  503  502 -0.21262225234E+02  0.15848596630E+01  0.15138202875E+03  0.15287613493E+03  0.00000000000E+00 0. -1.
<scales pt_clust_5="13000.00000" pt_clust_6="13000.00000" pt_clust_7="13000.00000" pt_clust_8="13000.00000" pt_clust_9="27.63399" pt_clust_10="21.32121"></scales>
<clustering>
<clus scale="   21.321">  1 10  2 -1</clus>
<clus scale="   27.634">  1  9  2 -1</clus>
<clus scale="   90.476">  5  6 -1 -1</clus>
<clus scale="   90.517">  2  5  1 -1</clus>
<clus scale="   90.716">  7  8 -1 -1</clus>
<clus scale="   21.321">  1  5  2 -1</clus>
</clustering>
</event>
<event>
10    2  0.1133532E-006  0.1235643E+03  0.7546771E-02  0.1237679E+00
         -2   -1    0    0    0  501 -0.00000000000E+00  0.00000000000E+00  0.11267744149E+03  0.11267744149E+03  0.00000000000E+00 0.  1.
          2   -1    0    0  503    0  0.00000000000E+00 -0.00000000000E+00 -0.63380064336E+03  0.63380064336E+03  0.00000000000E+00 0. -1.
         23    2    1    2    0    0  0.43607967548E+02  0.17027220641E+02  0.45317362355E+02  0.11306106258E+03  0.92398914847E+02 0.  0.
         23    2    1    2    0    0 -0.60969502132E+02 -0.19463660974E+02 -0.34168156467E+03  0.35939417584E+03  0.91223723380E+02 0.  0.
        -11    1    4    4    0    0 -0.18429084948E+02 -0.53008974329E+02 -0.14817045485E+03  0.15844262754E+03  0.00000000000E+00 0. -1.
         11    1    4    4    0    0 -0.42540417185E+02  0.33545313355E+02 -0.19351110982E+03  0.20095154830E+03  0.00000000000E+00 0.  1.
        -13    1    3    3    0    0  0.66505706411E+02 -0.59580409904E+01  0.45172031104E+02  0.80616497267E+02  0.00000000000E+00 0.  1.
         13    1    3    3    0    0 -0.22897738863E+02  0.22985261631E+02  0.14533125186E+00  0.32444565314E+02  0.00000000000E+00 0. -1.
         21    1    1    2  502  501  0.30272893604E+02  0.41409467125E+02 -0.62317345379E+01  0.51672299833E+02  0.00000000000E+00 0.  1.
         21    1    1    2  503  502 -0.12911359020E+02 -0.38973026792E+02 -0.21852726502E+03  0.22235054659E+03  0.00000000000E+00 0. -1.
<scales pt_clust_5="13000.00000" pt_clust_6="13000.00000" pt_clust_7="13000.00000" pt_clust_8="13000.00000" pt_clust_9="48.56582" pt_clust_10="41.05606"></scales>
<clustering>
<clus scale="   41.056">  2 10  1 -1</clus>
<clus scale="   48.566">  1  9  2 -1</clus>
<clus scale="   91.224">  5  6 -1 -1</clus>
<clus scale="   92.399">  7  8 -1 -1</clus>
<clus scale="  122.688">  2  5  1 -1</clus>
<clus scale="   41.056">  2  5  1 -1</clus>
</clustering>
</event>
<event>
10    2  0.1133532E-006  0.9735513E+02  0.7546771E-02  0.1287489E+00
          2   -1    0    0  503    0  0.00000000000E+00  0.00000000000E+00  0.26863359128E+03  0.26863359128E+03  0.00000000000E+00 0. -1.
         -2   -1    0    0    0  501 -0.00000000000E+00 -0.00000000000E+00 -0.16821293476E+03  0.16821293476E+03  0.00000000000E+00 0.  1.
         23    2    1    2    0    0 -0.24590854682E+01  0.25759934900E+02 -0.69511971583E+02  0.11894008344E+03  0.92979610176E+02 0.  0.
         23    2    1    2    0    0 -0.22498519435E+02 -0.34945597907E+02  0.18517082545E+02  0.10091823507E+03  0.90079018831E+02 0.  0.
        -13    1    4    4    0    0 -0.26491881408E+02  0.26587679344E+02  0.63410106092E+01  0.38064851096E+02  0.00000000000E+00 0.  1.
         13    1    4    4    0    0  0.39933619733E+01 -0.61533277250E+02  0.12176071936E+02  0.62853383972E+02  0.00000000000E+00 0. -1.
        -13    1    3    3    0    0 -0.23607235685E+02  0.72545495270E+01  0.15665891990E+02  0.29246371353E+02  0.00000000000E+00 0. -1.
         13    1    3    3    0    0  0.21148150217E+02  0.18505385373E+02 -0.85177863573E+02  0.89693712088E+02  0.00000000000E+00 0.  1.
         21    1    1    2  502  501  0.25733963880E+02  0.61631323483E+02  0.11770337608E+02  0.67817385520E+02  0.00000000000E+00 0. -1.
         21    1    1    2  503  502 -0.77635897691E+00 -0.52445660477E+02  0.13964520795E+03  0.14917082201E+03  0.00000000000E+00 0. -1.
<scales pt_clust_5="13000.00000" pt_clust_6="13000.00000" pt_clust_7="13000.00000" pt_clust_8="13000.00000" pt_clust_9="51.56867" pt_clust_10="52.45141"></scales>
<clustering>
<clus scale="   52.451">  1 10  2 -1</clus>
<clus scale="   51.569">  1  9  2 -1</clus>
<clus scale="   90.079">  5  6 -1 -1</clus>
<clus scale="   92.980">  7  8 -1 -1</clus>
<clus scale="   94.589">  1  5  2 -1</clus>
<clus scale="   52.451">  1  5  2 -1</clus>
</clustering>
</event>
<event>
10    2  0.1133532E-006  0.9568936E+02  0.7546771E-02  0.1290881E+00
          1   -1    0    0  502    0  0.00000000000E+00  0.00000000000E+00  0.13413317607E+03  0.13413317607E+03  0.00000000000E+00 0. -1.
         -1   -1    0    0    0  501 -0.00000000000E+00 -0.00000000000E+00 -0.25222629914E+03  0.25222629914E+03  0.00000000000E+00 0.  1.
         23    2    1    2    0    0  0.11200107939E+02 -0.14847554852E+02 -0.18402145055E+03  0.20592621356E+03  0.90530761983E+02 0.  0.
         23    2    1    2    0    0 -0.17808965498E+02  0.57459016526E+02  0.42444066951E+02  0.11846819807E+03  0.92814424001E+02 0.  0.
        -13    1    3    3    0    0  0.25306144828E+02 -0.42524446350E+02 -0.15746587162E+03  0.16505826314E+03  0.00000000000E+00 0. -1.
         13    1    3    3    0    0 -0.14106036889E+02  0.27676891498E+02 -0.26555578931E+02  0.40867950426E+02  0.00000000000E+00 0.  1.
        -13    1    4    4    0    0 -0.17132795134E+02  0.82691040960E+02  0.26063970954E+02  0.88378003519E+02  0.00000000000E+00 0.  1.
         13    1    4    4    0    0 -0.67617036459E+00 -0.25232024433E+02  0.16380095996E+02  0.30090194552E+02  0.00000000000E+00 0. -1.
         21    1    1    2  502  503  0.15084541842E+02 -0.15331746554E+02 -0.45020419387E+01  0.21974399573E+02  0.00000000000E+00 0. -1.
         21    1    1    2  503  501 -0.84756842837E+01 -0.27279715121E+02  0.27986302476E+02  0.39990664004E+02  0.00000000000E+00 0. -1.
<scales pt_clust_5="13000.00000" pt_clust_6="13000.00000" pt_clust_7="13000.00000" pt_clust_8="13000.00000" pt_clust_9="21.50827" pt_clust_10="31.73999"></scales>
<clustering>
<clus scale="   21.508">  1  9  2 -1</clus>
<clus scale="   31.740">  1 10  2 -1</clus>
<clus scale="   90.531">  5  6 -1 -1</clus>
<clus scale="   92.814">  7  8 -1 -1</clus>
<clus scale="   93.476">  2  5  1 -1</clus>
<clus scale="   21.508">  1  5  2 -1</clus>
</clustering>
</event>
<event>
10    2  0.1133532E-006  0.9858351E+02  0.7546771E-02  0.1285188E+00
          1   -1    0    0  503    0  0.00000000000E+00  0.00000000000E+00  0.68842450842E+03  0.68842450842E+03  0.00000000000E+00 0. -1.
         -1   -1    0    0    0  501 -0.00000000000E+00 -0.00000000000E+00 -0.30137537442E+02  0.30137537442E+02  0.00000000000E+00 0.  1.
         23    2    1    2    0    0  0.10004442043E+02 -0.36045127187E+02  0.16474493244E+03  0.19262616427E+03  0.92545158400E+02 0.  0.
         23    2    1    2    0    0  0.13740518863E+02  0.14229836485E+02  0.36559990778E+03  0.37853353183E+03  0.96088771687E+02 0.  0.
        -13    1    4    4    0    0 -0.19423456616E+02  0.46118544160E+02  0.22865135979E+03  0.23406331434E+03  0.00000000000E+00 0. -1.
         13    1    4    4    0    0  0.33163975479E+02 -0.31888707674E+02  0.13694854798E+03  0.14447021749E+03  0.00000000000E+00 0.  1.
        -13    1    3    3    0    0  0.43800081695E+02  0.64512576773E+01  0.59082994407E+02  0.73829981106E+02  0.00000000000E+00 0.  1.
         13    1    3    3    0    0 -0.33795639652E+02 -0.42496384864E+02  0.10566193803E+03  0.11879618316E+03  0.00000000000E+00 0. -1.
         21    1    1    2  502  501 -0.10572473315E+02 -0.20846683106E+02  0.20645544554E+02  0.31186533928E+02  0.00000000000E+00 0.  1.
         21    1    1    2  503  502 -0.13172487591E+02  0.42661973808E+02  0.10729658621E+03  0.11621581584E+03  0.00000000000E+00 0. -1.
<scales pt_clust_5="13000.00000" pt_clust_6="13000.00000" pt_clust_7="13000.00000" pt_clust_8="13000.00000" pt_clust_9="23.37437" pt_clust_10="41.73834"></scales>
<clustering>
<clus scale="   23.374">  2  9  1 -1</clus>
<clus scale="   41.738">  2 10  1 -1</clus>
<clus scale="   92.545">  7  8 -1 -1</clus>
<clus scale="   95.133">  2  7  1 -1</clus>
<clus scale="   96.089">  5  6 -1 -1</clus>
<clus scale="   98.584">  1  5  2 -1</clus>
</clustering>
</event>
<event>
10    2  0.1133532E-006  0.9489850E+02  0.7546771E-02  0.1293949E+00
          1   -1    0    0  503    0  0.00000000000E+00  0.00000000000E+00  0.38149084427E+03  0.38149084427E+03  0.00000000000E+00 0. -1.
         -1   -1    0    0    0  501 -0.00000000000E+00 -0.00000000000E+00 -0.53006503852E+02  0.53006503852E+02  0.00000000000E+00 0.  1.
         23    2    1    2    0    0  0.24383587279E+02  0.74041670348E+01  0.77594556108E+02  0.11863708569E+03  0.86049183298E+02 0.  0.
         23    2    1    2    0    0 -0.31153967797E+02 -0.15736183185E+02  0.10182805132E+03  0.14073744333E+03  0.90663546961E+02 0.  0.
        -11    1    3    3    0    0  0.23188162165E+02 -0.36414665381E+02  0.23980534011E+02  0.49384053407E+02  0.00000000000E+00 0.  1.
         11    1    3    3    0    0  0.11954251137E+01  0.43818832416E+02  0.53614022096E+02  0.69253032286E+02  0.00000000000E+00 0. -1.
        -13    1    4    4    0    0 -0.48271112159E+02 -0.43204870544E+02  0.67493376814E+02  0.93552749941E+02  0.00000000000E+00 0.  1.
         13    1    4    4    0    0  0.17117144363E+02  0.27468687359E+02  0.34334674509E+02  0.47184693387E+02  0.00000000000E+00 0. -1.
         21    1    1    2  502  501 -0.23191620202E+02  0.10310460199E+02  0.24844995118E+01  0.25501560245E+02  0.00000000000E+00 0.  1.
         21    1    1    2  503  502  0.29962000720E+02 -0.19784440490E+01  0.14657723348E+03  0.14962125886E+03  0.00000000000E+00 0. -1.
<scales pt_clust_5="13000.00000" pt_clust_6="13000.00000" pt_clust_7="13000.00000" pt_clust_8="13000.00000" pt_clust_9="25.38025" pt_clust_10="29.15536"></scales>
<clustering>
<clus scale="   25.380">  2  9  1 -1</clus>
<clus scale="   29.155">  1 10  2 -1</clus>
<clus scale="   86.049">  5  6 -1 -1</clus>
<clus scale="   90.500">  2  5  1 -1</clus>
<clus scale="   90.664">  7  8 -1 -1</clus>
<clus scale="   29.155">  1  5  2 -1</clus>
</clustering>
</event>
<event>
10    2  0.1133532E-006  0.1455623E+03  0.7546771E-02  0.1206117E+00
         -1   -1    0    0    0  501 -0.00000000000E+00  0.00000000000E+00  0.10621173720E+04  0.10621173720E+04  0.00000000000E+00 0.  1.
          1   -1    0    0  503    0  0.00000000000E+00 -0.00000000000E+00 -0.35373136362E+02  0.35373136362E+02  0.00000000000E+00 0. -1.
         23    2    1    2    0    0 -0.86967345119E+02  0.18484473016E+02  0.42372399720E+03  0.44252364675E+03  0.91543198916E+02 0.  0.
         23    2    1    2    0    0  0.13936130703E+03 -0.17550400212E+02  0.36083304998E+03  0.39778848137E+03  0.91135039966E+02 0.  0.
        -11    1    3    3    0    0  0.13463892389E+02  0.23470686570E+02  0.90059191042E+02  0.94036202696E+02  0.00000000000E+00 0. -1.
         11    1    3    3    0    0 -0.10043123751E+03 -0.49862135542E+01  0.33366480616E+03  0.34848744405E+03  0.00000000000E+00 0.  1.
        -11    1    4    4    0    0  0.28624875747E+01 -0.26436523335E+02  0.97325200060E+02  0.10089240887E+03  0.00000000000E+00 0.  1.
         11    1    4    4    0    0  0.13649881945E+03  0.88861231237E+01  0.26350784991E+03  0.29689607249E+03  0.00000000000E+00 0. -1.
         21    1    1    2  502  501 -0.29499574897E+02 -0.14652527967E+02  0.22005332835E+03  0.22250480627E+03  0.00000000000E+00 0.  1.
         21    1    1    2  503  502 -0.22894387010E+02  0.13718455163E+02  0.22133860100E+02  0.34673573966E+02  0.00000000000E+00 0.  1.
<scales pt_clust_5="13000.00000" pt_clust_6="13000.00000" pt_clust_7="13000.00000" pt_clust_8="13000.00000" pt_clust_9="33.55805" pt_clust_10="26.68987"></scales>
<clustering>
<clus scale="   26.690">  2 10  1 -1</clus>
<clus scale="   33.558">  1  9  2 -1</clus>
<clus scale="   91.135">  7  8 -1 -1</clus>
<clus scale="   91.543">  5  6 -1 -1</clus>
<clus scale="  145.306">  2  7  1 -1</clus>
<clus scale="   26.690">  2  5  1 -1</clus>
</clustering>
</event>
<event>
10    2  0.1133532E-006  0.1567389E+03  0.7546771E-02  0.1193722E+00
         -1   -1    0    0    0  501 -0.00000000000E+00  0.00000000000E+00  0.11783494102E+03  0.11783494102E+03  0.00000000000E+00 0.  1.
          1   -1    0    0  503    0  0.00000000000E+00 -0.00000000000E+00 -0.46928137431E+03  0.46928137431E+03  0.00000000000E+00 0. -1.
         23    2    1    2    0    0 -0.11013435924E+03  0.10377011528E+02 -0.37449266590E+01  0.14049857301E+03  0.86536495698E+02 0.  0.
         23    2    1    2    0    0  0.14017806362E+03 -0.20300249962E+01 -0.27390916221E+03  0.32175596250E+03  0.94056683667E+02 0.  0.
        -13    1    3    3    0    0 -0.99252212967E+01 -0.19314266763E+02 -0.25758109915E+02  0.33690223281E+02  0.00000000000E+00 0. -1.
         13    1    3    3    0    0 -0.10020913795E+03  0.29691278291E+02  0.22013183256E+02  0.10680834973E+03  0.00000000000E+00 0.  1.
        -13    1    4    4    0    0  0.93867138260E+02 -0.16838427239E+02 -0.88588543110E+02  0.13016336753E+03  0.00000000000E+00 0.  1.
         13    1    4    4    0    0  0.46310925364E+02  0.14808402243E+02 -0.18532061910E+03  0.19159259497E+03  0.00000000000E+00 0. -1.
         21    1    1    2  502  501 -0.14667745793E+02  0.14585407146E+02  0.18976721641E+02  0.28071210029E+02  0.00000000000E+00 0. -1.
         21    1    1    2  503  502 -0.15375958588E+02 -0.22932393677E+02 -0.92769066062E+02  0.96790569791E+02  0.00000000000E+00 0. -1.
<scales pt_clust_5="13000.00000" pt_clust_6="13000.00000" pt_clust_7="13000.00000" pt_clust_8="13000.00000" pt_clust_9="20.68518" pt_clust_10="27.52932"></scales>
<clustering>
<clus scale="   20.685">  1  9  2 -1</clus>
<clus scale="   27.529">  2 10  1 -1</clus>
<clus scale="   86.536">  5  6 -1 -1</clus>
<clus scale="   94.057">  7  8 -1 -1</clus>
<clus scale="  152.345">  1  5  2 -1</clus>
<clus scale="   27.529">  2  5  1 -1</clus>
</clustering>
</event>
<event>
10    2  0.1133532E-006  0.1100973E+03  0.7546771E-02  0.1260393E+00
          1   -1    0    0  503    0  0.00000000000E+00  0.00000000000E+00  0.32881262531E+03  0.32881262531E+03  0.00000000000E+00 0. -1.
         -1   -1    0    0    0  501 -0.00000000000E+00 -0.00000000000E+00 -0.13111548318E+03  0.13111548318E+03  0.00000000000E+00 0.  1.
         23    2    1    2    0    0 -0.17990110868E+02 -0.83706082178E+02  0.59883219485E+02  0.14283544122E+03  0.97394101521E+02 0.  0.
         23    2    1    2    0    0 -0.39612360904E+01  0.42549726077E+02  0.14868029929E+03  0.18280890718E+03  0.97401717475E+02 0.  0.
        -13    1    3    3    0    0 -0.30145817734E+02 -0.58624962769E+02 -0.10850480301E+02  0.66808603557E+02  0.00000000000E+00 0.  1.
         13    1    3    3    0    0  0.12155706866E+02 -0.25081119409E+02  0.70733699786E+02  0.76026837667E+02  0.00000000000E+00 0. -1.
        -13    1    4    4    0    0  0.22637258377E+02  0.55512097696E+02  0.13948744765E+03  0.15182485472E+03  0.00000000000E+00 0. -1.
         13    1    4    4    0    0 -0.26598494467E+02 -0.12962371620E+02  0.91928516409E+01  0.30984052466E+02  0.00000000000E+00 0.  1.
         21    1    1    2  502  501 -0.67190626677E+01  0.59436026407E+02 -0.53155393722E+02  0.80020515619E+02  0.00000000000E+00 0. -1.
         21    1    1    2  503  502  0.28670409626E+02 -0.18279670305E+02  0.42289017071E+02  0.54263244461E+02  0.00000000000E+00 0. -1.
<scales pt_clust_5="13000.00000" pt_clust_6="13000.00000" pt_clust_7="13000.00000" pt_clust_8="13000.00000" pt_clust_9="58.80430" pt_clust_10="34.00204"></scales>
<clustering>
<clus scale="   34.002">  1 10  2 -1</clus>
<clus scale="   58.804">  2  9  1 -1</clus>
<clus scale="   97.394">  5  6 -1 -1</clus>
<clus scale="   97.402">  7  8 -1 -1</clus>
<clus scale="  110.091">  2  5  1 -1</clus>
<clus scale="   34.002">  1  5  2 -1</clus>
</clustering>
</event>
<event>
10    2  0.1133532E-006  0.1511459E+03  0.7546771E-02  0.1215481E+00
         -1   -1    0    0    0  501 -0.00000000000E+00  0.00000000000E+00  0.36372631950E+03  0.36372631950E+03  0.00000000000E+00 0.  1.
          1   -1    0    0  503    0  0.00000000000E+00 -0.00000000000E+00 -0.28076484735E+03  0.28076484735E+03  0.00000000000E+00 0. -1.
         23    2    1    2    0    0 -0.84375598099E+01 -0.21329692460E+02  0.34164250918E+02  0.12722629717E+03  0.12038765076E+03 0.  0.
         23    2    1    2    0    0 -0.28459580821E+02 -0.59270220620E+02 -0.89706523803E+02  0.13245575754E+03  0.71933027887E+02 0.  0.
        -13    1    3    3    0    0  0.24936149579E+02 -0.58168833359E+02 -0.56481025341E+01  0.63539954300E+02  0.00000000000E+00 0. -1.
         13    1    3    3    0    0 -0.33373709389E+02  0.36839140900E+02  0.39812353452E+02  0.63686342869E+02  0.00000000000E+00 0.  1.
        -13    1    4    4    0    0 -0.51551419537E+02 -0.50163876432E+02 -0.59436742080E+02  0.93309644004E+02  0.00000000000E+00 0. -1.
         13    1    4    4    0    0  0.23091838716E+02 -0.91063441872E+01 -0.30269781724E+02  0.39146113541E+02  0.00000000000E+00 0.  1.
         21    1    1    2  502  501  0.38765378590E+02  0.10055596875E+03  0.24962482780E+03  0.27189485483E+03  0.00000000000E+00 0.  1.
         21    1    1    2  503  502 -0.18682379585E+01 -0.19956055669E+02 -0.11112108276E+03  0.11291425732E+03  0.00000000000E+00 0. -1.
<scales pt_clust_5="13000.00000" pt_clust_6="13000.00000" pt_clust_7="13000.00000" pt_clust_8="13000.00000" pt_clust_9="91.38877" pt_clust_10="20.04331"></scales>
<clustering>
<clus scale="   20.043">  2 10  1 -1</clus>
<clus scale="   71.933">  7  8 -1 -1</clus>
<clus scale="  106.295">  2  7  1 -1</clus>
<clus scale="   91.389">  1  9  2 -1</clus>
<clus scale="  120.388">  5  6 -1 -1</clus>
<clus scale="   20.043">  2  5  1 -1</clus>
</clustering>
</event>
<event>
10    2  0.1133532E-006  0.8895453E+02  0.7546771E-02  0.1307603E+00
          1   -1    0    0  503    0  0.00000000000E+00  0.00000000000E+00  0.63742604350E+02  0.63742604350E+02  0.00000000000E+00 0. -1.
         -1   -1    0    0    0  501 -0.00000000000E+00 -0.00000000000E+00 -0.58498657329E+03  0.58498657329E+03  0.00000000000E+00 0.  1.
         23    2    1    2    0    0  0.18955290784E+02 -0.20528959136E+02 -0.36884429744E+03  0.37963032806E+03  0.85395134611E+02 0.  0.
         23    2    1    2    0    0  0.20716882818E+02  0.68549785683E+01 -0.32942921869E+02  0.97284508199E+02  0.88898028490E+02 0.  0.
        -11    1    4    4    0    0 -0.88659134294E+01  0.26527046728E+02  0.19389193217E+02  0.34032770129E+02  0.00000000000E+00 0. -1.
         11    1    4    4    0    0  0.29582796247E+02 -0.19672068160E+02 -0.52332115086E+02  0.63251738070E+02  0.00000000000E+00 0.  1.
        -13    1    3    3    0    0  0.28755882459E+02  0.24726516144E+02 -0.10250441729E+03  0.10929527410E+03  0.00000000000E+00 0.  1.
         13    1    3    3    0    0 -0.98005916750E+01 -0.45255475280E+02 -0.26633988015E+03  0.27033505396E+03  0.00000000000E+00 0. -1.
         21    1    1    2  502  501 -0.22342331037E+02  0.26036901661E+02 -0.13884480398E+03  0.14302090615E+03  0.00000000000E+00 0.  1.
         21    1    1    2  503  502 -0.17329842565E+02 -0.12362921093E+02  0.19388054346E+02  0.28793435235E+02  0.00000000000E+00 0. -1.
<scales pt_clust_5="13000.00000" pt_clust_6="13000.00000" pt_clust_7="13000.00000" pt_clust_8="13000.00000" pt_clust_9="34.42722" pt_clust_10="21.28768"></scales>
<clustering>
<clus scale="   21.288">  1 10  2 -1</clus>
<clus scale="   34.427">  2  9  1 -1</clus>
<clus scale="   85.395">  7  8 -1 -1</clus>
<clus scale="   85.454">  2  7  1 -1</clus>
<clus scale="   88.898">  5  6 -1 -1</clus>
<clus scale="   21.288">  1  5  2 -1</clus>
</clustering>
</event>
<event>
10    2  0.1133532E-006  0.2490816E+03  0.7546771E-02  0.1113984E+00
         -2   -1    0    0    0  501 -0.00000000000E+00  0.00000000000E+00  0.37638290009E+03  0.37638290009E+03  0.00000000000E+00 0.  1.
          2   -1    0    0  503    0  0.00000000000E+00 -0.00000000000E+00 -0.26527725072E+03  0.26527725072E+03  0.00000000000E+00 0. -1.
         23    2    1    2    0    0  0.12760042468E+03 -0.21706494913E+03  0.87371878752E+02  0.28162101318E+03  0.90980708642E+02 0.  0.
         23    2    1    2    0    0 -0.84467928420E+02  0.20807420125E+03 -0.54654273475E+02  0.24777046888E+03  0.89293961045E+02 0.  0.
        -11    1    3    3    0    0  0.34233961361E+02 -0.47050572898E+01  0.20574145565E+02  0.40216876312E+02  0.00000000000E+00 0.  1.
         11    1    3    3    0    0  0.93366463324E+02 -0.21235989184E+03  0.66797733186E+02  0.24140413686E+03  0.00000000000E+00 0. -1.
        -11    1    4    4    0    0 -0.32477567819E+02  0.10211642456E+03  0.18743827461E+02  0.10878367361E+03  0.00000000000E+00 0.  1.
         11    1    4    4    0    0 -0.51990360601E+02  0.10595777670E+03 -0.73398100936E+02  0.13898679527E+03  0.00000000000E+00 0. -1.
         21    1    1    2  502  501 -0.25428156291E+02  0.24144095777E+02  0.81533231927E+02  0.88753571205E+02  0.00000000000E+00 0.  1.
         21    1    1    2  503  502 -0.17704339973E+02 -0.15153347901E+02 -0.31451878345E+01  0.23515097555E+02  0.00000000000E+00 0. -1.
<scales pt_clust_5="13000.00000" pt_clust_6="13000.00000" pt_clust_7="13000.00000" pt_clust_8="13000.00000" pt_clust_9="35.10066" pt_clust_10="23.30381"></scales>
<clustering>
<clus scale="   23.304">  2 10  1 -1</clus>
<clus scale="   35.101">  1  9  2 -1</clus>
<clus scale="   89.294">  7  8 -1 -1</clus>
<clus scale="   90.981">  5  6 -1 -1</clus>
<clus scale="  248.470">  2  7  1 -1</clus>
<clus scale="   23.304">  2  5  1 -1</clus>
</clustering>
</event>
<event>
10    2  0.1133532E-006  0.9094684E+02  0.7546771E-02  0.1306222E+00
          2   -1    0    0  503    0  0.00000000000E+00  0.00000000000E+00  0.22709846267E+03  0.22709846267E+03  0.00000000000E+00 0. -1.
         -2   -1    0    0    0  501 -0.00000000000E+00 -0.00000000000E+00 -0.43535164427E+03  0.43535164427E+03  0.00000000000E+00 0.  1.
         23    2    1    2    0    0  0.51922826573E+02 -0.83751742755E+01 -0.21812283368E+03  0.23771590768E+03  0.78518524759E+02 0.  0.
         23    2    1    2    0    0  0.13963040278E+02 -0.25725489609E+02  0.44544816870E+02  0.10272995979E+03  0.87820479498E+02 0.  0.
        -13    1    3    3    0    0  0.58366407779E+02  0.14960949413E+02 -0.19552581637E+03  0.20459915061E+03  0.00000000000E+00 0.  1.
         13    1    3    3    0    0 -0.64435812069E+01 -0.23336123689E+02 -0.22597017307E+02  0.33116757069E+02  0.00000000000E+00 0. -1.
        -13    1    4    4    0    0  0.46688830118E+02 -0.16364578877E+02  0.37729474421E+01  0.49617350110E+02  0.00000000000E+00 0.  1.
         13    1    4    4    0    0 -0.32725789840E+02 -0.93609107312E+01  0.40771869428E+02  0.53112609680E+02  0.00000000000E+00 0. -1.
         21    1    1    2  502  501 -0.27814946894E+02  0.11742518820E+01 -0.17278221632E+03  0.17501069800E+03  0.00000000000E+00 0.  1.
         21    1    1    2  503  502 -0.38070919956E+02  0.32926412002E+02  0.13810705152E+03  0.14699354147E+03  0.00000000000E+00 0. -1.
<scales pt_clust_5="13000.00000" pt_clust_6="13000.00000" pt_clust_7="13000.00000" pt_clust_8="13000.00000" pt_clust_9="27.83972" pt_clust_10="50.70575"></scales>
<clustering>
<clus scale="   27.840">  2  9  1 -1</clus>
<clus scale="   50.706">  1 10  2 -1</clus>
<clus scale="   78.519">  5  6 -1 -1</clus>
<clus scale="   82.000">  2  5  1 -1</clus>
<clus scale="   87.820">  7  8 -1 -1</clus>
<clus scale="   50.706">  1  5  2 -1</clus>
</clustering>
</event>
<event>
10    2  0.1133532E-006  0.1856245E+03  0.7546771E-02  0.1162628E+00
          1   -1    0    0  503    0  0.00000000000E+00  0.00000000000E+00  0.13199602086E+04  0.13199602086E+04  0.00000000000E+00 0. -1.
         -1   -1    0    0    0  501 -0.00000000000E+00 -0.00000000000E+00 -0.92486520403E+02  0.92486520403E+02  0.00000000000E+00 0.  1.
         23    2    1    2    0    0 -0.13034461064E+03  0.51191350411E+02  0.30291789160E+03  0.34626080317E+03  0.92341880447E+02 0.  0.
         23    2    1    2    0    0  0.14955233895E+03 -0.11344584874E+03  0.67545264173E+03  0.70692634643E+03  0.90954523677E+02 0.  0.
        -11    1    3    3    0    0 -0.77051911242E+02 -0.19035002408E+02  0.15229016403E+03  0.17173125052E+03  0.00000000000E+00 0.  1.
         11    1    3    3    0    0 -0.53292699397E+02  0.70226352819E+02  0.15062772757E+03  0.17452955266E+03  0.00000000000E+00 0. -1.
        -13    1    4    4    0    0  0.11576327757E+03 -0.40775894252E+02  0.48521632076E+03  0.50049843948E+03  0.00000000000E+00 0. -1.
         13    1    4    4    0    0  0.33789061376E+02 -0.72669954483E+02  0.19023632097E+03  0.20642790695E+03  0.00000000000E+00 0.  1.
         21    1    1    2  502  501 -0.14585180553E+02  0.22928546026E+02 -0.50341839205E+02  0.57207923308E+02  0.00000000000E+00 0. -1.
         21    1    1    2  503  502 -0.46225477556E+01  0.39325952298E+02  0.29944499404E+03  0.30205165606E+03  0.00000000000E+00 0. -1.
<scales pt_clust_5="13000.00000" pt_clust_6="13000.00000" pt_clust_7="13000.00000" pt_clust_8="13000.00000" pt_clust_9="27.17436" pt_clust_10="40.42265"></scales>
<clustering>
<clus scale="   27.174">  2  9  1 -1</clus>
<clus scale="   40.423">  1 10  2 -1</clus>
<clus scale="   90.955">  7  8 -1 -1</clus>
<clus scale="   92.342">  5  6 -1 -1</clus>
<clus scale="  184.938">  1  7  2 -1</clus>
<clus scale="   40.423">  1  5  2 -1</clus>
</clustering>
</event>
<event>
10    2  0.1133532E-006  0.1392338E+03  0.7546771E-02  0.1214638E+00
          2   -1    0    0  503    0  0.00000000000E+00  0.00000000000E+00  0.23469855931E+03  0.23469855931E+03  0.00000000000E+00 0. -1.
         -2   -1    0    0    0  501 -0.00000000000E+00 -0.00000000000E+00 -0.16706435693E+03  0.16706435693E+03  0.00000000000E+00 0.  1.
         23    2    1    2    0    0  0.11323152785E+03 -0.53121846082E+02 -0.31289090220E+02  0.15813184937E+03  0.91560718583E+02 0.  0.
         23    2    1    2    0    0 -0.69308166628E+02  0.43176029564E+02  0.11429748287E+03  0.16700570871E+03  0.90328293811E+02 0.  0.
        -11    1    4    4    0    0 -0.19653015551E+02  0.10599746327E+02 -0.13493375832E+02  0.26089592442E+02  0.00000000000E+00 0.  1.
         11    1    4    4    0    0 -0.49655151077E+02  0.32576283236E+02  0.12779085870E+03  0.14091611627E+03  0.00000000000E+00 0. -1.
        -13    1    3    3    0    0  0.49173984105E+02 -0.62229112060E+02  0.12097066186E+02  0.80230182044E+02  0.00000000000E+00 0. -1.
         13    1    3    3    0    0  0.64057543743E+02  0.91072659781E+01 -0.43386156406E+02  0.77901667323E+02  0.00000000000E+00 0.  1.
         21    1    1    2  502  501 -0.20165616336E+02 -0.30904508326E+01 -0.36801688943E+02  0.42078109245E+02  0.00000000000E+00 0. -1.
         21    1    1    2  503  502 -0.23757744885E+02  0.13036267351E+02  0.21427498670E+02  0.34547248917E+02  0.00000000000E+00 0.  1.
<scales pt_clust_5="13000.00000" pt_clust_6="13000.00000" pt_clust_7="13000.00000" pt_clust_8="13000.00000" pt_clust_9="20.40105" pt_clust_10="27.93891"></scales>
<clustering>
<clus scale="   20.401">  2  9  1 -1</clus>
<clus scale="   27.939">  1 10  2 -1</clus>
<clus scale="   90.328">  5  6 -1 -1</clus>
<clus scale="   91.561">  7  8 -1 -1</clus>
<clus scale="  138.426">  1  5  2 -1</clus>
<clus scale="   27.939">  1  5  2 -1</clus>
</clustering>
</event>
<event>
10    2  0.1133532E-006  0.9450313E+02  0.7546771E-02  0.1292756E+00
         -2   -1    0    0    0  501 -0.00000000000E+00  0.00000000000E+00  0.76830568822E+02  0.76830568822E+02  0.00000000000E+00 0.  1.
          2   -1    0    0  503    0  0.00000000000E+00 -0.00000000000E+00 -0.32389051681E+03  0.32389051681E+03  0.00000000000E+00 0. -1.
         23    2    1    2    0    0  0.64795407188E+01  0.81163795905E+01 -0.17635744582E+02  0.94228299157E+02  0.91978762817E+02 0.  0.
         23    2    1    2    0    0 -0.23252194525E+02  0.27032656355E+02 -0.74896627698E+02  0.12324812145E+03  0.91154624358E+02 0.  0.
        -11    1    4    4    0    0 -0.44734414565E+02 -0.12864277582E+02 -0.16614616532E+02  0.49423708548E+02  0.00000000000E+00 0. -1.
         11    1    4    4    0    0  0.21482220040E+02  0.39896933938E+02 -0.58282011166E+02  0.73824412907E+02  0.00000000000E+00 0.  1.
        -13    1    3    3    0    0  0.36077127512E+02  0.84016601533E+00  0.23475863710E+02  0.43050913874E+02  0.00000000000E+00 0.  1.
         13    1    3    3    0    0 -0.29597586793E+02  0.72762135752E+01 -0.41111608292E+02  0.51177385283E+02  0.00000000000E+00 0. -1.
         21    1    1    2  502  501  0.32659282292E+02 -0.13257100966E+02 -0.10613449217E+02  0.36810660822E+02  0.00000000000E+00 0.  1.
         21    1    1    2  503  502 -0.15886628486E+02 -0.21891934980E+02 -0.14391412649E+03  0.14643400420E+03  0.00000000000E+00 0. -1.
<scales pt_clust_5="13000.00000" pt_clust_6="13000.00000" pt_clust_7="13000.00000" pt_clust_8="13000.00000" pt_clust_9="34.56287" pt_clust_10="27.04888"></scales>
<clustering>
<clus scale="   27.049">  2 10  1 -1</clus>
<clus scale="   34.563">  1  9  2 -1</clus>
<clus scale="   91.155">  5  6 -1 -1</clus>
<clus scale="   91.979">  7  8 -1 -1</clus>
<clus scale="   93.701">  2  5  1 -1</clus>
<clus scale="   27.049">  2  5  1 -1</clus>
</clustering>
</event>
<event>
10    2  0.1133532E-006  0.1753699E+03  0.7546771E-02  0.1172906E+00
         -1   -1    0    0    0  501 -0.00000000000E+00  0.00000000000E+00  0.19493934930E+03  0.19493934930E+03  0.00000000000E+00 0.  1.
          1   -1    0    0  503    0  0.00000000000E+00 -0.00000000000E+00 -0.38326323406E+03  0.38326323406E+03  0.00000000000E+00 0. -1.
         23    2    1    2    0    0 -0.13285278672E+02  0.19162738787E+03  0.54999004911E+02  0.21858191478E+03  0.88631870763E+02 0.  0.
         23    2    1    2    0    0 -0.37558368584E+02 -0.96881354742E+02 -0.11209007958E+03  0.17880265052E+03  0.92787789858E+02 0.  0.
        -13    1    4    4    0    0 -0.59928302496E+02 -0.10001808042E+03 -0.91099500604E+02  0.14796667483E+03  0.00000000000E+00 0.  1.
         13    1    4    4    0    0  0.22369933913E+02  0.31367256740E+01 -0.20990578972E+02  0.30835975690E+02  0.00000000000E+00 0. -1.
        -13    1    3    3    0    0 -0.20863926181E+02  0.13221473392E+02  0.29062935855E+02  0.38141381921E+02  0.00000000000E+00 0.  1.
         13    1    3    3    0    0  0.75786475092E+01  0.17840591448E+03  0.25936069055E+02  0.18044053286E+03  0.00000000000E+00 0. -1.
         21    1    1    2  502  501 -0.23841441341E+01 -0.25716618034E+02 -0.33363150751E+01  0.26041497358E+02  0.00000000000E+00 0. -1.
         21    1    1    2  503  502  0.53227791390E+02 -0.69029415098E+02 -0.12789649502E+03  0.15477652071E+03  0.00000000000E+00 0.  1.
<scales pt_clust_5="13000.00000" pt_clust_6="13000.00000" pt_clust_7="13000.00000" pt_clust_8="13000.00000" pt_clust_9="25.82690" pt_clust_10="88.56167"></scales>
<clustering>
<clus scale="   25.827">  1  9  2 -1</clus>
<clus scale="   88.562">  2 10  1 -1</clus>
<clus scale="   88.632">  7  8 -1 -1</clus>
<clus scale="   92.788">  5  6 -1 -1</clus>
<clus scale="  173.207">  1  7  2 -1</clus>
<clus scale="   88.562">  2  5  1 -1</clus>
</clustering>
</event>
<event>
10    2  0.1133532E-006  0.1346957E+03  0.7546771E-02  0.1221100E+00
         -1   -1    0    0    0  501 -0.00000000000E+00  0.00000000000E+00  0.31570772624E+03  0.31570772624E+03  0.00000000000E+00 0.  1.
          1   -1    0    0  503    0  0.00000000000E+00 -0.00000000000E+00 -0.45158683216E+03  0.45158683216E+03  0.00000000000E+00 0. -1.
         23    2    1    2    0    0 -0.45840456046E+02 -0.86398455089E+02  0.23875212013E+03  0.27258730653E+03  0.87950124269E+02 0.  0.
         23    2    1    2    0    0  0.10801216198E+03  0.11353618847E+03 -0.31626442088E+03  0.36421797786E+03  0.89857989399E+02 0.  0.
        -13    1    3    3    0    0  0.57891029919E+00 -0.79499695388E+02  0.18421588501E+03  0.20063905152E+03  0.00000000000E+00 0.  1.
         13    1    3    3    0    0 -0.46419366345E+02 -0.68987597011E+01  0.54536235120E+02  0.71948255005E+02  0.00000000000E+00 0. -1.
        -13    1    4    4    0    0  0.37910985658E+02  0.90229472535E+02 -0.12215440205E+03  0.15652571190E+03  0.00000000000E+00 0.  1.
         13    1    4    4    0    0  0.70101176324E+02  0.23306715932E+02 -0.19411001883E+03  0.20769226596E+03  0.00000000000E+00 0. -1.
         21    1    1    2  502  501 -0.87074289437E+02 -0.28779349652E+02 -0.44392881058E+02  0.10188675447E+03  0.00000000000E+00 0.  1.
         21    1    1    2  503  502  0.24902583501E+02  0.16416162743E+01 -0.13973924111E+02  0.28602519541E+02  0.00000000000E+00 0. -1.
<scales pt_clust_5="13000.00000" pt_clust_6="13000.00000" pt_clust_7="13000.00000" pt_clust_8="13000.00000" pt_clust_9="87.60696" pt_clust_10="24.95663"></scales>
<clustering>
<clus scale="   24.957">  2 10  1 -1</clus>
<clus scale="   87.607">  2  9  1 -1</clus>
<clus scale="   87.950">  5  6 -1 -1</clus>
<clus scale="   89.858">  7  8 -1 -1</clus>
<clus scale="  133.431">  1  5  2 -1</clus>
<clus scale="   24.957">  2  5  1 -1</clus>
</clustering>
</event>
<event>
10    2  0.1133532E-006  0.1597974E+03  0.7546771E-02  0.1189633E+00
         -1   -1    0    0    0  501 -0.00000000000E+00  0.00000000000E+00  0.91442612206E+02  0.91442612206E+02  0.00000000000E+00 0.  1.
          1   -1    0    0  503    0  0.00000000000E+00 -0.00000000000E+00 -0.79604170720E+03  0.79604170720E+03  0.00000000000E+00 0. -1.
         23    2    1    2    0    0  0.83909072965E+02 -0.75734371211E+02 -0.16374274577E+03  0.21959974688E+03  0.92929728985E+02 0.  0.
         23    2    1    2    0    0 -0.57513737655E+02  0.14643252451E+03 -0.30652680107E+03  0.35574982019E+03  0.88594246633E+02 0.  0.
        -11    1    3    3    0    0  0.71698326475E+02 -0.97469711151E+02 -0.12936197581E+03  0.17713135069E+03  0.00000000000E+00 0.  1.
         11    1    3    3    0    0  0.12210746491E+02  0.21735339940E+02 -0.34380769957E+02  0.42468396190E+02  0.00000000000E+00 0. -1.
        -11    1    4    4    0    0 -0.27638602927E+02  0.57149943933E+01 -0.18352871291E+02  0.33665730607E+02  0.00000000000E+00 0.  1.
         11    1    4    4    0    0 -0.29875134728E+02  0.14071753011E+03 -0.28817392978E+03  0.32208408958E+03  0.00000000000E+00 0. -1.
         21    1    1    2  502  501 -0.52026788383E+02 -0.52737564120E+02  0.16392294045E+01  0.74099422749E+02  0.00000000000E+00 0.  1.
         21    1    1    2  503  502  0.25631453073E+02 -0.17960589174E+02 -0.23596877756E+03  0.23803532959E+03  0.00000000000E+00 0. -1.
<scales pt_clust_5="13000.00000" pt_clust_6="13000.00000" pt_clust_7="13000.00000" pt_clust_8="13000.00000" pt_clust_9="73.77044" pt_clust_10="31.29783"></scales>
<clustering>
<clus scale="   31.298">  2 10  1 -1</clus>
<clus scale="   73.770">  1  9  2 -1</clus>
<clus scale="   88.594">  7  8 -1 -1</clus>
<clus scale="   92.930">  5  6 -1 -1</clus>
<clus scale="  157.316">  2  7  1 -1</clus>
<clus scale="   31.298">  2  5  1 -1</clus>
</clustering>
</event>
<event>
10    2  0.1133532E-006  0.1118864E+03  0.7546771E-02  0.1258960E+00
          1   -1    0    0  503    0  0.00000000000E+00  0.00000000000E+00  0.99493738661E+02  0.99493738661E+02  0.00000000000E+00 0. -1.
         -1   -1    0    0    0  501 -0.00000000000E+00 -0.00000000000E+00 -0.19590985033E+03  0.19590985033E+03  0.00000000000E+00 0.  1.
         23    2    1    2    0    0 -0.43694311519E+02  0.58681747704E+02 -0.36257979112E+02  0.11925640232E+03  0.86917823677E+02 0.  0.
         23    2    1    2    0    0  0.25939062622E+02 -0.50295557522E+02 -0.20220118286E+02  0.10974573820E+03  0.91830255331E+02 0.  0.
        -11    1    3    3    0    0 -0.69971722926E+02  0.38914953586E+02 -0.31469255350E+02  0.86027493594E+02  0.00000000000E+00 0. -1.
         11    1    3    3    0    0  0.26277411407E+02  0.19766794118E+02 -0.47887237622E+01  0.33228908728E+02  0.00000000000E+00 0.  1.
        -11    1    4    4    0    0  0.43560826676E+02 -0.23081719138E+02 -0.46684383316E+02  0.67895088369E+02  0.00000000000E+00 0.  1.
         11    1    4    4    0    0 -0.17621764054E+02 -0.27213838384E+02  0.26464265030E+02  0.41850649834E+02  0.00000000000E+00 0. -1.
         21    1    1    2  502  501  0.24324043813E+01  0.20213292997E+02 -0.18533325739E+02  0.27531399670E+02  0.00000000000E+00 0. -1.
         21    1    1    2  503  502  0.15322844515E+02 -0.28599483179E+02 -0.21404688530E+02  0.38870048794E+02  0.00000000000E+00 0.  1.
<scales pt_clust_5="13000.00000" pt_clust_6="13000.00000" pt_clust_7="13000.00000" pt_clust_8="13000.00000" pt_clust_9="20.35912" pt_clust_10="29.61008"></scales>
<clustering>
<clus scale="   20.359">  2  9  1 -1</clus>
<clus scale="   29.610">  2 10  1 -1</clus>
<clus scale="   86.918">  5  6 -1 -1</clus>
<clus scale="   91.830">  7  8 -1 -1</clus>
<clus scale="  107.891">  2  5  1 -1</clus>
<clus scale="  111.886">  1  5  2 -1</clus>
</clustering>
</event>
<event>
10    2  0.1133532E-006  0.1130577E+03  0.7546771E-02  0.1255682E+00
         -2   -1    0    0    0  501 -0.00000000000E+00  0.00000000000E+00  0.66514566357E+03  0.66514566357E+03  0.00000000000E+00 0.  1.
          2   -1    0    0  503    0  0.00000000000E+00 -0.00000000000E+00 -0.69143788460E+02  0.69143788460E+02  0.00000000000E+00 0. -1.
         23    2    1    2    0    0 -0.79007795073E+02 -0.71793175121E+02  0.41643881899E+03  0.43935217726E+03  0.90623142895E+02 0.  0.
         23    2    1    2    0    0  0.20546721379E+02  0.45234344253E+02  0.25704900461E+02  0.10806152800E+03  0.92456683196E+02 0.  0.
        -13    1    4    4    0    0  0.47623831517E+02  0.43815520304E+02  0.41312578768E+02  0.76776026938E+02  0.00000000000E+00 0. -1.
         13    1    4    4    0    0 -0.27077110138E+02  0.14188239494E+01 -0.15607678308E+02  0.31285501067E+02  0.00000000000E+00 0.  1.
        -13    1    3    3    0    0 -0.33837687691E+02 -0.86182450666E+02  0.27051387673E+03  0.28591985138E+03  0.00000000000E+00 0.  1.
         13    1    3    3    0    0 -0.45170107383E+02  0.14389275545E+02  0.14592494226E+03  0.15343232588E+03  0.00000000000E+00 0. -1.
         21    1    1    2  502  501  0.29135559993E+02  0.36135308587E+02  0.14847278708E+03  0.15555966664E+03  0.00000000000E+00 0. -1.
         21    1    1    2  503  502  0.29325513702E+02 -0.95764777193E+01  0.53853685814E+01  0.31316080121E+02  0.00000000000E+00 0. -1.
<scales pt_clust_5="13000.00000" pt_clust_6="13000.00000" pt_clust_7="13000.00000" pt_clust_8="13000.00000" pt_clust_9="47.14401" pt_clust_10="30.84955"></scales>
<clustering>
<clus scale="   30.850">  2 10  1 -1</clus>
<clus scale="   47.144">  1  9  2 -1</clus>
<clus scale="   90.623">  7  8 -1 -1</clus>
<clus scale="   92.457">  5  6 -1 -1</clus>
<clus scale="  111.563">  1  7  2 -1</clus>
<clus scale="   30.850">  2  5  1 -1</clus>
</clustering>
</event>
<event>
10    2  0.1133532E-006  0.2257482E+03  0.7546771E-02  0.1129695E+00
          2   -1    0    0  503    0  0.00000000000E+00  0.00000000000E+00  0.78939879565E+03  0.78939879565E+03  0.00000000000E+00 0. -1.
         -2   -1    0    0    0  501 -0.00000000000E+00 -0.00000000000E+00 -0.17568077290E+04  0.17568077290E+04  0.00000000000E+00 0.  1.
         23    2    1    2    0    0  0.64076429605E+02  0.33815384188E+03 -0.10923813954E+04  0.11488713603E+04  0.90302158591E+02 0.  0.
         23    2    1    2    0    0  0.66374321139E+02 -0.31429135157E+03  0.29879856915E+03  0.44783343580E+03  0.89942187606E+02 0.  0.
        -11    1    4    4    0    0  0.35959888782E+02 -0.64003865614E+02  0.11253493234E+03  0.13436412993E+03  0.00000000000E+00 0. -1.
         11    1    4    4    0    0  0.30414432357E+02 -0.25028748596E+03  0.18626363681E+03  0.31346930587E+03  0.00000000000E+00 0.  1.
        -11    1    3    3    0    0  0.84850272497E+02  0.22169839809E+03 -0.74440952566E+03  0.78134198041E+03  0.00000000000E+00 0.  1.
         11    1    3    3    0    0 -0.20773842892E+02  0.11645544379E+03 -0.34797186975E+03  0.36752937988E+03  0.00000000000E+00 0. -1.
         21    1    1    2  502  501 -0.80982166555E+02 -0.15141088766E+03 -0.53574544703E+03  0.56258915046E+03  0.00000000000E+00 0.  1.
         21    1    1    2  503  502 -0.49468584189E+02  0.12754839735E+03  0.36191933994E+03  0.38691257812E+03  0.00000000000E+00 0.  1.
<scales pt_clust_5="13000.00000" pt_clust_6="13000.00000" pt_clust_7="13000.00000" pt_clust_8="13000.00000" pt_clust_9="168.85748" pt_clust_10="136.80546"></scales>
<clustering>
<clus scale="   89.942">  5  6 -1 -1</clus>
<clus scale="   90.302">  7  8 -1 -1</clus>
<clus scale="  136.805">  1 10  2 -1</clus>
<clus scale="  168.857">  2  9  1 -1</clus>
<clus scale="  225.604">  1  5  2 -1</clus>
<clus scale="  136.805">  1  5  2 -1</clus>
</clustering>
</event>
<event>
10    2  0.1133532E-006  0.1242766E+03  0.7546771E-02  0.1236396E+00
          1   -1    0    0  503    0  0.00000000000E+00  0.00000000000E+00  0.50310224422E+03  0.50310224422E+03  0.00000000000E+00 0. -1.
         -1   -1    0    0    0  501 -0.00000000000E+00 -0.00000000000E+00 -0.27726327182E+03  0.27726327182E+03  0.00000000000E+00 0.  1.
         23    2    1    2    0    0 -0.87515238764E+02 -0.66114296964E+02 -0.10483891207E+03  0.17651923839E+03  0.90209903874E+02 0.  0.
         23    2    1    2    0    0  0.93197220607E+02 -0.17449829609E+02 -0.73415811866E+01  0.13153954571E+03  0.90876480947E+02 0.  0.
        -11    1    4    4    0    0  0.75379115551E+02 -0.49864820780E+02 -0.19772167319E+02  0.92517295751E+02  0.00000000000E+00 0.  1.
         11    1    4    4    0    0  0.17818105056E+02  0.32414991170E+02  0.12430586132E+02  0.39022249960E+02  0.00000000000E+00 0. -1.
        -13    1    3    3    0    0 -0.52524265501E+02 -0.41632243622E+02 -0.11455642548E+03  0.13272232968E+03  0.00000000000E+00 0.  1.
         13    1    3    3    0    0 -0.34990973263E+02 -0.24482053342E+02  0.97175134087E+01  0.43796908710E+02  0.00000000000E+00 0. -1.
         21    1    1    2  502  501  0.27590645014E+02  0.30899742258E+02 -0.58079536261E+02  0.71339121779E+02  0.00000000000E+00 0. -1.
         21    1    1    2  503  502 -0.33272626857E+02  0.52664384315E+02  0.39609900192E+03  0.40096761016E+03  0.00000000000E+00 0. -1.
<scales pt_clust_5="13000.00000" pt_clust_6="13000.00000" pt_clust_7="13000.00000" pt_clust_8="13000.00000" pt_clust_9="41.42509" pt_clust_10="62.42657"></scales>
<clustering>
<clus scale="   41.425">  2  9  1 -1</clus>
<clus scale="   62.427">  1 10  2 -1</clus>
<clus scale="   90.210">  7  8 -1 -1</clus>
<clus scale="   90.876">  5  6 -1 -1</clus>
<clus scale="  123.790">  2  7  1 -1</clus>
<clus scale="   62.427">  1  5  2 -1</clus>
</clustering>
</event>
<event>
10    2  0.1133532E-006  0.1303521E+03  0.7546771E-02  0.1230693E+00
          2   -1    0    0  503    0  0.00000000000E+00  0.00000000000E+00  0.85400320065E+02  0.85400320065E+02  0.00000000000E+00 0. -1.
         -2   -1    0    0    0  501 -0.00000000000E+00 -0.00000000000E+00 -0.93914242718E+03  0.93914242718E+03  0.00000000000E+00 0.  1.
         23    2    1    2    0    0 -0.38758788521E+02  0.52563886565E+02 -0.36674764437E+03  0.38422927152E+03  0.94143999169E+02 0.  0.
         23    2    1    2    0    0  0.70493294776E+02 -0.90043505324E+02 -0.33206668021E+03  0.36022366608E+03  0.80097890345E+02 0.  0.
        -11    1    4    4    0    0  0.55570569833E+02 -0.10368326653E+03 -0.25998213449E+03  0.28535770227E+03  0.00000000000E+00 0. -1.
         11    1    4    4    0    0  0.14922724943E+02  0.13639761207E+02 -0.72084545720E+02  0.74865963810E+02  0.00000000000E+00 0.  1.
        -13    1    3    3    0    0 -0.42107914246E+02  0.78035711150E+02 -0.29383206609E+03  0.30692007383E+03  0.00000000000E+00 0.  1.
         13    1    3    3    0    0  0.33491257251E+01 -0.25471824585E+02 -0.72915578279E+02  0.77309197684E+02  0.00000000000E+00 0. -1.
         21    1    1    2  502  501  0.19295803514E+01  0.42311465946E+02 -0.21061891304E+03  0.21483554166E+03  0.00000000000E+00 0. -1.
         21    1    1    2  503  502 -0.33664086607E+02 -0.48318471866E+01  0.55691130504E+02  0.65254267992E+02  0.00000000000E+00 0. -1.
<scales pt_clust_5="13000.00000" pt_clust_6="13000.00000" pt_clust_7="13000.00000" pt_clust_8="13000.00000" pt_clust_9="41.91285" pt_clust_10="34.00908"></scales>
<clustering>
<clus scale="   34.009">  1 10  2 -1</clus>
<clus scale="   41.913">  2  9  1 -1</clus>
<clus scale="   80.098">  5  6 -1 -1</clus>
<clus scale="   94.144">  7  8 -1 -1</clus>
<clus scale="  120.600">  1  5  2 -1</clus>
<clus scale="   34.009">  1  5  2 -1</clus>
</clustering>
</event>
<event>
10    2  0.1133532E-006  0.1143206E+03  0.7546771E-02  0.1254453E+00
         -3   -1    0    0    0  501 -0.00000000000E+00  0.00000000000E+00  0.13259059250E+03  0.13259059250E+03  0.00000000000E+00 0.  1.
          3   -1    0    0  503    0  0.00000000000E+00 -0.00000000000E+00 -0.32050678464E+03  0.32050678464E+03  0.00000000000E+00 0. -1.
         23    2    1    2    0    0 -0.99606897743E+02  0.25778881578E+02 -0.19227873667E+02  0.13576271223E+03  0.86462235065E+02 0.  0.
         23    2    1    2    0    0  0.44059557204E+02  0.25375878586E+02 -0.14350630509E+03  0.17747999465E+03  0.91213535758E+02 0.  0.
        -13    1    3    3    0    0 -0.98997476242E+02  0.49484506410E+02 -0.15407794621E+02  0.11174353141E+03  0.00000000000E+00 0.  1.
         13    1    3    3    0    0 -0.60942150006E+00 -0.23705624832E+02 -0.38200790454E+01  0.24019180818E+02  0.00000000000E+00 0. -1.
        -13    1    4    4    0    0  0.24055870824E+02  0.59233374884E+02 -0.75595762903E+02  0.99005035176E+02  0.00000000000E+00 0.  1.
         13    1    4    4    0    0  0.20003686380E+02 -0.33857496298E+02 -0.67910542190E+02  0.78474959477E+02  0.00000000000E+00 0. -1.
         21    1    1    2  502  501  0.32689275637E+02 -0.52068254049E+02  0.38261407582E+02  0.72412893406E+02  0.00000000000E+00 0. -1.
         21    1    1    2  503  502  0.22858064901E+02  0.91349388455E+00 -0.63443420956E+02  0.67441776850E+02  0.00000000000E+00 0. -1.
<scales pt_clust_5="13000.00000" pt_clust_6="13000.00000" pt_clust_7="13000.00000" pt_clust_8="13000.00000" pt_clust_9="62.25525" pt_clust_10="22.87631"></scales>
<clustering>
<clus scale="   22.876">  2 10  1 -1</clus>
<clus scale="   62.255">  1  9  2 -1</clus>
<clus scale="   86.462">  5  6 -1 -1</clus>
<clus scale="   91.214">  7  8 -1 -1</clus>
<clus scale="  110.567">  1  5  2 -1</clus>
<clus scale="   22.876">  2  5  1 -1</clus>
</clustering>
</event>
<event>
10    2  0.1133532E-006  0.1217755E+03  0.7546771E-02  0.1244258E+00
          1   -1    0    0  503    0  0.00000000000E+00  0.00000000000E+00  0.61538695266E+03  0.61538695266E+03  0.00000000000E+00 0. -1.
         -1   -1    0    0    0  501 -0.00000000000E+00 -0.00000000000E+00 -0.40184825403E+03  0.40184825403E+03  0.00000000000E+00 0.  1.
         23    2    1    2    0    0  0.36940064170E+02  0.46074672190E+02 -0.29910473266E+03  0.31783796664E+03  0.89832556376E+02 0.  0.
         23    2    1    2    0    0 -0.76029322344E+02  0.68237796658E+02  0.16694717980E+03  0.22051283776E+03  0.10157606031E+03 0.  0.
        -11    1    4    4    0    0 -0.82057382851E+02  0.76408383592E+01  0.84721130577E+02  0.11819249747E+03  0.00000000000E+00 0. -1.
         11    1    4    4    0    0  0.60280605066E+01  0.60596958299E+02  0.82226049218E+02  0.10232034030E+03  0.00000000000E+00 0.  1.
        -11    1    3    3    0    0  0.54511747163E+02 -0.31125747945E+01 -0.17057451607E+03  0.17910020724E+03  0.00000000000E+00 0.  1.
         11    1    3    3    0    0 -0.17571682993E+02  0.49187246985E+02 -0.12853021659E+03  0.13873775941E+03  0.00000000000E+00 0. -1.
         21    1    1    2  502  501  0.30963311544E+02 -0.27498439684E+02 -0.54979806907E+02  0.68830734519E+02  0.00000000000E+00 0.  1.
         21    1    1    2  503  502  0.81259466305E+01 -0.86814029164E+02  0.40067605840E+03  0.41005366776E+03  0.00000000000E+00 0. -1.
<scales pt_clust_5="13000.00000" pt_clust_6="13000.00000" pt_clust_7="13000.00000" pt_clust_8="13000.00000" pt_clust_9="41.41124" pt_clust_10="87.61180"></scales>
<clustering>
<clus scale="   41.411">  2  9  1 -1</clus>
<clus scale="   87.612">  1 10  2 -1</clus>
<clus scale="   89.833">  7  8 -1 -1</clus>
<clus scale="  101.576">  5  6 -1 -1</clus>
<clus scale="  112.167">  2  7  1 -1</clus>
<clus scale="   87.612">  1  5  2 -1</clus>
</clustering>
</event>
<event>
10    2  0.1133532E-006  0.4326247E+03  0.7546771E-02  0.1033111E+00
         -1   -1    0    0    0  501 -0.00000000000E+00  0.00000000000E+00  0.20426638000E+03  0.20426638000E+03  0.00000000000E+00 0.  1.
          1   -1    0    0  503    0  0.00000000000E+00 -0.00000000000E+00 -0.15633210262E+04  0.15633210262E+04  0.00000000000E+00 0. -1.
         23    2    1    2    0    0  0.27259449290E+03 -0.35660882210E+03 -0.48991185822E+03  0.67067357857E+03  0.91169131868E+02 0.  0.
         23    2    1    2    0    0 -0.23398243262E+03  0.32377124907E+03 -0.88851501240E+03  0.97887571407E+03  0.95724269830E+02 0.  0.
        -13    1    3    3    0    0  0.17504036359E+03 -0.29004584000E+03 -0.34179566404E+03  0.48123798078E+03  0.00000000000E+00 0.  1.
         13    1    3    3    0    0  0.97554129308E+02 -0.66562982100E+02 -0.14811619418E+03  0.18943559779E+03  0.00000000000E+00 0. -1.
        -13    1    4    4    0    0 -0.12796834266E+03  0.12916819944E+03 -0.49372395255E+03  0.52614034420E+03  0.00000000000E+00 0.  1.
         13    1    4    4    0    0 -0.10601408996E+03  0.19460304963E+03 -0.39479105984E+03  0.45273536987E+03  0.00000000000E+00 0. -1.
         21    1    1    2  502  501 -0.33899517817E+02  0.13172751658E+02  0.61420266953E+02  0.71380304616E+02  0.00000000000E+00 0.  1.
         21    1    1    2  503  502 -0.47125424626E+01  0.19664821371E+02 -0.42048042557E+02  0.46657808981E+02  0.00000000000E+00 0. -1.
<scales pt_clust_5="13000.00000" pt_clust_6="13000.00000" pt_clust_7="13000.00000" pt_clust_8="13000.00000" pt_clust_9="36.40672" pt_clust_10="20.22160"></scales>
<clustering>
<clus scale="   20.222">  2 10  1 -1</clus>
<clus scale="   36.407">  1  9  2 -1</clus>
<clus scale="   91.169">  5  6 -1 -1</clus>
<clus scale="   95.724">  7  8 -1 -1</clus>
<clus scale="  431.640">  1  5  2 -1</clus>
<clus scale="   20.222">  2  5  1 -1</clus>
</clustering>
</event>
<event>
10    2  0.1133532E-006  0.1520000E+03  0.7546771E-02  0.1198186E+00
          1   -1    0    0  503    0  0.00000000000E+00  0.00000000000E+00  0.80271290545E+03  0.80271290545E+03  0.00000000000E+00 0. -1.
         -1   -1    0    0    0  501 -0.00000000000E+00 -0.00000000000E+00 -0.94189697701E+02  0.94189697701E+02  0.00000000000E+00 0.  1.
         23    2    1    2    0    0 -0.12385526553E+03 -0.18666141479E+02  0.38031520886E+02  0.15992470502E+03  0.91874713917E+02 0.  0.
         23    2    1    2    0    0  0.11854708535E+03  0.68558868590E+02  0.61384271832E+03  0.63572570827E+03  0.92685292342E+02 0.  0.
        -13    1    3    3    0    0 -0.17562134515E+02  0.32708664530E+02  0.12155531596E+02  0.39064590775E+02  0.00000000000E+00 0. -1.
         13    1    3    3    0    0 -0.10629313102E+03 -0.51374806008E+02  0.25875989290E+02  0.12086011425E+03  0.00000000000E+00 0.  1.
        -13    1    4    4    0    0  0.61485831325E+02 -0.35188306005E+01  0.37076301837E+03  0.37584319259E+03  0.00000000000E+00 0.  1.
         13    1    4    4    0    0  0.57061254026E+02  0.72077699191E+02  0.24307969995E+03  0.25988251568E+03  0.00000000000E+00 0. -1.
         21    1    1    2  502  501  0.12794295458E+02 -0.17870917026E+02 -0.12066445324E+02  0.25073148473E+02  0.00000000000E+00 0. -1.
         21    1    1    2  503  502 -0.74861152771E+01 -0.32021810086E+02  0.68715413867E+02  0.76179041383E+02  0.00000000000E+00 0.  1.
<scales pt_clust_5="13000.00000" pt_clust_6="13000.00000" pt_clust_7="13000.00000" pt_clust_8="13000.00000" pt_clust_9="21.97871" pt_clust_10="33.61016"></scales>
<clustering>
<clus scale="   21.979">  2  9  1 -1</clus>
<clus scale="   33.610">  1 10  2 -1</clus>
<clus scale="   91.875">  5  6 -1 -1</clus>
<clus scale="   92.685">  7  8 -1 -1</clus>
<clus scale="  151.507">  2  5  1 -1</clus>
<clus scale="   33.610">  1  5  2 -1</clus>
</clustering>
</event>
<event>
10    2  0.1133532E-006  0.1064504E+03  0.7546771E-02  0.1269776E+00
          1   -1    0    0  503    0  0.00000000000E+00  0.00000000000E+00  0.83155484927E+03  0.83155484927E+03  0.00000000000E+00 0. -1.
         -1   -1    0    0    0  501 -0.00000000000E+00 -0.00000000000E+00 -0.27773042648E+02  0.27773042648E+02  0.00000000000E+00 0.  1.
         23    2    1    2    0    0 -0.75038308072E+02 -0.13840155398E+02  0.26967243633E+03  0.29492428041E+03  0.91841225361E+02 0.  0.
         23    2    1    2    0    0  0.32073618948E+02 -0.30597344493E+02  0.32088322828E+03  0.33514740484E+03  0.85981522778E+02 0.  0.
        -11    1    3    3    0    0 -0.32654232095E+01 -0.21469868197E+02  0.74646982142E+01  0.22963883569E+02  0.00000000000E+00 0.  1.
         11    1    3    3    0    0 -0.71772884863E+02  0.76297127992E+01  0.26220773812E+03  0.27196039684E+03  0.00000000000E+00 0. -1.
        -13    1    4    4    0    0  0.25774644028E+02 -0.55425669431E+02  0.28225609151E+03  0.28879895827E+03  0.00000000000E+00 0.  1.
         13    1    4    4    0    0  0.62989749201E+01  0.24828324937E+02  0.38627136774E+02  0.46348446572E+02  0.00000000000E+00 0. -1.
         21    1    1    2  502  501  0.18110474120E+02  0.33690039527E+02  0.45876161909E+02  0.59729643123E+02  0.00000000000E+00 0.  1.
         21    1    1    2  503  502  0.24854215004E+02  0.10747460364E+02  0.16734998010E+03  0.16952656355E+03  0.00000000000E+00 0. -1.
<scales pt_clust_5="13000.00000" pt_clust_6="13000.00000" pt_clust_7="13000.00000" pt_clust_8="13000.00000" pt_clust_9="39.96256" pt_clust_10="27.07840"></scales>
<clustering>
<clus scale="   27.078">  1 10  2 -1</clus>
<clus scale="   39.963">  2  9  1 -1</clus>
<clus scale="   85.982">  7  8 -1 -1</clus>
<clus scale="   91.841">  5  6 -1 -1</clus>
<clus scale="  101.438">  1  7  2 -1</clus>
<clus scale="   27.078">  1  5  2 -1</clus>
</clustering>
</event>
<event>
10    2  0.1133532E-006  0.9374265E+02  0.7546771E-02  0.1296178E+00
         -2   -1    0    0    0  501 -0.00000000000E+00  0.00000000000E+00  0.30821000940E+03  0.30821000940E+03  0.00000000000E+00 0.  1.
          2   -1    0    0  503    0  0.00000000000E+00 -0.00000000000E+00 -0.10166917093E+03  0.10166917093E+03  0.00000000000E+00 0. -1.
         23    2    1    2    0    0  0.22899547746E+01  0.33893612128E+02  0.72507260422E+02  0.11883095129E+03  0.87803595227E+02 0.  0.
         23    2    1    2    0    0 -0.88667258849E+01 -0.26649323895E-01  0.33272455713E+02  0.97816762619E+02  0.91555683614E+02 0.  0.
        -11    1    3    3    0    0  0.11181019840E+02 -0.26254205128E+02  0.42074453252E+02  0.50838549429E+02  0.00000000000E+00 0.  1.
         11    1    3    3    0    0 -0.88910650656E+01  0.60147817256E+02  0.30432807170E+02  0.67992401862E+02  0.00000000000E+00 0. -1.
        -13    1    4    4    0    0 -0.26473958519E+02  0.98512640515E+01 -0.24014928581E+02  0.37076066105E+02  0.00000000000E+00 0. -1.
         13    1    4    4    0    0  0.17607232634E+02 -0.98779133754E+01  0.57287384294E+02  0.60740696514E+02  0.00000000000E+00 0.  1.
         21    1    1    2  502  501  0.31224676139E+02 -0.12678513305E+02  0.13901037707E+03  0.14303709320E+03  0.00000000000E+00 0.  1.
         21    1    1    2  503  502 -0.24647905029E+02 -0.21188449499E+02 -0.38249254734E+02  0.50194373212E+02  0.00000000000E+00 0. -1.
<scales pt_clust_5="13000.00000" pt_clust_6="13000.00000" pt_clust_7="13000.00000" pt_clust_8="13000.00000" pt_clust_9="33.19498" pt_clust_10="32.50338"></scales>
<clustering>
<clus scale="   32.503">  2 10  1 -1</clus>
<clus scale="   33.195">  1  9  2 -1</clus>
<clus scale="   87.804">  5  6 -1 -1</clus>
<clus scale="   90.082">  1  5  2 -1</clus>
<clus scale="   91.556">  7  8 -1 -1</clus>
<clus scale="   32.503">  2  5  1 -1</clus>
</clustering>
</event>
<event>
10    2  0.1133532E-006  0.1208767E+03  0.7546771E-02  0.1244574E+00
         -1   -1    0    0    0  501 -0.00000000000E+00  0.00000000000E+00  0.64406197461E+03  0.64406197461E+03  0.00000000000E+00 0.  1.
          1   -1    0    0  503    0  0.00000000000E+00 -0.00000000000E+00 -0.10890554319E+03  0.10890554319E+03  0.00000000000E+00 0. -1.
         23    2    1    2    0    0  0.71022307776E+02 -0.26288349561E+02  0.32481472948E+03  0.34827467756E+03  0.10027660254E+03 0.  0.
         23    2    1    2    0    0 -0.37235990943E+02  0.80689999926E+02  0.11756090268E+03  0.17363483942E+03  0.91821002565E+02 0.  0.
        -11    1    4    4    0    0 -0.13447571467E+02  0.15146727839E+02  0.99590911402E+02  0.10162977013E+03  0.00000000000E+00 0.  1.
         11    1    4    4    0    0 -0.23788419475E+02  0.65543272086E+02  0.17969991275E+02  0.72005069289E+02  0.00000000000E+00 0. -1.
        -13    1    3    3    0    0  0.22501391222E+02 -0.51841183978E+02  0.24502026778E+03  0.25145328112E+03  0.00000000000E+00 0.  1.
         13    1    3    3    0    0  0.48520916554E+02  0.25552834418E+02  0.79794461695E+02  0.96821396433E+02  0.00000000000E+00 0. -1.
         21    1    1    2  502  501 -0.35572881457E+02 -0.15228167969E+02  0.15376217395E+03  0.15855640363E+03  0.00000000000E+00 0.  1.
         21    1    1    2  503  502  0.17865646230E+01 -0.39173482396E+02 -0.60981374691E+02  0.72501597192E+02  0.00000000000E+00 0.  1.
<scales pt_clust_5="13000.00000" pt_clust_6="13000.00000" pt_clust_7="13000.00000" pt_clust_8="13000.00000" pt_clust_9="38.69531" pt_clust_10="39.37699"></scales>
<clustering>
<clus scale="   38.695">  1  9  2 -1</clus>
<clus scale="   39.377">  2 10  1 -1</clus>
<clus scale="   91.821">  5  6 -1 -1</clus>
<clus scale="  100.277">  7  8 -1 -1</clus>
<clus scale="  113.960">  2  5  1 -1</clus>
<clus scale="   39.377">  2  5  1 -1</clus>
</clustering>
</event>
<event>
10    2  0.1133532E-006  0.1507040E+03  0.7546771E-02  0.1199883E+00
         -1   -1    0    0    0  501 -0.00000000000E+00  0.00000000000E+00  0.20613482208E+03  0.20613482208E+03  0.00000000000E+00 0.  1.
          1   -1    0    0  503    0  0.00000000000E+00 -0.00000000000E+00 -0.28975402308E+03  0.28975402308E+03  0.00000000000E+00 0. -1.
         23    2    1    2    0    0  0.99780380201E+02  0.13856957837E+03 -0.32432755605E+02  0.19614659952E+03  0.90906284403E+02 0.  0.
         23    2    1    2    0    0 -0.92054782060E+02 -0.43569890860E+02 -0.68021635478E+02  0.15339728967E+03  0.92365400962E+02 0.  0.
        -11    1    4    4    0    0 -0.66618343416E+02 -0.47576413925E+02 -0.12934089700E+01  0.81873022102E+02  0.00000000000E+00 0. -1.
         11    1    4    4    0    0 -0.25436438644E+02  0.40065230647E+01 -0.66728226508E+02  0.71524267566E+02  0.00000000000E+00 0.  1.
        -13    1    3    3    0    0  0.77978533189E+02  0.63547507980E+02  0.19323974485E+02  0.10243218927E+03  0.00000000000E+00 0.  1.
         13    1    3    3    0    0  0.21801847012E+02  0.75022070385E+02 -0.51756730090E+02  0.93714410246E+02  0.00000000000E+00 0. -1.
         21    1    1    2  502  501 -0.52343466805E+02 -0.76330148342E+02  0.28020600921E+02  0.96702037926E+02  0.00000000000E+00 0.  1.
         21    1    1    2  503  502  0.44617868664E+02 -0.18669539164E+02 -0.11185410838E+02  0.49642918048E+02  0.00000000000E+00 0.  1.
<scales pt_clust_5="13000.00000" pt_clust_6="13000.00000" pt_clust_7="13000.00000" pt_clust_8="13000.00000" pt_clust_9="91.46608" pt_clust_10="48.36637"></scales>
<clustering>
<clus scale="   48.366">  2 10  1 -1</clus>
<clus scale="   90.906">  7  8 -1 -1</clus>
<clus scale="   91.466">  1  9  2 -1</clus>
<clus scale="   92.365">  5  6 -1 -1</clus>
<clus scale="  149.814">  1  7  2 -1</clus>
<clus scale="   48.366">  2  5  1 -1</clus>
</clustering>
</event>
<event>
10    2  0.1133532E-006  0.1402389E+03  0.7546771E-02  0.1214557E+00
         -1   -1    0    0    0  501 -0.00000000000E+00  0.00000000000E+00  0.17845701710E+03  0.17845701710E+03  0.00000000000E+00 0.  1.
          1   -1    0    0  503    0  0.00000000000E+00 -0.00000000000E+00 -0.25232485370E+03  0.25232485370E+03  0.00000000000E+00 0. -1.
         23    2    1    2    0    0  0.10580580343E+03 -0.50842614289E+02  0.82884599619E+02  0.17270143906E+03  0.95791913699E+02 0.  0.
         23    2    1    2    0    0 -0.58416176651E+02  0.84253782419E+02 -0.11296690929E+03  0.17662718123E+03  0.89019599003E+02 0.  0.
        -11    1    3    3    0    0  0.82581411641E+02 -0.31955179722E+02  0.10360901938E+03  0.13629252348E+03  0.00000000000E+00 0.  1.
         11    1    3    3    0    0  0.23224391792E+02 -0.18887434568E+02 -0.20724419764E+02  0.36408915574E+02  0.00000000000E+00 0. -1.
        -13    1    4    4    0    0 -0.33655782302E+02  0.62696983688E+02 -0.12317071871E+03  0.14224854794E+03  0.00000000000E+00 0. -1.
         13    1    4    4    0    0 -0.24760394349E+02  0.21556798731E+02  0.10203809412E+02  0.34378633283E+02  0.00000000000E+00 0.  1.
         21    1    1    2  502  501 -0.30754182970E+02 -0.14676139861E+02 -0.38287389101E+01  0.34290933102E+02  0.00000000000E+00 0. -1.
         21    1    1    2  503  502 -0.16635443812E+02 -0.18735028269E+02 -0.39956788021E+02  0.47162317416E+02  0.00000000000E+00 0. -1.
<scales pt_clust_5="13000.00000" pt_clust_6="13000.00000" pt_clust_7="13000.00000" pt_clust_8="13000.00000" pt_clust_9="36.19482" pt_clust_10="25.05473"></scales>
<clustering>
<clus scale="   25.055">  2 10  1 -1</clus>
<clus scale="   36.195">  1  9  2 -1</clus>
<clus scale="   89.020">  7  8 -1 -1</clus>
<clus scale="   95.792">  5  6 -1 -1</clus>
<clus scale="  135.703">  2  7  1 -1</clus>
<clus scale="   25.055">  2  5  1 -1</clus>
</clustering>
</event>
<event>
10    2  0.1133532E-006  0.1296819E+03  0.7546771E-02  0.1228371E+00
         -2   -1    0    0    0  501 -0.00000000000E+00  0.00000000000E+00  0.26519438388E+03  0.26519438388E+03  0.00000000000E+00 0.  1.
          2   -1    0    0  503    0  0.00000000000E+00 -0.00000000000E+00 -0.43941871123E+03  0.43941871123E+03  0.00000000000E+00 0. -1.
         23    2    1    2    0    0  0.86202231762E+02 -0.30304971723E+02 -0.60639403813E+02  0.14197523203E+03  0.90169912623E+02 0.  0.
         23    2    1    2    0    0 -0.91621880520E+02  0.22234817708E+02 -0.23150957230E+03  0.26631181994E+03  0.91849590455E+02 0.  0.
        -13    1    3    3    0    0 -0.27413402817E+01 -0.30625249836E+02 -0.40378222045E+02  0.50752553528E+02  0.00000000000E+00 0. -1.
         13    1    3    3    0    0  0.88943572043E+02  0.32027811245E+00 -0.20261181768E+02  0.91222678499E+02  0.00000000000E+00 0.  1.
        -13    1    4    4    0    0 -0.52289439312E+02 -0.35212652355E+01 -0.20652428561E+03  0.21307009485E+03  0.00000000000E+00 0. -1.
         13    1    4    4    0    0 -0.39332441208E+02  0.25756082944E+02 -0.24985286688E+02  0.53241725093E+02  0.00000000000E+00 0.  1.
         21    1    1    2  502  501  0.55711316471E+01  0.28106724214E+02  0.20499094770E+03  0.20698384984E+03  0.00000000000E+00 0.  1.
         21    1    1    2  503  502 -0.15148288836E+00 -0.20036570199E+02 -0.87066298936E+02  0.89342193295E+02  0.00000000000E+00 0. -1.
<scales pt_clust_5="13000.00000" pt_clust_6="13000.00000" pt_clust_7="13000.00000" pt_clust_8="13000.00000" pt_clust_9="28.59770" pt_clust_10="20.03714"></scales>
<clustering>
<clus scale="   20.037">  2 10  1 -1</clus>
<clus scale="   28.598">  1  9  2 -1</clus>
<clus scale="   90.170">  5  6 -1 -1</clus>
<clus scale="   91.850">  7  8 -1 -1</clus>
<clus scale="  128.498">  1  5  2 -1</clus>
<clus scale="   20.037">  2  5  1 -1</clus>
</clustering>
</event>
<event>
10    2  0.1133532E-006  0.1132776E+03  0.7546771E-02  0.1256693E+00
         -1   -1    0    0    0  501 -0.00000000000E+00  0.00000000000E+00  0.36432879838E+03  0.36432879838E+03  0.00000000000E+00 0.  1.
          1   -1    0    0  502    0  0.00000000000E+00 -0.00000000000E+00 -0.81483196400E+02  0.81483196400E+02  0.00000000000E+00 0. -1.
         23    2    1    2    0    0  0.57725889479E+02 -0.15570696282E+01  0.14835413747E+03  0.18407171559E+03  0.92405322327E+02 0.  0.
         23    2    1    2    0    0 -0.53712941906E+02  0.22203761279E+02  0.49069493210E+01  0.11381162674E+03  0.97728814001E+02 0.  0.
        -11    1    3    3    0    0  0.35572434238E+02  0.72548526554E+01  0.15510140220E+03  0.15929367824E+03  0.00000000000E+00 0.  1.
         11    1    3    3    0    0  0.22153455242E+02 -0.88119222836E+01 -0.67472647287E+01  0.24778037347E+02  0.00000000000E+00 0. -1.
        -13    1    4    4    0    0 -0.50534909937E+02 -0.21544417634E+02 -0.25372514511E+02  0.60512011586E+02  0.00000000000E+00 0. -1.
         13    1    4    4    0    0 -0.31780319687E+01  0.43748178913E+02  0.30279463832E+02  0.53299615152E+02  0.00000000000E+00 0.  1.
         21    1    1    2  502  503  0.19228436186E+02 -0.35971286047E+02  0.96003243750E+02  0.10430862375E+03  0.00000000000E+00 0.  1.
         21    1    1    2  503  501 -0.23241383759E+02  0.15324594396E+02  0.33581271443E+02  0.43620028704E+02  0.00000000000E+00 0. -1.
<scales pt_clust_5="13000.00000" pt_clust_6="13000.00000" pt_clust_7="13000.00000" pt_clust_8="13000.00000" pt_clust_9="33.51293" pt_clust_10="27.83891"></scales>
<clustering>
<clus scale="   27.839">  1 10  2 -1</clus>
<clus scale="   33.513">  1  9  2 -1</clus>
<clus scale="   92.405">  5  6 -1 -1</clus>
<clus scale="   97.729">  7  8 -1 -1</clus>
<clus scale="  108.718">  1  5  2 -1</clus>
<clus scale="  113.278">  2  5  1 -1</clus>
</clustering>
</event>
<event>
10    2  0.1133532E-006  0.2843873E+03  0.7546771E-02  0.1093450E+00
          1   -1    0    0  503    0  0.00000000000E+00  0.00000000000E+00  0.95975078131E+02  0.95975078131E+02  0.00000000000E+00 0. -1.
         -1   -1    0    0    0  501 -0.00000000000E+00 -0.00000000000E+00 -0.12397456696E+04  0.12397456696E+04  0.00000000000E+00 0.  1.
         23    2    1    2    0    0 -0.25504062537E+03 -0.55319144435E+02 -0.67995069647E+03  0.73375403048E+03  0.89196969068E+02 0.  0.
         23    2    1    2    0    0  0.29288242773E+03  0.21288491151E+02 -0.39756787780E+03  0.50280562001E+03  0.92303617124E+02 0.  0.
        -11    1    3    3    0    0 -0.16577957938E+03 -0.76859478888E+02 -0.48434447465E+03  0.51766767192E+03  0.00000000000E+00 0.  1.
         11    1    3    3    0    0 -0.89261045994E+02  0.21540334452E+02 -0.19560622182E+03  0.21608635856E+03  0.00000000000E+00 0. -1.
        -13    1    4    4    0    0  0.24609319236E+03  0.32416513977E+02 -0.27144918448E+03  0.36782788021E+03  0.00000000000E+00 0. -1.
         13    1    4    4    0    0  0.46789235365E+02 -0.11128022826E+02 -0.12611869332E+03  0.13497773981E+03  0.00000000000E+00 0.  1.
         21    1    1    2  502  501  0.57953963186E+01  0.19354538805E+02 -0.43161577022E+02  0.47656127852E+02  0.00000000000E+00 0.  1.
         21    1    1    2  503  502 -0.43637198671E+02  0.14676114479E+02 -0.23090440195E+02  0.51504969396E+02  0.00000000000E+00 0.  1.
<scales pt_clust_5="13000.00000" pt_clust_6="13000.00000" pt_clust_7="13000.00000" pt_clust_8="13000.00000" pt_clust_9="20.20358" pt_clust_10="46.06449"></scales>
<clustering>
<clus scale="   20.204">  2  9  1 -1</clus>
<clus scale="   46.064">  1 10  2 -1</clus>
<clus scale="   89.197">  5  6 -1 -1</clus>
<clus scale="   92.304">  7  8 -1 -1</clus>
<clus scale="  283.394">  2  5  1 -1</clus>
<clus scale="   46.064">  1  5  2 -1</clus>
</clustering>
</event>
<event>
10    2  0.1133532E-006  0.9867129E+02  0.7546771E-02  0.1286121E+00
          2   -1    0    0  503    0  0.00000000000E+00  0.00000000000E+00  0.75322274969E+02  0.75322274969E+02  0.00000000000E+00 0. -1.
         -2   -1    0    0    0  501 -0.00000000000E+00 -0.00000000000E+00 -0.40437444059E+03  0.40437444059E+03  0.00000000000E+00 0.  1.
         23    2    1    2    0    0  0.28494993603E+02  0.24246968807E+02 -0.73697583135E+02  0.12718600856E+03  0.96669885983E+02 0.  0.
         23    2    1    2    0    0  0.17015511729E+02 -0.16464581567E+02 -0.39803429855E+02  0.10219942293E+03  0.91103232284E+02 0.  0.
        -13    1    3    3    0    0  0.58708163584E+02 -0.27711112085E+01 -0.25111270462E+02  0.63913249275E+02  0.00000000000E+00 0. -1.
         13    1    3    3    0    0 -0.30213169980E+02  0.27018080015E+02 -0.48586312672E+02  0.63272759281E+02  0.00000000000E+00 0.  1.
        -13    1    4    4    0    0 -0.31559075203E+02 -0.12230452459E+02 -0.41325599011E+02  0.53416891791E+02  0.00000000000E+00 0.  1.
         13    1    4    4    0    0  0.48574586932E+02 -0.42341291078E+01  0.15221691558E+01  0.48782531134E+02  0.00000000000E+00 0. -1.
         21    1    1    2  502  501  0.85882234040E+01 -0.32390092237E+02 -0.17543575040E+03  0.17860732957E+03  0.00000000000E+00 0. -1.
         21    1    1    2  503  502 -0.54098728736E+02  0.24607704997E+02 -0.40115402229E+02  0.71703954508E+02  0.00000000000E+00 0.  1.
<scales pt_clust_5="13000.00000" pt_clust_6="13000.00000" pt_clust_7="13000.00000" pt_clust_8="13000.00000" pt_clust_9="33.50934" pt_clust_10="54.58566"></scales>
<clustering>
<clus scale="   33.509">  2  9  1 -1</clus>
<clus scale="   54.586">  2 10  1 -1</clus>
<clus scale="   91.103">  7  8 -1 -1</clus>
<clus scale="   93.224">  1  7  2 -1</clus>
<clus scale="   96.670">  5  6 -1 -1</clus>
<clus scale="   93.224">  1  5  2 -1</clus>
</clustering>
</event>
<event>
10    2  0.1133532E-006  0.1174962E+03  0.7546771E-02  0.1247329E+00
         -3   -1    0    0    0  501 -0.00000000000E+00  0.00000000000E+00  0.20308009101E+03  0.20308009101E+03  0.00000000000E+00 0.  1.
          3   -1    0    0  503    0  0.00000000000E+00 -0.00000000000E+00 -0.28719772899E+03  0.28719772899E+03  0.00000000000E+00 0. -1.
         23    2    1    2    0    0  0.17377478019E+02  0.55259125831E+02  0.13366555455E+03  0.17174474820E+03  0.90962796406E+02 0.  0.
         23    2    1    2    0    0 -0.55977210738E+02 -0.43058842798E+02 -0.16581983524E+03  0.20194528237E+03  0.91094276690E+02 0.  0.
        -13    1    3    3    0    0  0.53981027117E+02  0.43699862376E+02  0.86769201810E+02  0.11114190768E+03  0.00000000000E+00 0.  1.
         13    1    3    3    0    0 -0.36603549098E+02  0.11559263455E+02  0.46896352744E+02  0.60602840518E+02  0.00000000000E+00 0. -1.
        -13    1    4    4    0    0 -0.81072474313E+02 -0.35158943110E+02 -0.11875137957E+03  0.14802292904E+03  0.00000000000E+00 0.  1.
         13    1    4    4    0    0  0.25095263575E+02 -0.78998996888E+01 -0.47068455673E+02  0.53922353328E+02  0.00000000000E+00 0. -1.
         21    1    1    2  502  501  0.15480847883E+02  0.16595687235E+02  0.23440343600E+02  0.32627031646E+02  0.00000000000E+00 0.  1.
         21    1    1    2  503  502  0.23118884836E+02 -0.28795970268E+02 -0.75403700895E+02  0.83960757788E+02  0.00000000000E+00 0. -1.
<scales pt_clust_5="13000.00000" pt_clust_6="13000.00000" pt_clust_7="13000.00000" pt_clust_8="13000.00000" pt_clust_9="22.69523" pt_clust_10="36.85285"></scales>
<clustering>
<clus scale="   22.695">  1  9  2 -1</clus>
<clus scale="   36.853">  2 10  1 -1</clus>
<clus scale="   90.963">  5  6 -1 -1</clus>
<clus scale="   91.094">  7  8 -1 -1</clus>
<clus scale="  117.394">  1  5  2 -1</clus>
<clus scale="   36.853">  2  5  1 -1</clus>
</clustering>
</event>
<event>
10    2  0.1133532E-006  0.9325831E+02  0.7546771E-02  0.1295331E+00
          3   -1    0    0  503    0  0.00000000000E+00  0.00000000000E+00  0.83638637108E+02  0.83638637108E+02  0.00000000000E+00 0. -1.
         -3   -1    0    0    0  501 -0.00000000000E+00 -0.00000000000E+00 -0.37381085940E+03  0.37381085940E+03  0.00000000000E+00 0.  1.
         23    2    1    2    0    0  0.19047585070E+02 -0.29949799932E+02 -0.77547202893E+02  0.12455872301E+03  0.90782739490E+02 0.  0.
         23    2    1    2    0    0 -0.20457889470E+02  0.59403972270E+01  0.11443581548E+02  0.94261715310E+02  0.91107090030E+02 0.  0.
        -13    1    3    3    0    0 -0.12359911851E+02 -0.53414345527E+02 -0.28570821580E+02  0.61823551943E+02  0.00000000000E+00 0. -1.
         13    1    3    3    0    0  0.31407496920E+02  0.23464545595E+02 -0.48976381313E+02  0.62735171071E+02  0.00000000000E+00 0.  1.
        -13    1    4    4    0    0 -0.13760084919E+02  0.43643806211E+02 -0.14503895073E+02  0.48005049003E+02  0.00000000000E+00 0.  1.
         13    1    4    4    0    0 -0.66978045510E+01 -0.37703408984E+02  0.25947476620E+02  0.46256666306E+02  0.00000000000E+00 0. -1.
         21    1    1    2  502  501 -0.18409024566E+02  0.19871563361E+02 -0.21455571466E+03  0.21625893256E+03  0.00000000000E+00 0.  1.
         21    1    1    2  503  502  0.19819328966E+02  0.41378393445E+01 -0.95128862802E+01  0.22370125625E+02  0.00000000000E+00 0. -1.
<scales pt_clust_5="13000.00000" pt_clust_6="13000.00000" pt_clust_7="13000.00000" pt_clust_8="13000.00000" pt_clust_9="26.97381" pt_clust_10="20.24667"></scales>
<clustering>
<clus scale="   20.247">  1 10  2 -1</clus>
<clus scale="   26.974">  2  9  1 -1</clus>
<clus scale="   90.783">  5  6 -1 -1</clus>
<clus scale="   91.107">  7  8 -1 -1</clus>
<clus scale="   92.941">  2  5  1 -1</clus>
<clus scale="   20.247">  1  5  2 -1</clus>
</clustering>
</event>
<event>
10    2  0.1133533E-006  0.1266580E+03  0.7546771E-02  0.1234354E+00
         -2   -1    0    0    0  501 -0.00000000000E+00  0.00000000000E+00  0.24183732321E+03  0.24183732321E+03  0.00000000000E+00 0.  1.
          2   -1    0    0  503    0  0.00000000000E+00 -0.00000000000E+00 -0.62495161862E+03  0.62495161862E+03  0.00000000000E+00 0. -1.
         23    2    1    2    0    0  0.26610601185E+02  0.63524931134E+02 -0.15390200449E+03  0.19089716663E+03  0.89511788448E+02 0.  0.
         23    2    1    2    0    0  0.18856801153E+02 -0.95758763085E+02 -0.37433848001E+03  0.39855087657E+03  0.95855015175E+02 0.  0.
        -11    1    4    4    0    0  0.48702767432E+02 -0.84438827688E+02 -0.32875695153E+03  0.34290378878E+03  0.00000000000E+00 0. -1.
         11    1    4    4    0    0 -0.29845966279E+02 -0.11319935397E+02 -0.45581528481E+02  0.55647087788E+02  0.00000000000E+00 0.  1.
        -13    1    3    3    0    0  0.18958990557E+02  0.85212567431E+02 -0.10283991722E+03  0.13489504641E+03  0.00000000000E+00 0.  1.
         13    1    3    3    0    0  0.76516106279E+01 -0.21687636297E+02 -0.51062087272E+02  0.56002120227E+02  0.00000000000E+00 0. -1.
         21    1    1    2  502  501 -0.25231377181E+02  0.32447633772E+02  0.20762131290E+03  0.21165084669E+03  0.00000000000E+00 0.  1.
         21    1    1    2  503  502 -0.20236025158E+02 -0.21380181997E+00 -0.62495123802E+02  0.65690051944E+02  0.00000000000E+00 0.  1.
<scales pt_clust_5="13000.00000" pt_clust_6="13000.00000" pt_clust_7="13000.00000" pt_clust_8="13000.00000" pt_clust_9="41.14724" pt_clust_10="20.23715"></scales>
<clustering>
<clus scale="   20.237">  2 10  1 -1</clus>
<clus scale="   41.147">  1  9  2 -1</clus>
<clus scale="   89.512">  7  8 -1 -1</clus>
<clus scale="   95.855">  5  6 -1 -1</clus>
<clus scale="  121.928">  1  7  2 -1</clus>
<clus scale="   20.237">  2  5  1 -1</clus>
</clustering>
</event>
<event>
10    2  0.1133532E-006  0.9876407E+02  0.7546771E-02  0.1284241E+00
         -2   -1    0    0    0  501 -0.00000000000E+00  0.00000000000E+00  0.87367015281E+02  0.87367015281E+02  0.00000000000E+00 0.  1.
          2   -1    0    0  503    0  0.00000000000E+00 -0.00000000000E+00 -0.46620863006E+03  0.46620863006E+03  0.00000000000E+00 0. -1.
         23    2    1    2    0    0  0.14878972095E+02  0.45203375546E+02 -0.12133047839E+02  0.10195638713E+03  0.89348559339E+02 0.  0.
         23    2    1    2    0    0  0.25050754362E+02 -0.50823891488E+02 -0.16439334270E+03  0.19671254966E+03  0.91978518293E+02 0.  0.
        -11    1    4    4    0    0 -0.22791654333E+02 -0.42338440231E+02 -0.37951617585E+02  0.61256251156E+02  0.00000000000E+00 0.  1.
         11    1    4    4    0    0  0.47842408695E+02 -0.84854512570E+01 -0.12644172512E+03  0.13545629850E+03  0.00000000000E+00 0. -1.
        -13    1    3    3    0    0  0.44485426278E+02  0.53824327573E+02 -0.34162638970E+01  0.69911960699E+02  0.00000000000E+00 0. -1.
         13    1    3    3    0    0 -0.29606454183E+02 -0.86209520267E+01 -0.87167839418E+01  0.32044426433E+02  0.00000000000E+00 0.  1.
         21    1    1    2  502  501  0.29513878074E+01 -0.23178251118E+02  0.17443783328E+02  0.29158662378E+02  0.00000000000E+00 0.  1.
         21    1    1    2  503  502 -0.42881114264E+02  0.28798767060E+02 -0.21975900757E+03  0.22574804618E+03  0.00000000000E+00 0.  1.
<scales pt_clust_5="13000.00000" pt_clust_6="13000.00000" pt_clust_7="13000.00000" pt_clust_8="13000.00000" pt_clust_9="23.36540" pt_clust_10="50.94233"></scales>
<clustering>
<clus scale="   23.365">  1  9  2 -1</clus>
<clus scale="   50.942">  2 10  1 -1</clus>
<clus scale="   89.349">  7  8 -1 -1</clus>
<clus scale="   91.979">  5  6 -1 -1</clus>
<clus scale="   96.320">  1  7  2 -1</clus>
<clus scale="   50.942">  2  5  1 -1</clus>
</clustering>
</event>
<event>
10    2  0.1133532E-006  0.2189294E+03  0.7546771E-02  0.1168727E+00
         -2   -1    0    0    0  501 -0.00000000000E+00  0.00000000000E+00  0.78943031436E+02  0.78943031436E+02  0.00000000000E+00 0.  1.
          2   -1    0    0  503    0  0.00000000000E+00 -0.00000000000E+00 -0.11705191763E+04  0.11705191763E+04  0.00000000000E+00 0. -1.
         23    2    1    2    0    0  0.77207962698E+02 -0.19879209059E+03 -0.55967081667E+03  0.60570742405E+03  0.90391900838E+02 0.  0.
         23    2    1    2    0    0 -0.30270825576E+02  0.70354509716E+01 -0.30120682228E+03  0.31633631602E+03  0.91527561930E+02 0.  0.
        -11    1    3    3    0    0  0.30178385294E+01 -0.96612106908E+02 -0.32691431440E+03  0.34090464284E+03  0.00000000000E+00 0. -1.
         11    1    3    3    0    0  0.74190124169E+02 -0.10217998369E+03 -0.23275650227E+03  0.26480278121E+03  0.00000000000E+00 0.  1.
        -11    1    4    4    0    0  0.15175594001E+02 -0.30664076535E+02 -0.15344612282E+03  0.15721417510E+03  0.00000000000E+00 0.  1.
         11    1    4    4    0    0 -0.45446419577E+02  0.37699527506E+02 -0.14776069946E+03  0.15912214092E+03  0.00000000000E+00 0. -1.
         21    1    1    2  502  501 -0.37360517460E+02 -0.26700838392E+01 -0.42618953263E+02  0.56738988270E+02  0.00000000000E+00 0. -1.
         21    1    1    2  503  502 -0.95766196617E+01  0.19442672346E+03 -0.18807955266E+03  0.27067947940E+03  0.00000000000E+00 0. -1.
<scales pt_clust_5="13000.00000" pt_clust_6="13000.00000" pt_clust_7="13000.00000" pt_clust_8="13000.00000" pt_clust_9="37.45581" pt_clust_10="199.39758"></scales>
<clustering>
<clus scale="   37.456">  1  9  2 -1</clus>
<clus scale="   90.392">  5  6 -1 -1</clus>
<clus scale="   91.528">  7  8 -1 -1</clus>
<clus scale="   97.942">  2  7  1 -1</clus>
<clus scale="  199.398">  1 10  2 -1</clus>
<clus scale="   97.942">  2  5  1 -1</clus>
</clustering>
</event>
<event>
10    2  0.1133532E-006  0.1975148E+03  0.7546771E-02  0.1178701E+00
          1   -1    0    0  503    0  0.00000000000E+00  0.00000000000E+00  0.14491721843E+04  0.14491721843E+04  0.00000000000E+00 0. -1.
         -1   -1    0    0    0  501 -0.00000000000E+00 -0.00000000000E+00 -0.12624540639E+03  0.12624540639E+03  0.00000000000E+00 0.  1.
         23    2    1    2    0    0 -0.48948455814E+02 -0.15954789502E+03  0.34723102388E+03  0.39551812384E+03  0.89519384521E+02 0.  0.
         23    2    1    2    0    0  0.50116483904E+02  0.38364332222E+02  0.21650907890E+03  0.24324510176E+03  0.91151052312E+02 0.  0.
        -11    1    3    3    0    0  0.24293490177E+02 -0.44214788925E+02  0.12298616560E+03  0.13293125349E+03  0.00000000000E+00 0.  1.
         11    1    3    3    0    0 -0.73241945991E+02 -0.11533310609E+03  0.22424485828E+03  0.26258687035E+03  0.00000000000E+00 0. -1.
        -11    1    4    4    0    0  0.76437452537E+02  0.28299258055E+02  0.17529634318E+03  0.19331926983E+03  0.00000000000E+00 0.  1.
         11    1    4    4    0    0 -0.26320968634E+02  0.10065074167E+02  0.41212735718E+02  0.49925831923E+02  0.00000000000E+00 0. -1.
         21    1    1    2  502  501  0.10156480091E+03  0.14859490508E+03  0.10327608403E+02  0.18028453648E+03  0.00000000000E+00 0.  1.
         21    1    1    2  503  502 -0.10273282900E+03 -0.27411342284E+02  0.74885906676E+03  0.75636982866E+03  0.00000000000E+00 0. -1.
<scales pt_clust_5="13000.00000" pt_clust_6="13000.00000" pt_clust_7="13000.00000" pt_clust_8="13000.00000" pt_clust_9="176.06357" pt_clust_10="106.32693"></scales>
<clustering>
<clus scale="   89.519">  5  6 -1 -1</clus>
<clus scale="   91.151">  7  8 -1 -1</clus>
<clus scale="  106.327">  1 10  2 -1</clus>
<clus scale="  106.327">  1  7  2 -1</clus>
<clus scale="  176.064">  2  9  1 -1</clus>
<clus scale="  106.327">  1  5  2 -1</clus>
</clustering>
</event>
<event>
10    2  0.1133532E-006  0.1136777E+03  0.7546771E-02  0.1255446E+00
         -3   -1    0    0    0  501 -0.00000000000E+00  0.00000000000E+00  0.27544138941E+03  0.27544138941E+03  0.00000000000E+00 0.  1.
          3   -1    0    0  503    0  0.00000000000E+00 -0.00000000000E+00 -0.11820771842E+03  0.11820771842E+03  0.00000000000E+00 0. -1.
         23    2    1    2    0    0  0.20523563340E+02 -0.51829482365E+02  0.17166511886E+03  0.19953304363E+03  0.85070621097E+02 0.  0.
         23    2    1    2    0    0 -0.47408249305E+02  0.46180828515E+02 -0.45619066881E+02  0.12026275926E+03  0.89452898089E+02 0.  0.
        -13    1    3    3    0    0  0.27965716946E+02  0.12273507280E+02  0.92419834933E+02  0.97335225866E+02  0.00000000000E+00 0.  1.
         13    1    3    3    0    0 -0.74421536062E+01 -0.64102989645E+02  0.79245283927E+02  0.10219781777E+03  0.00000000000E+00 0. -1.
        -13    1    4    4    0    0 -0.24790225848E+02  0.27120844745E+02 -0.71868536063E+02  0.80716677292E+02  0.00000000000E+00 0. -1.
         13    1    4    4    0    0 -0.22618023457E+02  0.19059983770E+02  0.26249469182E+02  0.39546081965E+02  0.00000000000E+00 0.  1.
         21    1    1    2  502  501  0.44738495937E+01 -0.23065321737E+02  0.29055722169E+02  0.37366554401E+02  0.00000000000E+00 0.  1.
         21    1    1    2  503  502  0.22410836371E+02  0.28713975587E+02  0.21318968474E+01  0.36486750541E+02  0.00000000000E+00 0.  1.
<scales pt_clust_5="13000.00000" pt_clust_6="13000.00000" pt_clust_7="13000.00000" pt_clust_8="13000.00000" pt_clust_9="23.49520" pt_clust_10="35.22273"></scales>
<clustering>
<clus scale="   23.495">  1  9  2 -1</clus>
<clus scale="   35.223">  2 10  1 -1</clus>
<clus scale="   85.071">  5  6 -1 -1</clus>
<clus scale="   89.453">  7  8 -1 -1</clus>
<clus scale="  110.262">  1  5  2 -1</clus>
<clus scale="   35.223">  2  5  1 -1</clus>
</clustering>
</event>
<event>
10    2  0.1133532E-006  0.5650780E+03  0.7546771E-02  0.9981628E-01
          2   -1    0    0  503    0  0.00000000000E+00  0.00000000000E+00  0.16726563594E+04  0.16726563594E+04  0.00000000000E+00 0. -1.
         -2   -1    0    0    0  501 -0.00000000000E+00 -0.00000000000E+00 -0.58513864561E+03  0.58513864561E+03  0.00000000000E+00 0.  1.
         23    2    1    2    0    0  0.60629475998E+03 -0.24889134768E+03 -0.10433896533E+03  0.67146853560E+03  0.10219166158E+03 0.  0.
         23    2    1    2    0    0 -0.39210062092E+03  0.19864272862E+03  0.20608784417E+03  0.49407187250E+03  0.91831286176E+02 0.  0.
        -11    1    3    3    0    0  0.21497518978E+02  0.92581870955E+01  0.18017553628E+01  0.23475597391E+02  0.00000000000E+00 0. -1.
         11    1    3    3    0    0  0.58479724100E+03 -0.25814953478E+03 -0.10614072069E+03  0.64799293821E+03  0.00000000000E+00 0.  1.
        -11    1    4    4    0    0 -0.27597224247E+03  0.18416125344E+03  0.14531449007E+03  0.36220484108E+03  0.00000000000E+00 0. -1.
         11    1    4    4    0    0 -0.11612837846E+03  0.14481475180E+02  0.60773354098E+02  0.13186703142E+03  0.00000000000E+00 0.  1.
         21    1    1    2  502  501 -0.10416107634E+02  0.27658718386E+02 -0.38009739796E+02  0.48148108170E+02  0.00000000000E+00 0. -1.
         21    1    1    2  503  502 -0.20377803142E+03  0.22589900677E+02  0.10237785747E+04  0.10441064887E+04  0.00000000000E+00 0. -1.
<scales pt_clust_5="13000.00000" pt_clust_6="13000.00000" pt_clust_7="13000.00000" pt_clust_8="13000.00000" pt_clust_9="29.55503" pt_clust_10="205.27817"></scales>
<clustering>
<clus scale="   29.555">  2  9  1 -1</clus>
<clus scale="   91.831">  7  8 -1 -1</clus>
<clus scale="  102.192">  5  6 -1 -1</clus>
<clus scale="  205.278">  1 10  2 -1</clus>
<clus scale="  563.297">  1  7  2 -1</clus>
<clus scale="  205.278">  1  5  2 -1</clus>
</clustering>
</event>
<event>
10    2  0.1133532E-006  0.3788671E+03  0.7546771E-02  0.1051460E+00
          1   -1    0    0  503    0  0.00000000000E+00  0.00000000000E+00  0.23733145973E+03  0.23733145973E+03  0.00000000000E+00 0. -1.
         -1   -1    0    0    0  501 -0.00000000000E+00 -0.00000000000E+00 -0.12342550135E+04  0.12342550135E+04  0.00000000000E+00 0.  1.
         23    2    1    2    0    0 -0.55072911832E+02 -0.34714552260E+03 -0.82069539184E+03  0.89748472333E+03  0.91623484608E+02 0.  0.
         23    2    1    2    0    0  0.42614949819E+02  0.42217617700E+03 -0.17398991424E+03  0.46859820662E+03  0.96244639393E+02 0.  0.
        -13    1    4    4    0    0 -0.14654932904E+02  0.47247161789E+02 -0.48036926761E+02  0.68953663342E+02  0.00000000000E+00 0.  1.
         13    1    4    4    0    0  0.57269882722E+02  0.37492901521E+03 -0.12595298748E+03  0.39964454328E+03  0.00000000000E+00 0. -1.
        -13    1    3    3    0    0 -0.78276526377E+02 -0.21000009127E+03 -0.50140463572E+03  0.54921203705E+03  0.00000000000E+00 0.  1.
         13    1    3    3    0    0  0.23203614545E+02 -0.13714543133E+03 -0.31929075613E+03  0.34827268628E+03  0.00000000000E+00 0. -1.
         21    1    1    2  502  501  0.30181766169E+02 -0.51855563171E+02 -0.28340293683E+02  0.66355939349E+02  0.00000000000E+00 0. -1.
         21    1    1    2  503  502 -0.17723804156E+02 -0.23175091235E+02  0.26102046007E+02  0.39147603927E+02  0.00000000000E+00 0. -1.
<scales pt_clust_5="13000.00000" pt_clust_6="13000.00000" pt_clust_7="13000.00000" pt_clust_8="13000.00000" pt_clust_9="61.08283" pt_clust_10="29.17564"></scales>
<clustering>
<clus scale="   29.176">  1 10  2 -1</clus>
<clus scale="   61.083">  1  9  2 -1</clus>
<clus scale="   91.623">  7  8 -1 -1</clus>
<clus scale="   96.245">  5  6 -1 -1</clus>
<clus scale="  377.720">  2  7  1 -1</clus>
<clus scale="   29.176">  1  5  2 -1</clus>
</clustering>
</event>
<event>
10    2  0.1133532E-006  0.1218645E+03  0.7546771E-02  0.1240865E+00
          1   -1    0    0  503    0  0.00000000000E+00  0.00000000000E+00  0.30052637057E+03  0.30052637057E+03  0.00000000000E+00 0. -1.
         -1   -1    0    0    0  501 -0.00000000000E+00 -0.00000000000E+00 -0.41525153900E+03  0.41525153900E+03  0.00000000000E+00 0.  1.
         23    2    1    2    0    0  0.77548719727E+02  0.79543085009E+02 -0.10711114652E+03  0.18065998551E+03  0.93937885611E+02 0.  0.
         23    2    1    2    0    0 -0.36294413607E+02 -0.81202830517E+02  0.22536195921E+03  0.25892416491E+03  0.91337431398E+02 0.  0.
        -11    1    3    3    0    0  0.61553813101E+02  0.60820845826E+02 -0.12370463481E+03  0.15096649916E+03  0.00000000000E+00 0.  1.
         11    1    3    3    0    0  0.15994906625E+02  0.18722239182E+02  0.16593488295E+02  0.29693486352E+02  0.00000000000E+00 0. -1.
        -13    1    4    4    0    0 -0.67082020797E+02 -0.50355726510E+02  0.14568565506E+03  0.16810712893E+03  0.00000000000E+00 0. -1.
         13    1    4    4    0    0  0.30787607190E+02 -0.30847104006E+02  0.79676304149E+02  0.90817035983E+02  0.00000000000E+00 0.  1.
         21    1    1    2  502  501 -0.39080838044E+02 -0.20217448717E+02 -0.24649067588E+03  0.25038712114E+03  0.00000000000E+00 0.  1.
         21    1    1    2  503  502 -0.21734680761E+01  0.21877194225E+02  0.13514694760E+02  0.25806638005E+02  0.00000000000E+00 0.  1.
<scales pt_clust_5="13000.00000" pt_clust_6="13000.00000" pt_clust_7="13000.00000" pt_clust_8="13000.00000" pt_clust_9="43.94454" pt_clust_10="21.98489"></scales>
<clustering>
<clus scale="   21.985">  1 10  2 -1</clus>
<clus scale="   43.945">  2  9  1 -1</clus>
<clus scale="   91.337">  7  8 -1 -1</clus>
<clus scale="   93.938">  5  6 -1 -1</clus>
<clus scale="  119.871">  1  7  2 -1</clus>
<clus scale="   21.985">  1  5  2 -1</clus>
</clustering>
</event>
<event>
10    2  0.1133532E-006  0.2283460E+03  0.7546771E-02  0.1127879E+00
          1   -1    0    0  503    0  0.00000000000E+00  0.00000000000E+00  0.10273985493E+04  0.10273985493E+04  0.00000000000E+00 0. -1.
         -1   -1    0    0    0  501 -0.00000000000E+00 -0.00000000000E+00 -0.22190391897E+03  0.22190391897E+03  0.00000000000E+00 0.  1.
         23    2    1    2    0    0 -0.14046347951E+03  0.17519438000E+03 -0.11054071073E+03  0.26603706932E+03  0.90185440439E+02 0.  0.
         23    2    1    2    0    0  0.92927474604E+02 -0.12988812365E+03  0.58514666712E+03  0.61336295013E+03  0.91164940389E+02 0.  0.
        -11    1    3    3    0    0 -0.83942264901E+01  0.60280933331E+02 -0.55915614178E+02  0.82648713666E+02  0.00000000000E+00 0.  1.
         11    1    3    3    0    0 -0.13206925302E+03  0.11491344667E+03 -0.54625096551E+02  0.18338835566E+03  0.00000000000E+00 0. -1.
        -13    1    4    4    0    0  0.80482657735E+02 -0.34286263050E+02  0.27602296772E+03  0.28955428634E+03  0.00000000000E+00 0.  1.
         13    1    4    4    0    0  0.12444816869E+02 -0.95601860604E+02  0.30912369940E+03  0.32380866380E+03  0.00000000000E+00 0. -1.
         21    1    1    2  502  501 -0.32938585181E+02 -0.39784216852E+02  0.33015306147E+02  0.61300446526E+02  0.00000000000E+00 0.  1.
         21    1    1    2  503  502  0.80474590085E+02 -0.55220394901E+01  0.29787336776E+03  0.30860200224E+03  0.00000000000E+00 0. -1.
<scales pt_clust_5="13000.00000" pt_clust_6="13000.00000" pt_clust_7="13000.00000" pt_clust_8="13000.00000" pt_clust_9="51.65011" pt_clust_10="79.89302"></scales>
<clustering>
<clus scale="   51.650">  2  9  1 -1</clus>
<clus scale="   79.893">  1 10  2 -1</clus>
<clus scale="   90.185">  5  6 -1 -1</clus>
<clus scale="   91.165">  7  8 -1 -1</clus>
<clus scale="  227.957">  2  5  1 -1</clus>
<clus scale="   79.893">  1  5  2 -1</clus>
</clustering>
</event>
<event>
10    2  0.1133532E-006  0.1490955E+03  0.7546771E-02  0.1221308E+00
         -3   -1    0    0    0  501 -0.00000000000E+00  0.00000000000E+00  0.27723057662E+03  0.27723057662E+03  0.00000000000E+00 0.  1.
          3   -1    0    0  503    0  0.00000000000E+00 -0.00000000000E+00 -0.12093414092E+04  0.12093414092E+04  0.00000000000E+00 0. -1.
         23    2    1    2    0    0 -0.14494612409E+03 -0.30134909998E+01 -0.84922503351E+03  0.86520535854E+03  0.79866732092E+02 0.  0.
         23    2    1    2    0    0  0.23290229280E+02 -0.22245059042E+02 -0.26363633722E+03  0.28124646242E+03  0.92510415006E+02 0.  0.
        -11    1    4    4    0    0 -0.25119301215E+02  0.18645527288E+02 -0.55876400719E+02  0.64037544759E+02  0.00000000000E+00 0.  1.
         11    1    4    4    0    0  0.48409530495E+02 -0.40890586330E+02 -0.20775993650E+03  0.21720891766E+03  0.00000000000E+00 0. -1.
        -11    1    3    3    0    0 -0.37335944468E+02 -0.34469360606E+02 -0.19897568315E+03  0.20536171029E+03  0.00000000000E+00 0.  1.
         11    1    3    3    0    0 -0.10761017962E+03  0.31455869607E+02 -0.65024935036E+03  0.65984364825E+03  0.00000000000E+00 0. -1.
         21    1    1    2  502  501  0.22296517652E+02 -0.10857999374E+03  0.28701690511E+02  0.11450125230E+03  0.00000000000E+00 0.  1.
         21    1    1    2  503  502  0.99359377161E+02  0.13383854378E+03  0.15204884765E+03  0.22561891256E+03  0.00000000000E+00 0.  1.
<scales pt_clust_5="13000.00000" pt_clust_6="13000.00000" pt_clust_7="13000.00000" pt_clust_8="13000.00000" pt_clust_9="112.06103" pt_clust_10="125.89984"></scales>
<clustering>
<clus scale="   79.867">  7  8 -1 -1</clus>
<clus scale="   92.510">  5  6 -1 -1</clus>
<clus scale="   97.956">  2  5  1 -1</clus>
<clus scale="  112.061">  1  9  2 -1</clus>
<clus scale="  125.900">  1 10  2 -1</clus>
<clus scale="   97.956">  2  5  1 -1</clus>
</clustering>
</event>
<event>
10    2  0.1133532E-006  0.3268986E+03  0.7546771E-02  0.1072572E+00
         -2   -1    0    0    0  501 -0.00000000000E+00  0.00000000000E+00  0.11738995735E+03  0.11738995735E+03  0.00000000000E+00 0.  1.
          2   -1    0    0  503    0  0.00000000000E+00 -0.00000000000E+00 -0.16167352004E+04  0.16167352004E+04  0.00000000000E+00 0. -1.
         23    2    1    2    0    0  0.13981187308E+03  0.23412843354E+03 -0.41292720224E+03  0.50276595225E+03  0.88888948429E+02 0.  0.
         23    2    1    2    0    0 -0.16403263108E+03 -0.31558166585E+03 -0.71148071762E+03  0.80057721530E+03  0.90667382338E+02 0.  0.
        -11    1    4    4    0    0 -0.11186283017E+03 -0.27397186921E+03 -0.52706858050E+03  0.60446270889E+03  0.00000000000E+00 0. -1.
         11    1    4    4    0    0 -0.52169800911E+02 -0.41609796647E+02 -0.18441213713E+03  0.19611450641E+03  0.00000000000E+00 0.  1.
        -13    1    3    3    0    0  0.15003382272E+03  0.21535608078E+03 -0.35863926827E+03  0.44442155015E+03  0.00000000000E+00 0.  1.
         13    1    3    3    0    0 -0.10221949643E+02  0.18772352752E+02 -0.54287933970E+02  0.58344402106E+02  0.00000000000E+00 0. -1.
         21    1    1    2  502  501 -0.13546470063E+02  0.92938682493E+02 -0.55870040378E+02  0.10928205235E+03  0.00000000000E+00 0.  1.
         21    1    1    2  503  502  0.37767228063E+02 -0.11485450176E+02 -0.31906728277E+03  0.32149993781E+03  0.00000000000E+00 0. -1.
<scales pt_clust_5="13000.00000" pt_clust_6="13000.00000" pt_clust_7="13000.00000" pt_clust_8="13000.00000" pt_clust_9="92.87774" pt_clust_10="39.47504"></scales>
<clustering>
<clus scale="   39.475">  2 10  1 -1</clus>
<clus scale="   88.889">  7  8 -1 -1</clus>
<clus scale="   90.667">  5  6 -1 -1</clus>
<clus scale="   92.878">  1  9  2 -1</clus>
<clus scale="  326.410">  1  7  2 -1</clus>
<clus scale="   39.475">  2  5  1 -1</clus>
</clustering>
</event>
<event>
10    2  0.1133532E-006  0.2294621E+03  0.7546771E-02  0.1160166E+00
          2   -1    0    0  503    0  0.00000000000E+00  0.00000000000E+00  0.54240806867E+03  0.54240806867E+03  0.00000000000E+00 0. -1.
         -2   -1    0    0    0  501 -0.00000000000E+00 -0.00000000000E+00 -0.23129316213E+03  0.23129316213E+03  0.00000000000E+00 0.  1.
         23    2    1    2    0    0  0.18218925023E+03 -0.61463115306E+02  0.15161584254E+03  0.26580979099E+03  0.10342554731E+03 0.  0.
         23    2    1    2    0    0  0.20780986561E+02 -0.56484540520E+02  0.13593695450E+03  0.17327588439E+03  0.89013054061E+02 0.  0.
        -11    1    3    3    0    0  0.17502298969E+03 -0.84328223695E+02  0.13728356278E+03  0.23788878251E+03  0.00000000000E+00 0.  1.
         11    1    3    3    0    0  0.71662605335E+01  0.22865108389E+02  0.14332279756E+02  0.27921008482E+02  0.00000000000E+00 0. -1.
        -13    1    4    4    0    0  0.20612034648E+02 -0.21215564240E+02 -0.31871016078E+01  0.29750861417E+02  0.00000000000E+00 0.  1.
         13    1    4    4    0    0  0.16895191345E+00 -0.35268976279E+02  0.13912405611E+03  0.14352502298E+03  0.00000000000E+00 0. -1.
         21    1    1    2  502  501  0.36878248942E+01  0.60118178341E+02 -0.76889482436E+02  0.97671837951E+02  0.00000000000E+00 0. -1.
         21    1    1    2  503  502 -0.20665806168E+03  0.57829477485E+02  0.10045159194E+03  0.23694371747E+03  0.00000000000E+00 0. -1.
<scales pt_clust_5="13000.00000" pt_clust_6="13000.00000" pt_clust_7="13000.00000" pt_clust_8="13000.00000" pt_clust_9="60.23118" pt_clust_10="204.83172"></scales>
<clustering>
<clus scale="   60.231">  2  9  1 -1</clus>
<clus scale="   89.013">  7  8 -1 -1</clus>
<clus scale="  103.426">  5  6 -1 -1</clus>
<clus scale="  103.663">  1  7  2 -1</clus>
<clus scale="  204.832">  2 10  1 -1</clus>
<clus scale="  103.663">  1  5  2 -1</clus>
</clustering>
</event>
<event>
10    2  0.1133532E-006  0.1160903E+03  0.7546771E-02  0.1250695E+00
         -2   -1    0    0    0  501 -0.00000000000E+00  0.00000000000E+00  0.10313834834E+03  0.10313834834E+03  0.00000000000E+00 0.  1.
          2   -1    0    0  502    0  0.00000000000E+00 -0.00000000000E+00 -0.29590153610E+03  0.29590153610E+03  0.00000000000E+00 0. -1.
         23    2    1    2    0    0 -0.59073107829E+02  0.40820274127E+02  0.19968563283E+02  0.11978799221E+03  0.93778956641E+02 0.  0.
         23    2    1    2    0    0  0.39682243036E+02 -0.44450409395E+02 -0.13043298956E+03  0.16978648462E+03  0.90907460014E+02 0.  0.
        -11    1    3    3    0    0  0.22214308253E+02 -0.71172136910E+01 -0.10255214082E-01  0.23326601275E+02  0.00000000000E+00 0. -1.
         11    1    3    3    0    0 -0.81287416082E+02  0.47937487818E+02  0.19978818497E+02  0.96461390930E+02  0.00000000000E+00 0.  1.
        -13    1    4    4    0    0  0.47143492275E+02 -0.17043216243E+02 -0.13214132940E+03  0.14133050280E+03  0.00000000000E+00 0. -1.
         13    1    4    4    0    0 -0.74612492391E+01 -0.27407193153E+02  0.17083398402E+01  0.28455981827E+02  0.00000000000E+00 0.  1.
         21    1    1    2  502  503 -0.21289634381E+02  0.18788445179E+02 -0.27217477887E+02  0.39332496830E+02  0.00000000000E+00 0. -1.
         21    1    1    2  503  501  0.40680499174E+02 -0.15158309910E+02 -0.55081283591E+02  0.70132910780E+02  0.00000000000E+00 0. -1.
<scales pt_clust_5="13000.00000" pt_clust_6="13000.00000" pt_clust_7="13000.00000" pt_clust_8="13000.00000" pt_clust_9="28.39462" pt_clust_10="37.17238"></scales>
<clustering>
<clus scale="   28.395">  2  9  1 -1</clus>
<clus scale="   37.172">  2 10  1 -1</clus>
<clus scale="   90.907">  7  8 -1 -1</clus>
<clus scale="   93.779">  5  6 -1 -1</clus>
<clus scale="  113.783">  2  7  1 -1</clus>
<clus scale="   28.395">  2  5  1 -1</clus>
</clustering>
</event>
<event>
10    2  0.1133532E-006  0.1486754E+03  0.7546771E-02  0.1209735E+00
          1   -1    0    0  503    0  0.00000000000E+00  0.00000000000E+00  0.30188222160E+03  0.30188222160E+03  0.00000000000E+00 0. -1.
         -1   -1    0    0    0  501 -0.00000000000E+00 -0.00000000000E+00 -0.30965938563E+03  0.30965938563E+03  0.00000000000E+00 0.  1.
         23    2    1    2    0    0 -0.84429633388E+02  0.57656341657E+02 -0.14091504763E+03  0.19679565959E+03  0.91754369142E+02 0.  0.
         23    2    1    2    0    0  0.81882868433E+02  0.14425655162E+02 -0.27529182096E+02  0.14922908689E+03  0.12082450429E+03 0.  0.
        -11    1    4    4    0    0  0.62587565808E+02 -0.35447278985E+02 -0.53632595929E+02  0.89722730271E+02  0.00000000000E+00 0. -1.
         11    1    4    4    0    0  0.19295302625E+02  0.49872934146E+02  0.26103413833E+02  0.59506356614E+02  0.00000000000E+00 0.  1.
        -13    1    3    3    0    0 -0.70177789888E+02  0.37903297595E+02 -0.15073236333E+03  0.17053394828E+03  0.00000000000E+00 0.  1.
         13    1    3    3    0    0 -0.14251843500E+02  0.19753044062E+02  0.98173157033E+01  0.26261711302E+02  0.00000000000E+00 0. -1.
         21    1    1    2  502  501  0.33458395181E+01 -0.26248042738E+02 -0.46411792978E+02  0.53424796837E+02  0.00000000000E+00 0. -1.
         21    1    1    2  503  502 -0.79907456291E+00 -0.45833954081E+02  0.20707885867E+03  0.21209206391E+03  0.00000000000E+00 0. -1.
<scales pt_clust_5="13000.00000" pt_clust_6="13000.00000" pt_clust_7="13000.00000" pt_clust_8="13000.00000" pt_clust_9="26.46043" pt_clust_10="46.09364"></scales>
<clustering>
<clus scale="   26.460">  2  9  1 -1</clus>
<clus scale="   46.094">  1 10  2 -1</clus>
<clus scale="   91.754">  7  8 -1 -1</clus>
<clus scale="  120.825">  5  6 -1 -1</clus>
<clus scale="  126.193">  2  7  1 -1</clus>
<clus scale="   46.094">  1  5  2 -1</clus>
</clustering>
</event>
<event>
10    2  0.1133532E-006  0.1099646E+03  0.7546771E-02  0.1263721E+00
         -1   -1    0    0    0  501 -0.00000000000E+00  0.00000000000E+00  0.23279503903E+03  0.23279503903E+03  0.00000000000E+00 0.  1.
          1   -1    0    0  503    0  0.00000000000E+00 -0.00000000000E+00 -0.16107495426E+03  0.16107495426E+03  0.00000000000E+00 0. -1.
         23    2    1    2    0    0  0.23329088164E+02 -0.92395324787E+02  0.97075311827E+02  0.16385932982E+03  0.91351636025E+02 0.  0.
         23    2    1    2    0    0 -0.25651837116E+02  0.19773281556E+02  0.10202258234E+02  0.90119728064E+02  0.83477421512E+02 0.  0.
        -11    1    4    4    0    0 -0.41117521398E+02 -0.16126064350E+02  0.21926986965E+02  0.49310174150E+02  0.00000000000E+00 0.  1.
         11    1    4    4    0    0  0.15465684282E+02  0.35899345907E+02 -0.11724728730E+02  0.40809553914E+02  0.00000000000E+00 0. -1.
        -13    1    3    3    0    0  0.43489760387E+02 -0.59921831943E+02  0.18251274126E+02  0.76256765005E+02  0.00000000000E+00 0. -1.
         13    1    3    3    0    0 -0.20160672223E+02 -0.32473492845E+02  0.78824037701E+02  0.87602564811E+02  0.00000000000E+00 0.  1.
         21    1    1    2  502  501  0.14366879401E+01  0.20281078584E+02  0.41801818109E+02  0.46484171693E+02  0.00000000000E+00 0. -1.
         21    1    1    2  503  502  0.88606101173E+00  0.52340964647E+02 -0.77359303404E+02  0.93406763714E+02  0.00000000000E+00 0. -1.
<scales pt_clust_5="13000.00000" pt_clust_6="13000.00000" pt_clust_7="13000.00000" pt_clust_8="13000.00000" pt_clust_9="20.33190" pt_clust_10="53.21199"></scales>
<clustering>
<clus scale="   20.332">  1  9  2 -1</clus>
<clus scale="   53.212">  2 10  1 -1</clus>
<clus scale="   83.477">  5  6 -1 -1</clus>
<clus scale="   91.352">  7  8 -1 -1</clus>
<clus scale="  103.516">  2  5  1 -1</clus>
<clus scale="   53.212">  2  5  1 -1</clus>
</clustering>
</event>
<event>
10    2  0.1133532E-006  0.1614344E+03  0.7546771E-02  0.1204603E+00
          2   -1    0    0  503    0  0.00000000000E+00  0.00000000000E+00  0.16816764246E+03  0.16816764246E+03  0.00000000000E+00 0. -1.
         -2   -1    0    0    0  501 -0.00000000000E+00 -0.00000000000E+00 -0.96838920640E+03  0.96838920640E+03  0.00000000000E+00 0.  1.
         23    2    1    2    0    0  0.41899689626E+02  0.16187246338E+03 -0.59052288863E+03  0.62020845373E+03  0.89347443703E+02 0.  0.
         23    2    1    2    0    0 -0.23521120363E+02 -0.71209273775E+02  0.68466672382E+02  0.13779659616E+03  0.93146191074E+02 0.  0.
        -11    1    4    4    0    0  0.83389176868E+00 -0.81029247547E+02  0.75346124062E+02  0.11065022704E+03  0.00000000000E+00 0. -1.
         11    1    4    4    0    0 -0.24355012132E+02  0.98199737717E+01 -0.68794516799E+01  0.27146369117E+02  0.00000000000E+00 0.  1.
        -13    1    3    3    0    0  0.25708667508E+02  0.70031049550E+02 -0.41297137249E+03  0.41965538002E+03  0.00000000000E+00 0.  1.
         13    1    3    3    0    0  0.16191022118E+02  0.91841413827E+02 -0.17755151614E+03  0.20055307371E+03  0.00000000000E+00 0. -1.
         21    1    1    2  502  501 -0.22860918352E+02 -0.11058995423E+03 -0.31599112570E+03  0.33556392995E+03  0.00000000000E+00 0. -1.
         21    1    1    2  503  502  0.44823490898E+01  0.19926764623E+02  0.37825777995E+02  0.42987869017E+02  0.00000000000E+00 0. -1.
<scales pt_clust_5="13000.00000" pt_clust_6="13000.00000" pt_clust_7="13000.00000" pt_clust_8="13000.00000" pt_clust_9="134.45485" pt_clust_10="20.42468"></scales>
<clustering>
<clus scale="   20.425">  1 10  2 -1</clus>
<clus scale="   89.347">  7  8 -1 -1</clus>
<clus scale="   93.146">  5  6 -1 -1</clus>
<clus scale="  110.050">  1  5  2 -1</clus>
<clus scale="  134.455">  2  9  1 -1</clus>
<clus scale="   20.425">  1  5  2 -1</clus>
</clustering>
</event>
<event>
10    2  0.1133532E-006  0.9809099E+02  0.7546771E-02  0.1285845E+00
          1   -1    0    0  502    0  0.00000000000E+00  0.00000000000E+00  0.32809146524E+03  0.32809146524E+03  0.00000000000E+00 0. -1.
         -1   -1    0    0    0  501 -0.00000000000E+00 -0.00000000000E+00 -0.93518715036E+02  0.93518715036E+02  0.00000000000E+00 0.  1.
         23    2    1    2    0    0  0.11130500431E+02  0.54291951334E+01  0.29226550241E+02  0.99070195362E+02  0.93847472904E+02 0.  0.
         23    2    1    2    0    0 -0.45643670447E+02  0.23170626635E+02  0.34245069047E+02  0.10989312463E+03  0.91014018133E+02 0.  0.
        -11    1    3    3    0    0  0.28058319266E+01  0.29655431888E+02  0.55115280761E+02  0.62649912264E+02  0.00000000000E+00 0. -1.
         11    1    3    3    0    0  0.83246685046E+01 -0.24226236755E+02 -0.25888730520E+02  0.36420283098E+02  0.00000000000E+00 0.  1.
        -13    1    4    4    0    0  0.17003543216E+02  0.36026782832E+02  0.19058653613E+02  0.44161995433E+02  0.00000000000E+00 0.  1.
         13    1    4    4    0    0 -0.62647213663E+02 -0.12856156197E+02  0.15186415434E+02  0.65731129198E+02  0.00000000000E+00 0. -1.
         21    1    1    2  502  503  0.44447002040E+02  0.34237954826E+02  0.47001984713E+02  0.73191257046E+02  0.00000000000E+00 0.  1.
         21    1    1    2  503  501 -0.99338320250E+01 -0.62837776594E+02  0.12409914620E+03  0.13945560324E+03  0.00000000000E+00 0. -1.
<scales pt_clust_5="13000.00000" pt_clust_6="13000.00000" pt_clust_7="13000.00000" pt_clust_8="13000.00000" pt_clust_9="56.10502" pt_clust_10="47.52204"></scales>
<clustering>
<clus scale="   56.105">  1  9  2 -1</clus>
<clus scale="   47.522">  1 10  2 -1</clus>
<clus scale="   91.014">  7  8 -1 -1</clus>
<clus scale="   93.847">  5  6 -1 -1</clus>
<clus scale="   95.384">  1  7  2 -1</clus>
<clus scale="   56.105">  1  5  2 -1</clus>
</clustering>
</event>
<event>
10    2  0.1133532E-006  0.9654251E+02  0.7546771E-02  0.1293675E+00
         -2   -1    0    0    0  501 -0.00000000000E+00  0.00000000000E+00  0.19826505772E+03  0.19826505772E+03  0.00000000000E+00 0.  1.
          2   -1    0    0  503    0  0.00000000000E+00 -0.00000000000E+00 -0.25172805955E+03  0.25172805955E+03  0.00000000000E+00 0. -1.
         23    2    1    2    0    0  0.16859661023E+01  0.52439090186E+01  0.37436900958E+02  0.10154543789E+03  0.94231700292E+02 0.  0.
         23    2    1    2    0    0 -0.17626804602E+02  0.10738233911E+02 -0.18359764874E+03  0.20287283026E+03  0.83804980319E+02 0.  0.
        -11    1    4    4    0    0  0.26598708841E+02 -0.18300177710E+02 -0.54358454753E+02  0.63223646046E+02  0.00000000000E+00 0.  1.
         11    1    4    4    0    0 -0.44225513443E+02  0.29038411621E+02 -0.12923919398E+03  0.13964918421E+03  0.00000000000E+00 0. -1.
        -13    1    3    3    0    0  0.29967694700E+02 -0.22438354306E+01 -0.20680362625E+02  0.36479787847E+02  0.00000000000E+00 0. -1.
         13    1    3    3    0    0 -0.28281728598E+02  0.74877444492E+01  0.58117263583E+02  0.65065650045E+02  0.00000000000E+00 0.  1.
         21    1    1    2  502  501  0.23359653657E+02  0.54678198947E+01  0.11275904494E+03  0.11528301128E+03  0.00000000000E+00 0.  1.
         21    1    1    2  503  502 -0.74188151576E+01 -0.21449962825E+02 -0.20061298987E+02  0.30291837854E+02  0.00000000000E+00 0. -1.
<scales pt_clust_5="13000.00000" pt_clust_6="13000.00000" pt_clust_7="13000.00000" pt_clust_8="13000.00000" pt_clust_9="23.92382" pt_clust_10="22.69669"></scales>
<clustering>
<clus scale="   22.697">  2 10  1 -1</clus>
<clus scale="   23.924">  1  9  2 -1</clus>
<clus scale="   83.805">  5  6 -1 -1</clus>
<clus scale="   86.395">  2  5  1 -1</clus>
<clus scale="   94.232">  7  8 -1 -1</clus>
<clus scale="   22.697">  2  5  1 -1</clus>
</clustering>
</event>
<event>
10    2  0.1133532E-006  0.1417952E+03  0.7546771E-02  0.1211265E+00
         -1   -1    0    0    0  501 -0.00000000000E+00  0.00000000000E+00  0.14827781373E+03  0.14827781373E+03  0.00000000000E+00 0.  1.
          1   -1    0    0  503    0  0.00000000000E+00 -0.00000000000E+00 -0.77834690382E+03  0.77834690382E+03  0.00000000000E+00 0. -1.
         23    2    1    2    0    0  0.15970913493E+01  0.12500615114E+03  0.60565638028E+02  0.16670233134E+03  0.92154122220E+02 0.  0.
         23    2    1    2    0    0  0.45352637929E+02 -0.91221773756E+02 -0.55085849241E+03  0.56748024921E+03  0.90611703473E+02 0.  0.
        -11    1    4    4    0    0 -0.23484707983E+02 -0.36511817928E+02 -0.26073909502E+03  0.26432843213E+03  0.00000000000E+00 0.  1.
         11    1    4    4    0    0  0.68837345912E+02 -0.54709955828E+02 -0.29011939738E+03  0.30315181708E+03  0.00000000000E+00 0. -1.
        -13    1    3    3    0    0  0.30299469123E+02  0.11228640662E+03  0.67610776167E+02  0.13452699355E+03  0.00000000000E+00 0.  1.
         13    1    3    3    0    0 -0.28702377774E+02  0.12719744522E+02 -0.70451381391E+01  0.32175337791E+02  0.00000000000E+00 0. -1.
         21    1    1    2  502  501 -0.88645315254E+01 -0.17937666668E+02  0.19483124243E+02  0.27927261500E+02  0.00000000000E+00 0.  1.
         21    1    1    2  503  502 -0.38085197753E+02 -0.15846710716E+02 -0.15925935995E+03  0.16451487550E+03  0.00000000000E+00 0.  1.
<scales pt_clust_5="13000.00000" pt_clust_6="13000.00000" pt_clust_7="13000.00000" pt_clust_8="13000.00000" pt_clust_9="20.00849" pt_clust_10="41.56939"></scales>
<clustering>
<clus scale="   20.008">  1  9  2 -1</clus>
<clus scale="   41.569">  2 10  1 -1</clus>
<clus scale="   90.612">  5  6 -1 -1</clus>
<clus scale="   92.154">  7  8 -1 -1</clus>
<clus scale="  140.798">  2  5  1 -1</clus>
<clus scale="   41.569">  2  5  1 -1</clus>
</clustering>
</event>
<event>
10    2  0.1133532E-006  0.9632582E+02  0.7546771E-02  0.1289981E+00
          3   -1    0    0  503    0  0.00000000000E+00  0.00000000000E+00  0.33572105280E+03  0.33572105280E+03  0.00000000000E+00 0. -1.
         -3   -1    0    0    0  501 -0.00000000000E+00 -0.00000000000E+00 -0.15433370805E+03  0.15433370805E+03  0.00000000000E+00 0.  1.
         23    2    1    2    0    0 -0.22876779845E+02 -0.35503451830E+01 -0.84236899053E+02  0.12648767859E+03  0.91473087108E+02 0.  0.
         23    2    1    2    0    0  0.33828531491E+02  0.38286023133E+02  0.18533620790E+03  0.21150173692E+03  0.88166238722E+02 0.  0.
        -11    1    4    4    0    0 -0.26445203785E+02 -0.38023561474E+01  0.67733632201E+02  0.72812441565E+02  0.00000000000E+00 0.  1.
         11    1    4    4    0    0  0.60273735275E+02  0.42088379280E+02  0.11760257570E+03  0.13868929536E+03  0.00000000000E+00 0. -1.
        -13    1    3    3    0    0 -0.28413058007E+02 -0.44475458799E+02 -0.52082571792E+02  0.74148247351E+02  0.00000000000E+00 0.  1.
         13    1    3    3    0    0  0.55362781628E+01  0.40925113616E+02 -0.32154327261E+02  0.52339431235E+02  0.00000000000E+00 0. -1.
         21    1    1    2  502  501  0.26622695093E+02 -0.29154245293E+02 -0.20407264816E+02  0.44443158865E+02  0.00000000000E+00 0.  1.
         21    1    1    2  503  502 -0.37574446739E+02 -0.55814326567E+01  0.10069530071E+03  0.10762218648E+03  0.00000000000E+00 0. -1.
<scales pt_clust_5="13000.00000" pt_clust_6="13000.00000" pt_clust_7="13000.00000" pt_clust_8="13000.00000" pt_clust_9="38.41460" pt_clust_10="37.98673"></scales>
<clustering>
<clus scale="   37.987">  1 10  2 -1</clus>
<clus scale="   38.415">  2  9  1 -1</clus>
<clus scale="   88.166">  5  6 -1 -1</clus>
<clus scale="   91.473">  7  8 -1 -1</clus>
<clus scale="   93.191">  1  5  2 -1</clus>
<clus scale="   37.987">  1  5  2 -1</clus>
</clustering>
</event>
<event>
10    2  0.1133532E-006  0.1132584E+03  0.7546771E-02  0.1254829E+00
          2   -1    0    0  503    0  0.00000000000E+00  0.00000000000E+00  0.80445821008E+03  0.80445821008E+03  0.00000000000E+00 0. -1.
         -2   -1    0    0    0  501 -0.00000000000E+00 -0.00000000000E+00 -0.26923081243E+02  0.26923081243E+02  0.00000000000E+00 0.  1.
         23    2    1    2    0    0  0.58068100576E+02  0.11552203912E+02  0.20937578538E+03  0.23602478807E+03  0.91455581357E+02 0.  0.
         23    2    1    2    0    0 -0.50451649335E+02 -0.50178181020E+02  0.47218233963E+03  0.48628502044E+03  0.91944224776E+02 0.  0.
        -11    1    3    3    0    0  0.81310952399E+02 -0.10185792613E+01  0.14172988370E+03  0.16340094375E+03  0.00000000000E+00 0.  1.
         11    1    3    3    0    0 -0.23242851823E+02  0.12570783173E+02  0.67645901679E+02  0.72623844324E+02  0.00000000000E+00 0. -1.
        -13    1    4    4    0    0 -0.45299550858E+02 -0.75930687014E+02  0.39437891229E+03  0.40416858487E+03  0.00000000000E+00 0. -1.
         13    1    4    4    0    0 -0.51520984775E+01  0.25752505994E+02  0.77803427342E+02  0.82116435564E+02  0.00000000000E+00 0.  1.
         21    1    1    2  502  501  0.95408450944E+01  0.24870721242E+02  0.33268277527E+02  0.42618761007E+02  0.00000000000E+00 0.  1.
         21    1    1    2  503  502 -0.17157296335E+02  0.13755255866E+02  0.62708726298E+02  0.66452721806E+02  0.00000000000E+00 0. -1.
<scales pt_clust_5="13000.00000" pt_clust_6="13000.00000" pt_clust_7="13000.00000" pt_clust_8="13000.00000" pt_clust_9="27.00280" pt_clust_10="21.99045"></scales>
<clustering>
<clus scale="   21.990">  1 10  2 -1</clus>
<clus scale="   27.003">  2  9  1 -1</clus>
<clus scale="   91.456">  5  6 -1 -1</clus>
<clus scale="   91.944">  7  8 -1 -1</clus>
<clus scale="  112.862">  2  5  1 -1</clus>
<clus scale="   21.990">  1  5  2 -1</clus>
</clustering>
</event>
<event>
10    2  0.1133532E-006  0.1432905E+03  0.7546771E-02  0.1209177E+00
          2   -1    0    0  503    0  0.00000000000E+00  0.00000000000E+00  0.25339273843E+03  0.25339273843E+03  0.00000000000E+00 0. -1.
         -2   -1    0    0    0  501 -0.00000000000E+00 -0.00000000000E+00 -0.15991192020E+03  0.15991192020E+03  0.00000000000E+00 0.  1.
         23    2    1    2    0    0 -0.10089449965E+03 -0.90131026814E+02  0.61190448189E+02  0.17546323673E+03  0.93486760775E+02 0.  0.
         23    2    1    2    0    0  0.57265831829E+02  0.72866725115E+02  0.85170693135E+02  0.15620622164E+03  0.92506224586E+02 0.  0.
        -11    1    3    3    0    0 -0.10310411629E+03 -0.66357909488E+02  0.78839983137E+02  0.14577233582E+03  0.00000000000E+00 0.  1.
         11    1    3    3    0    0  0.22096166460E+01 -0.23773117326E+02 -0.17649534948E+02  0.29690900913E+02  0.00000000000E+00 0. -1.
        -11    1    4    4    0    0  0.82468267259E+02  0.58154161515E+02  0.73198446298E+02  0.12466328307E+03  0.00000000000E+00 0.  1.
         11    1    4    4    0    0 -0.25202435431E+02  0.14712563600E+02  0.11972246837E+02  0.31542938570E+02  0.00000000000E+00 0. -1.
         21    1    1    2  502  501  0.22309820872E+02 -0.20840899302E+00 -0.48946611093E+02  0.53791656222E+02  0.00000000000E+00 0.  1.
         21    1    1    2  503  502  0.21318846947E+02  0.17472710692E+02 -0.39337120027E+01  0.27843544031E+02  0.00000000000E+00 0.  1.
<scales pt_clust_5="13000.00000" pt_clust_6="13000.00000" pt_clust_7="13000.00000" pt_clust_8="13000.00000" pt_clust_9="22.31079" pt_clust_10="30.14353"></scales>
<clustering>
<clus scale="   22.311">  2  9  1 -1</clus>
<clus scale="   30.144">  2 10  1 -1</clus>
<clus scale="   92.506">  7  8 -1 -1</clus>
<clus scale="   93.487">  5  6 -1 -1</clus>
<clus scale="  142.653">  1  7  2 -1</clus>
<clus scale="  142.653">  1  5  2 -1</clus>
</clustering>
</event>
<event>
10    2  0.1133532E-006  0.3118576E+03  0.7546771E-02  0.1079589E+00
         -1   -1    0    0    0  501 -0.00000000000E+00  0.00000000000E+00  0.12412702535E+03  0.12412702535E+03  0.00000000000E+00 0.  1.
          1   -1    0    0  503    0  0.00000000000E+00 -0.00000000000E+00 -0.17734461003E+04  0.17734461003E+04  0.00000000000E+00 0. -1.
         23    2    1    2    0    0  0.29847937779E+03  0.11900848059E+03 -0.48880842578E+03  0.59150625940E+03  0.87709864753E+02 0.  0.
         23    2    1    2    0    0 -0.26528985942E+03 -0.41876495821E+02 -0.73508046213E+03  0.78794055093E+03  0.91513253638E+02 0.  0.
        -11    1    4    4    0    0 -0.21761809987E+03  0.36665284092E+01 -0.55282938494E+03  0.59413080182E+03  0.00000000000E+00 0. -1.
         11    1    4    4    0    0 -0.47671759551E+02 -0.45543024230E+02 -0.18225107719E+03  0.19380974911E+03  0.00000000000E+00 0.  1.
        -13    1    3    3    0    0  0.26096420763E+03  0.11811468715E+03 -0.37641235998E+03  0.47301127019E+03  0.00000000000E+00 0.  1.
         13    1    3    3    0    0  0.37515170156E+02  0.89379343913E+00 -0.11239606580E+03  0.11849498921E+03  0.00000000000E+00 0. -1.
         21    1    1    2  502  501  0.99685323367E+01 -0.23404024928E+02  0.40118865416E+02  0.47504140684E+02  0.00000000000E+00 0.  1.
         21    1    1    2  503  502 -0.43158050705E+02 -0.53727959836E+02 -0.46554905243E+03  0.47062217461E+03  0.00000000000E+00 0. -1.
<scales pt_clust_5="13000.00000" pt_clust_6="13000.00000" pt_clust_7="13000.00000" pt_clust_8="13000.00000" pt_clust_9="25.43855" pt_clust_10="69.29797"></scales>
<clustering>
<clus scale="   25.439">  1  9  2 -1</clus>
<clus scale="   69.298">  2 10  1 -1</clus>
<clus scale="   87.710">  7  8 -1 -1</clus>
<clus scale="   91.513">  5  6 -1 -1</clus>
<clus scale="  310.763">  1  7  2 -1</clus>
<clus scale="   69.298">  2  5  1 -1</clus>
</clustering>
</event>
<event>
10    2  0.1133532E-006  0.1037199E+03  0.7546771E-02  0.1272968E+00
          2   -1    0    0  503    0  0.00000000000E+00  0.00000000000E+00  0.17742281671E+03  0.17742281671E+03  0.00000000000E+00 0. -1.
         -2   -1    0    0    0  501 -0.00000000000E+00 -0.00000000000E+00 -0.12954785101E+03  0.12954785101E+03  0.00000000000E+00 0.  1.
         23    2    1    2    0    0 -0.38762370245E+02 -0.48299734385E+02 -0.23291023576E+02  0.11121731270E+03  0.89394816267E+02 0.  0.
         23    2    1    2    0    0  0.23614812351E+02  0.16726895071E+02  0.60766716763E+02  0.11245945676E+03  0.90094878701E+02 0.  0.
        -13    1    3    3    0    0 -0.55731339728E+01  0.26369701917E+02 -0.76937592188E+01  0.28028823243E+02  0.00000000000E+00 0. -1.
         13    1    3    3    0    0 -0.33189236272E+02 -0.74669436302E+02 -0.15597264357E+02  0.83188489453E+02  0.00000000000E+00 0.  1.
        -13    1    4    4    0    0 -0.24519480854E+02 -0.62884050581E+01 -0.69496613533E+01  0.26249700426E+02  0.00000000000E+00 0.  1.
         13    1    4    4    0    0  0.48134293205E+02  0.23015300130E+02  0.67716378116E+02  0.86209756336E+02  0.00000000000E+00 0. -1.
         21    1    1    2  502  501 -0.22554145353E+02  0.15914029295E+02 -0.18541060593E+02  0.33252319151E+02  0.00000000000E+00 0.  1.
         21    1    1    2  503  502  0.37701703247E+02  0.15658810019E+02  0.28940333109E+02  0.50041579106E+02  0.00000000000E+00 0.  1.
<scales pt_clust_5="13000.00000" pt_clust_6="13000.00000" pt_clust_7="13000.00000" pt_clust_8="13000.00000" pt_clust_9="27.60337" pt_clust_10="39.39712"></scales>
<clustering>
<clus scale="   27.603">  2  9  1 -1</clus>
<clus scale="   39.397">  1 10  2 -1</clus>
<clus scale="   89.395">  5  6 -1 -1</clus>
<clus scale="   90.095">  7  8 -1 -1</clus>
<clus scale="  103.112">  2  5  1 -1</clus>
<clus scale="   39.397">  1  5  2 -1</clus>
</clustering>
</event>
<event>
10    2  0.1133532E-006  0.1343654E+03  0.7546771E-02  0.1221259E+00
          2   -1    0    0  503    0  0.00000000000E+00  0.00000000000E+00  0.14549081720E+03  0.14549081720E+03  0.00000000000E+00 0. -1.
         -2   -1    0    0    0  501 -0.00000000000E+00 -0.00000000000E+00 -0.62996404430E+03  0.62996404430E+03  0.00000000000E+00 0.  1.
         23    2    1    2    0    0 -0.33356369037E+02 -0.68685991289E+02 -0.37829415441E+03  0.39640618569E+03  0.90559284673E+02 0.  0.
         23    2    1    2    0    0  0.10437037573E+03  0.59932064451E+02 -0.27962634049E+01  0.15099739888E+03  0.91144762330E+02 0.  0.
        -11    1    3    3    0    0  0.20356367643E+01  0.21369195531E+02 -0.78639962317E+02  0.81517053479E+02  0.00000000000E+00 0. -1.
         11    1    3    3    0    0 -0.35392005802E+02 -0.90055186820E+02 -0.29965419209E+03  0.31488913221E+03  0.00000000000E+00 0.  1.
        -13    1    4    4    0    0  0.30017870004E+01  0.47304520298E+02 -0.10522383440E+02  0.48553567522E+02  0.00000000000E+00 0.  1.
         13    1    4    4    0    0  0.10136858873E+03  0.12627544153E+02  0.77261200356E+01  0.10244383136E+03  0.00000000000E+00 0. -1.
         21    1    1    2  502  501 -0.37765585033E+02 -0.35001270786E+01 -0.15825270534E+03  0.16273416682E+03  0.00000000000E+00 0.  1.
         21    1    1    2  503  502 -0.33248421663E+02  0.12254053916E+02  0.54869896048E+02  0.65317110107E+02  0.00000000000E+00 0.  1.
<scales pt_clust_5="13000.00000" pt_clust_6="13000.00000" pt_clust_7="13000.00000" pt_clust_8="13000.00000" pt_clust_9="38.76851" pt_clust_10="35.43472"></scales>
<clustering>
<clus scale="   35.435">  1 10  2 -1</clus>
<clus scale="   38.769">  2  9  1 -1</clus>
<clus scale="   90.559">  5  6 -1 -1</clus>
<clus scale="   91.145">  7  8 -1 -1</clus>
<clus scale="  133.969">  2  5  1 -1</clus>
<clus scale="   35.435">  1  5  2 -1</clus>
</clustering>
</event>
<event>
10    2  0.1133532E-006  0.1104193E+03  0.7546771E-02  0.1260270E+00
          1   -1    0    0  503    0  0.00000000000E+00  0.00000000000E+00  0.41950761571E+03  0.41950761571E+03  0.00000000000E+00 0. -1.
         -1   -1    0    0    0  501 -0.00000000000E+00 -0.00000000000E+00 -0.10206397747E+03  0.10206397747E+03  0.00000000000E+00 0.  1.
         23    2    1    2    0    0  0.14538915064E+02 -0.35603273655E+02 -0.25595182786E+02  0.10210651685E+03  0.91058521043E+02 0.  0.
         23    2    1    2    0    0 -0.22033446726E+02  0.84932472203E+02  0.13250428567E+03  0.18377529135E+03  0.92287455157E+02 0.  0.
        -13    1    4    4    0    0 -0.54163773394E+02  0.36369528107E+02  0.92237761544E+02  0.11297903158E+03  0.00000000000E+00 0.  1.
         13    1    4    4    0    0  0.32130326668E+02  0.48562944097E+02  0.40266524125E+02  0.70796259762E+02  0.00000000000E+00 0. -1.
        -13    1    3    3    0    0 -0.17693953127E+02  0.12842539608E+02 -0.36841774217E+02  0.42840671426E+02  0.00000000000E+00 0.  1.
         13    1    3    3    0    0  0.32232868190E+02 -0.48445813264E+02  0.11246591430E+02  0.59265845420E+02  0.00000000000E+00 0. -1.
         21    1    1    2  502  501  0.11284741968E+02 -0.18564037619E+02 -0.11427722866E+01  0.21754880430E+02  0.00000000000E+00 0. -1.
         21    1    1    2  503  502 -0.37902103061E+01 -0.30765160929E+02  0.21167730764E+03  0.21393490456E+03  0.00000000000E+00 0. -1.
<scales pt_clust_5="13000.00000" pt_clust_6="13000.00000" pt_clust_7="13000.00000" pt_clust_8="13000.00000" pt_clust_9="21.72485" pt_clust_10="31.21054"></scales>
<clustering>
<clus scale="   21.725">  2  9  1 -1</clus>
<clus scale="   31.211">  1 10  2 -1</clus>
<clus scale="   91.059">  7  8 -1 -1</clus>
<clus scale="   92.287">  5  6 -1 -1</clus>
<clus scale="  109.394">  2  7  1 -1</clus>
<clus scale="   31.211">  1  5  2 -1</clus>
</clustering>
</event>
<event>
10    2  0.1133532E-006  0.9830375E+02  0.7546771E-02  0.1285503E+00
         -1   -1    0    0    0  501 -0.00000000000E+00  0.00000000000E+00  0.33958271771E+03  0.33958271771E+03  0.00000000000E+00 0.  1.
          1   -1    0    0  503    0  0.00000000000E+00 -0.00000000000E+00 -0.96285906222E+02  0.96285906222E+02  0.00000000000E+00 0. -1.
         23    2    1    2    0    0 -0.60689190360E+02  0.14848209826E+02  0.14157968028E+03  0.17897554159E+03  0.89909907462E+02 0.  0.
         23    2    1    2    0    0  0.12813824301E+02  0.89544645484E+01 -0.29860752563E+02  0.98925480946E+02  0.93006503580E+02 0.  0.
        -11    1    3    3    0    0 -0.59933184210E+02 -0.28334406990E+02  0.84938822280E+02  0.10774705898E+03  0.00000000000E+00 0.  1.
         11    1    3    3    0    0 -0.75600614940E+00  0.43182616816E+02  0.56640857999E+02  0.71228482612E+02  0.00000000000E+00 0. -1.
        -11    1    4    4    0    0  0.41082583746E+02 -0.14874765501E+02 -0.41402940205E+02  0.60193361706E+02  0.00000000000E+00 0. -1.
         11    1    4    4    0    0 -0.28268759444E+02  0.23829230049E+02  0.11542187641E+02  0.38732119240E+02  0.00000000000E+00 0.  1.
         21    1    1    2  502  501  0.39709606451E+02  0.64374202649E+01  0.11641066445E+03  0.12316548227E+03  0.00000000000E+00 0. -1.
         21    1    1    2  503  502  0.81657596076E+01 -0.30240094639E+02  0.15167219327E+02  0.34802119129E+02  0.00000000000E+00 0. -1.
<scales pt_clust_5="13000.00000" pt_clust_6="13000.00000" pt_clust_7="13000.00000" pt_clust_8="13000.00000" pt_clust_9="40.37219" pt_clust_10="31.32320"></scales>
<clustering>
<clus scale="   31.323">  2 10  1 -1</clus>
<clus scale="   40.372">  1  9  2 -1</clus>
<clus scale="   89.910">  5  6 -1 -1</clus>
<clus scale="   93.007">  7  8 -1 -1</clus>
<clus scale="   95.379">  1  5  2 -1</clus>
<clus scale="   31.323">  2  5  1 -1</clus>
</clustering>
</event>
<event>
10    2  0.1133532E-006  0.1913593E+03  0.7546771E-02  0.1157731E+00
         -2   -1    0    0    0  501 -0.00000000000E+00  0.00000000000E+00  0.25646958042E+03  0.25646958042E+03  0.00000000000E+00 0.  1.
          2   -1    0    0  503    0  0.00000000000E+00 -0.00000000000E+00 -0.39816745512E+03  0.39816745512E+03  0.00000000000E+00 0. -1.
         23    2    1    2    0    0 -0.35818215939E+02  0.16888898929E+03 -0.66708789571E+02  0.20621937146E+03  0.90939162418E+02 0.  0.
         23    2    1    2    0    0  0.87921778447E+02 -0.15417361390E+03 -0.15590032617E+03  0.25148523903E+03  0.86256428169E+02 0.  0.
        -11    1    3    3    0    0  0.14153968168E+02  0.11150252867E+03 -0.65551146984E+02  0.13011572382E+03  0.00000000000E+00 0.  1.
         11    1    3    3    0    0 -0.49972184107E+02  0.57386460622E+02 -0.11576425867E+01  0.76103647636E+02  0.00000000000E+00 0. -1.
        -11    1    4    4    0    0 -0.56808983138E+01 -0.71637646242E+02 -0.47101618221E+02  0.85923148242E+02  0.00000000000E+00 0.  1.
         11    1    4    4    0    0  0.93602676760E+02 -0.82535967659E+02 -0.10879870795E+03  0.16556209079E+03  0.00000000000E+00 0. -1.
         21    1    1    2  502  501  0.11521678890E+01 -0.20496275516E+02  0.12554116702E+03  0.12720852730E+03  0.00000000000E+00 0. -1.
         21    1    1    2  503  502 -0.53255730397E+02  0.57809001244E+01 -0.44629925977E+02  0.69723897762E+02  0.00000000000E+00 0. -1.
<scales pt_clust_5="13000.00000" pt_clust_6="13000.00000" pt_clust_7="13000.00000" pt_clust_8="13000.00000" pt_clust_9="20.52863" pt_clust_10="53.28059"></scales>
<clustering>
<clus scale="   20.529">  1  9  2 -1</clus>
<clus scale="   53.281">  2 10  1 -1</clus>
<clus scale="   86.256">  7  8 -1 -1</clus>
<clus scale="   90.939">  5  6 -1 -1</clus>
<clus scale="  189.179">  2  7  1 -1</clus>
<clus scale="   53.281">  2  5  1 -1</clus>
</clustering>
</event>
<event>
10    2  0.1133532E-006  0.1619343E+03  0.7546771E-02  0.1188508E+00
         -2   -1    0    0    0  501 -0.00000000000E+00  0.00000000000E+00  0.22176260515E+03  0.22176260515E+03  0.00000000000E+00 0.  1.
          2   -1    0    0  503    0  0.00000000000E+00 -0.00000000000E+00 -0.21830626948E+03  0.21830626948E+03  0.00000000000E+00 0. -1.
         23    2    1    2    0    0  0.69242573491E+02  0.12196138385E+03  0.21418072628E+02  0.17487223276E+03  0.10223722815E+03 0.  0.
         23    2    1    2    0    0 -0.79740212144E+02 -0.83461562699E+02 -0.78130792955E+02  0.16636520939E+03  0.90821958842E+02 0.  0.
        -11    1    4    4    0    0 -0.95426136831E+02 -0.66763810150E+02 -0.82912450127E+02  0.14296163234E+03  0.00000000000E+00 0.  1.
         11    1    4    4    0    0  0.15685924687E+02 -0.16697752548E+02  0.47816571716E+01  0.23403577050E+02  0.00000000000E+00 0. -1.
        -13    1    3    3    0    0  0.62480826451E+02  0.36072129988E+02  0.45648578357E+02  0.85374732456E+02  0.00000000000E+00 0.  1.
         13    1    3    3    0    0  0.67617470399E+01  0.85889253863E+02 -0.24230505729E+02  0.89497500300E+02  0.00000000000E+00 0. -1.
         21    1    1    2  502  501  0.16953135790E+01 -0.20141539431E+02  0.72340419828E+02  0.75111197832E+02  0.00000000000E+00 0. -1.
         21    1    1    2  503  502  0.88023250734E+01 -0.18358281722E+02 -0.12171363827E+02  0.23720234651E+02  0.00000000000E+00 0. -1.
<scales pt_clust_5="13000.00000" pt_clust_6="13000.00000" pt_clust_7="13000.00000" pt_clust_8="13000.00000" pt_clust_9="20.21276" pt_clust_10="21.09834"></scales>
<clustering>
<clus scale="   20.213">  1  9  2 -1</clus>
<clus scale="   21.098">  2 10  1 -1</clus>
<clus scale="   90.822">  5  6 -1 -1</clus>
<clus scale="  102.237">  7  8 -1 -1</clus>
<clus scale="  154.980">  2  5  1 -1</clus>
<clus scale="   21.098">  2  5  1 -1</clus>
</clustering>
</event>
<event>
10    2  0.1133532E-006  0.3184628E+03  0.7546771E-02  0.1076477E+00
          2   -1    0    0  503    0  0.00000000000E+00  0.00000000000E+00  0.12492613950E+04  0.12492613950E+04  0.00000000000E+00 0. -1.
         -2   -1    0    0    0  501 -0.00000000000E+00 -0.00000000000E+00 -0.39321211794E+03  0.39321211794E+03  0.00000000000E+00 0.  1.
         23    2    1    2    0    0  0.63950854909E+02  0.25954253044E+03  0.41608312092E+02  0.28640575231E+03  0.94047681346E+02 0.  0.
         23    2    1    2    0    0 -0.13415046967E+03 -0.35415656468E+03  0.54391808272E+03  0.66893010704E+03  0.90539419974E+02 0.  0.
        -11    1    3    3    0    0 -0.12899710915E+01  0.18210801984E+03  0.26901436471E+02  0.18408878890E+03  0.00000000000E+00 0.  1.
         11    1    3    3    0    0  0.65240826000E+02  0.77434510602E+02  0.14706875621E+02  0.10231696340E+03  0.00000000000E+00 0. -1.
        -13    1    4    4    0    0  0.13051454165E+02 -0.32840766006E+02  0.39295374384E+02  0.52848678466E+02  0.00000000000E+00 0.  1.
         13    1    4    4    0    0 -0.14720192383E+03 -0.32131579868E+03  0.50462270834E+03  0.61608142857E+03  0.00000000000E+00 0. -1.
         21    1    1    2  502  501  0.35478525685E+02  0.15733336120E+02 -0.20257218467E+03  0.20625652390E+03  0.00000000000E+00 0.  1.
         21    1    1    2  503  502  0.34721089073E+02  0.78880698119E+02  0.47309506690E+03  0.48088112969E+03  0.00000000000E+00 0.  1.
<scales pt_clust_5="13000.00000" pt_clust_6="13000.00000" pt_clust_7="13000.00000" pt_clust_8="13000.00000" pt_clust_9="38.81061" pt_clust_10="86.77755"></scales>
<clustering>
<clus scale="   38.811">  2  9  1 -1</clus>
<clus scale="   86.778">  1 10  2 -1</clus>
<clus scale="   90.539">  7  8 -1 -1</clus>
<clus scale="   94.048">  5  6 -1 -1</clus>
<clus scale="  317.444">  1  7  2 -1</clus>
<clus scale="   86.778">  1  5  2 -1</clus>
</clustering>
</event>
<event>
10    2  0.1133532E-006  0.1080269E+03  0.7546771E-02  0.1265834E+00
         -1   -1    0    0    0  501 -0.00000000000E+00  0.00000000000E+00  0.93753802897E+02  0.93753802897E+02  0.00000000000E+00 0.  1.
          1   -1    0    0  503    0  0.00000000000E+00 -0.00000000000E+00 -0.30849355556E+03  0.30849355556E+03  0.00000000000E+00 0. -1.
         23    2    1    2    0    0  0.13952441317E+02 -0.19071301329E+02  0.29434780982E+00  0.95734505638E+02  0.92771891088E+02 0.  0.
         23    2    1    2    0    0 -0.36279275927E+02  0.35988504593E+02 -0.19576674118E+03  0.22412920827E+03  0.96425757570E+02 0.  0.
        -11    1    4    4    0    0  0.29133215111E+02  0.20188815098E+02 -0.10713270935E+03  0.11284391827E+03  0.00000000000E+00 0. -1.
         11    1    4    4    0    0 -0.65412491038E+02  0.15799689494E+02 -0.88634031825E+02  0.11128529000E+03  0.00000000000E+00 0.  1.
        -13    1    3    3    0    0 -0.34534928017E+02  0.44785057384E+01  0.17734249486E+02  0.39079686176E+02  0.00000000000E+00 0. -1.
         13    1    3    3    0    0  0.48487369334E+02 -0.23549807067E+02 -0.17439901676E+02  0.56654819462E+02  0.00000000000E+00 0.  1.
         21    1    1    2  502  501  0.43153214802E+02 -0.77205819238E+01  0.10333916266E+02  0.45039950693E+02  0.00000000000E+00 0. -1.
         21    1    1    2  503  502 -0.20826380193E+02 -0.91966213401E+01 -0.29601275558E+02  0.37343693854E+02  0.00000000000E+00 0.  1.
<scales pt_clust_5="13000.00000" pt_clust_6="13000.00000" pt_clust_7="13000.00000" pt_clust_8="13000.00000" pt_clust_9="42.65463" pt_clust_10="22.76655"></scales>
<clustering>
<clus scale="   22.767">  2 10  1 -1</clus>
<clus scale="   42.655">  1  9  2 -1</clus>
<clus scale="   92.772">  7  8 -1 -1</clus>
<clus scale="   96.426">  5  6 -1 -1</clus>
<clus scale="  104.778">  1  7  2 -1</clus>
<clus scale="   22.767">  2  5  1 -1</clus>
</clustering>
</event>
<event>
10    2  0.1133532E-006  0.1296942E+03  0.7546771E-02  0.1228997E+00
         -2   -1    0    0    0  501 -0.00000000000E+00  0.00000000000E+00  0.22184460985E+03  0.22184460985E+03  0.00000000000E+00 0.  1.
          2   -1    0    0  503    0  0.00000000000E+00 -0.00000000000E+00 -0.21972029998E+03  0.21972029998E+03  0.00000000000E+00 0. -1.
         23    2    1    2    0    0 -0.27015960895E+02 -0.98674557051E+02  0.10931769601E+02  0.14083688638E+03  0.96171693481E+02 0.  0.
         23    2    1    2    0    0  0.44348230994E+02  0.55600720382E+02 -0.39212761714E+02  0.12290209204E+03  0.92244662973E+02 0.  0.
        -11    1    4    4    0    0  0.72810763643E+02  0.46725932899E+02 -0.31864728693E+02  0.92195884085E+02  0.00000000000E+00 0. -1.
         11    1    4    4    0    0 -0.28462532649E+02  0.88747874831E+01 -0.73480330210E+01  0.30706207954E+02  0.00000000000E+00 0.  1.
        -11    1    3    3    0    0 -0.43256480277E+02 -0.71716371538E+02  0.44485458430E+02  0.94833100994E+02  0.00000000000E+00 0.  1.
         11    1    3    3    0    0  0.16240519382E+02 -0.26958185513E+02 -0.33553688829E+02  0.46003785388E+02  0.00000000000E+00 0. -1.
         21    1    1    2  502  501 -0.33448762819E+02  0.12193601810E+02  0.96640578440E+02  0.10298982989E+03  0.00000000000E+00 0.  1.
         21    1    1    2  503  502  0.16116492720E+02  0.30880234858E+02 -0.66235276461E+02  0.74836101517E+02  0.00000000000E+00 0. -1.
<scales pt_clust_5="13000.00000" pt_clust_6="13000.00000" pt_clust_7="13000.00000" pt_clust_8="13000.00000" pt_clust_9="35.51247" pt_clust_10="34.83289"></scales>
<clustering>
<clus scale="   34.833">  2 10  1 -1</clus>
<clus scale="   35.512">  1  9  2 -1</clus>
<clus scale="   92.245">  5  6 -1 -1</clus>
<clus scale="   96.172">  7  8 -1 -1</clus>
<clus scale="  126.810">  2  5  1 -1</clus>
<clus scale="   34.833">  2  5  1 -1</clus>
</clustering>
</event>
<event>
10    2  0.1133532E-006  0.1095272E+03  0.7546771E-02  0.1262065E+00
          1   -1    0    0  503    0  0.00000000000E+00  0.00000000000E+00  0.10140377509E+03  0.10140377509E+03  0.00000000000E+00 0. -1.
         -1   -1    0    0    0  501 -0.00000000000E+00 -0.00000000000E+00 -0.37803736892E+03  0.37803736892E+03  0.00000000000E+00 0.  1.
         23    2    1    2    0    0 -0.69055480421E+00  0.56751113389E+02 -0.92563861392E+02  0.14047669403E+03  0.89131741776E+02 0.  0.
         23    2    1    2    0    0  0.63940002638E+02 -0.35996739825E+02  0.12576980874E+02  0.11736008296E+03  0.90725516861E+02 0.  0.
        -11    1    3    3    0    0  0.42884326723E+02  0.33644563709E+02 -0.61542005182E+02  0.82209735114E+02  0.00000000000E+00 0.  1.
         11    1    3    3    0    0 -0.43574881527E+02  0.23106549680E+02 -0.31021856210E+02  0.58266958913E+02  0.00000000000E+00 0. -1.
        -13    1    4    4    0    0  0.30264069273E+02 -0.19120297095E+02 -0.39358076292E+02  0.53202986940E+02  0.00000000000E+00 0.  1.
         13    1    4    4    0    0  0.33675933365E+02 -0.16876442730E+02  0.51935057166E+02  0.64157096023E+02  0.00000000000E+00 0. -1.
         21    1    1    2  502  501 -0.29575140313E+02  0.25992869238E+01 -0.17033872976E+03  0.17290670337E+03  0.00000000000E+00 0.  1.
         21    1    1    2  503  502 -0.33674307521E+02 -0.23353660487E+02 -0.26307983557E+02  0.48697663640E+02  0.00000000000E+00 0.  1.
<scales pt_clust_5="13000.00000" pt_clust_6="13000.00000" pt_clust_7="13000.00000" pt_clust_8="13000.00000" pt_clust_9="29.68914" pt_clust_10="45.25796"></scales>
<clustering>
<clus scale="   29.689">  2  9  1 -1</clus>
<clus scale="   45.258">  2 10  1 -1</clus>
<clus scale="   89.132">  5  6 -1 -1</clus>
<clus scale="   90.726">  7  8 -1 -1</clus>
<clus scale="  108.211">  2  5  1 -1</clus>
<clus scale="  109.527">  1  5  2 -1</clus>
</clustering>
</event>
<event>
10    2  0.1133532E-006  0.1102370E+03  0.7546771E-02  0.1260950E+00
          1   -1    0    0  502    0  0.00000000000E+00  0.00000000000E+00  0.30822064882E+03  0.30822064882E+03  0.00000000000E+00 0. -1.
         -1   -1    0    0    0  501 -0.00000000000E+00 -0.00000000000E+00 -0.15809976511E+03  0.15809976511E+03  0.00000000000E+00 0.  1.
         23    2    1    2    0    0  0.22552588937E+02 -0.12793010648E+02  0.13006825987E+02  0.95089893335E+02  0.90557329372E+02 0.  0.
         23    2    1    2    0    0 -0.47741048642E+02  0.58581837026E+02  0.17577660261E+03  0.21258748149E+03  0.92655188245E+02 0.  0.
        -13    1    4    4    0    0 -0.23867817867E+02  0.53079014885E+02  0.17867783704E+03  0.18791706682E+03  0.00000000000E+00 0. -1.
         13    1    4    4    0    0 -0.23873230775E+02  0.55028221409E+01 -0.29012344330E+01  0.24670414678E+02  0.00000000000E+00 0.  1.
        -13    1    3    3    0    0  0.40000295265E+01  0.26549060496E+02  0.36766881408E+02  0.45526436473E+02  0.00000000000E+00 0. -1.
         13    1    3    3    0    0  0.18552559410E+02 -0.39342071144E+02 -0.23760055421E+02  0.49563456863E+02  0.00000000000E+00 0.  1.
         21    1    1    2  502  503 -0.24316668283E+02 -0.76295396327E+02 -0.56287995747E+02  0.97880673896E+02  0.00000000000E+00 0.  1.
         21    1    1    2  503  501  0.49505127988E+02  0.30506569949E+02  0.17625450859E+02  0.60762365203E+02  0.00000000000E+00 0. -1.
<scales pt_clust_5="13000.00000" pt_clust_6="13000.00000" pt_clust_7="13000.00000" pt_clust_8="13000.00000" pt_clust_9="59.18331" pt_clust_10="58.14988"></scales>
<clustering>
<clus scale="   58.150">  2 10  1 -1</clus>
<clus scale="   59.183">  2  9  1 -1</clus>
<clus scale="   90.557">  7  8 -1 -1</clus>
<clus scale="   92.655">  5  6 -1 -1</clus>
<clus scale="  108.480">  2  7  1 -1</clus>
<clus scale="  110.237">  1  5  2 -1</clus>
</clustering>
</event>
<event>
10    2  0.1133532E-006  0.3549974E+03  0.7546771E-02  0.1060610E+00
         -1   -1    0    0    0  501 -0.00000000000E+00  0.00000000000E+00  0.11677746187E+04  0.11677746187E+04  0.00000000000E+00 0.  1.
          1   -1    0    0  503    0  0.00000000000E+00 -0.00000000000E+00 -0.62191558612E+03  0.62191558612E+03  0.00000000000E+00 0. -1.
         23    2    1    2    0    0  0.31470355193E+03 -0.40177342584E+02  0.10047664975E+04  0.10576593214E+04  0.91842153905E+02 0.  0.
         23    2    1    2    0    0 -0.34051173226E+03  0.58775064344E+02 -0.47914186336E+03  0.59767692428E+03  0.90763608298E+02 0.  0.
        -13    1    3    3    0    0  0.23577117707E+03 -0.66853567546E+02  0.79637551870E+03  0.83322950873E+03  0.00000000000E+00 0.  1.
         13    1    3    3    0    0  0.78932374859E+02  0.26676224962E+02  0.20839097875E+03  0.22442981265E+03  0.00000000000E+00 0. -1.
        -13    1    4    4    0    0 -0.14482651526E+03  0.51614086519E+02 -0.27326317064E+03  0.31354663749E+03  0.00000000000E+00 0. -1.
         13    1    4    4    0    0 -0.19568521700E+03  0.71609778257E+01 -0.20587869272E+03  0.28413028679E+03  0.00000000000E+00 0.  1.
         21    1    1    2  502  501  0.28169562750E+02  0.72235031972E+01  0.71344042464E+02  0.77043336241E+02  0.00000000000E+00 0. -1.
         21    1    1    2  503  502 -0.23613824186E+01 -0.25821224958E+02 -0.51109644007E+02  0.57310622888E+02  0.00000000000E+00 0.  1.
<scales pt_clust_5="13000.00000" pt_clust_6="13000.00000" pt_clust_7="13000.00000" pt_clust_8="13000.00000" pt_clust_9="29.03756" pt_clust_10="25.92898"></scales>
<clustering>
<clus scale="   25.929">  2 10  1 -1</clus>
<clus scale="   29.038">  1  9  2 -1</clus>
<clus scale="   90.764">  7  8 -1 -1</clus>
<clus scale="   91.842">  5  6 -1 -1</clus>
<clus scale="  354.720">  2  7  1 -1</clus>
<clus scale="   25.929">  2  5  1 -1</clus>
</clustering>
</event>
<event>
10    2  0.1133532E-006  0.9774458E+02  0.7546771E-02  0.1285376E+00
          2   -1    0    0  502    0  0.00000000000E+00  0.00000000000E+00  0.28022873323E+03  0.28022873323E+03  0.00000000000E+00 0. -1.
         -2   -1    0    0    0  501 -0.00000000000E+00 -0.00000000000E+00 -0.20038120212E+03  0.20038120212E+03  0.00000000000E+00 0.  1.
         23    2    1    2    0    0 -0.30480206310E+02  0.19477512859E+02 -0.14734550309E+03  0.17589291677E+03  0.88989911809E+02 0.  0.
         23    2    1    2    0    0  0.46326815308E+02 -0.63576011437E+02  0.14036913443E+03  0.18413525163E+03  0.89522142210E+02 0.  0.
        -11    1    3    3    0    0  0.14364102109E+02  0.17441710415E+02 -0.12253813249E+03  0.12460391088E+03  0.00000000000E+00 0.  1.
         11    1    3    3    0    0 -0.44844308419E+02  0.20358024431E+01 -0.24807370603E+02  0.51289005892E+02  0.00000000000E+00 0. -1.
        -13    1    4    4    0    0  0.66987669795E+02 -0.64393585040E+02  0.13287753499E+03  0.16214290303E+03  0.00000000000E+00 0. -1.
         13    1    4    4    0    0 -0.20660854487E+02  0.81757360327E+00  0.74915994424E+01  0.21992348600E+02  0.00000000000E+00 0.  1.
         21    1    1    2  502  503  0.22202270760E+02 -0.29374091935E+01  0.16511618897E+02  0.27824499246E+02  0.00000000000E+00 0. -1.
         21    1    1    2  503  501 -0.38048879758E+02  0.47035907772E+02  0.70312280877E+02  0.92757267709E+02  0.00000000000E+00 0.  1.
<scales pt_clust_5="13000.00000" pt_clust_6="13000.00000" pt_clust_7="13000.00000" pt_clust_8="13000.00000" pt_clust_9="22.39574" pt_clust_10="55.57916"></scales>
<clustering>
<clus scale="   22.396">  1  9  2 -1</clus>
<clus scale="   55.579">  1 10  2 -1</clus>
<clus scale="   88.990">  5  6 -1 -1</clus>
<clus scale="   89.522">  7  8 -1 -1</clus>
<clus scale="   97.257">  2  5  1 -1</clus>
<clus scale="   22.396">  1  5  2 -1</clus>
</clustering>
</event>
<event>
10    2  0.1133532E-006  0.9596340E+02  0.7546771E-02  0.1290261E+00
         -1   -1    0    0    0  501 -0.00000000000E+00  0.00000000000E+00  0.78004557714E+02  0.78004557714E+02  0.00000000000E+00 0.  1.
          1   -1    0    0  503    0  0.00000000000E+00 -0.00000000000E+00 -0.50563588886E+03  0.50563588886E+03  0.00000000000E+00 0. -1.
         23    2    1    2    0    0  0.24251254290E+02 -0.46820733942E+01 -0.12136160016E+03  0.15399181796E+03  0.91513916203E+02 0.  0.
         23    2    1    2    0    0 -0.27839767206E+01 -0.36396037166E+02 -0.12425358021E+03  0.15988861871E+03  0.93770977116E+02 0.  0.
        -11    1    4    4    0    0  0.19887130500E+02 -0.16948634720E+02 -0.12721688737E+03  0.12987259376E+03  0.00000000000E+00 0. -1.
         11    1    4    4    0    0 -0.22671107220E+02 -0.19447402446E+02  0.29633071546E+01  0.30016024950E+02  0.00000000000E+00 0.  1.
        -13    1    3    3    0    0 -0.10742458802E+02 -0.35319886262E+02 -0.18913568766E+02  0.41480331124E+02  0.00000000000E+00 0.  1.
         13    1    3    3    0    0  0.34993713092E+02  0.30637812868E+02 -0.10244803139E+03  0.11251148683E+03  0.00000000000E+00 0. -1.
         21    1    1    2  502  501 -0.35784728354E+02  0.85016561924E+01  0.34446346795E+02  0.50392219131E+02  0.00000000000E+00 0. -1.
         21    1    1    2  503  502  0.14317450785E+02  0.32576454367E+02 -0.21646249757E+03  0.21936779077E+03  0.00000000000E+00 0. -1.
<scales pt_clust_5="13000.00000" pt_clust_6="13000.00000" pt_clust_7="13000.00000" pt_clust_8="13000.00000" pt_clust_9="36.61627" pt_clust_10="35.58391"></scales>
<clustering>
<clus scale="   35.584">  2 10  1 -1</clus>
<clus scale="   36.616">  1  9  2 -1</clus>
<clus scale="   91.514">  7  8 -1 -1</clus>
<clus scale="   93.759">  1  7  2 -1</clus>
<clus scale="   93.771">  5  6 -1 -1</clus>
<clus scale="   35.584">  2  5  1 -1</clus>
</clustering>
</event>
<event>
10    2  0.1133532E-006  0.9465814E+02  0.7546771E-02  0.1293156E+00
          2   -1    0    0  503    0  0.00000000000E+00  0.00000000000E+00  0.18991265932E+03  0.18991265932E+03  0.00000000000E+00 0. -1.
         -2   -1    0    0    0  501 -0.00000000000E+00 -0.00000000000E+00 -0.18346089198E+03  0.18346089198E+03  0.00000000000E+00 0.  1.
         23    2    1    2    0    0 -0.20500289166E+02 -0.17317225242E+02 -0.69668820818E+02  0.11967824533E+03  0.93536034046E+02 0.  0.
         23    2    1    2    0    0 -0.17653956627E+02  0.58878005728E+01 -0.89620539768E+01  0.93706109753E+02  0.91401248423E+02 0.  0.
        -11    1    3    3    0    0 -0.55323876737E+01  0.25857643614E+02 -0.69091501540E+02  0.73978785011E+02  0.00000000000E+00 0.  1.
         11    1    3    3    0    0 -0.14967901492E+02 -0.43174868856E+02 -0.57731927740E+00  0.45699460318E+02  0.00000000000E+00 0. -1.
        -11    1    4    4    0    0  0.21175266115E+02 -0.12906545962E+01 -0.38794767374E+02  0.44216418443E+02  0.00000000000E+00 0.  1.
         11    1    4    4    0    0 -0.38829222741E+02  0.71784551690E+01  0.29832713397E+02  0.49489691310E+02  0.00000000000E+00 0. -1.
         21    1    1    2  502  501  0.59585567328E+02  0.78293434342E+01 -0.11331126785E+02  0.61156625861E+02  0.00000000000E+00 0. -1.
         21    1    1    2  503  502 -0.21431321535E+02  0.36000812351E+01  0.96413768919E+02  0.98832570364E+02  0.00000000000E+00 0. -1.
<scales pt_clust_5="13000.00000" pt_clust_6="13000.00000" pt_clust_7="13000.00000" pt_clust_8="13000.00000" pt_clust_9="54.51550" pt_clust_10="21.73159"></scales>
<clustering>
<clus scale="   21.732">  1 10  2 -1</clus>
<clus scale="   54.516">  1  9  2 -1</clus>
<clus scale="   91.401">  7  8 -1 -1</clus>
<clus scale="   92.549">  1  7  2 -1</clus>
<clus scale="   93.536">  5  6 -1 -1</clus>
<clus scale="   21.732">  1  5  2 -1</clus>
</clustering>
</event>
<event>
10    2  0.1133532E-006  0.9993111E+02  0.7546771E-02  0.1287844E+00
          1   -1    0    0  503    0  0.00000000000E+00  0.00000000000E+00  0.94554599558E+02  0.94554599558E+02  0.00000000000E+00 0. -1.
         -1   -1    0    0    0  501 -0.00000000000E+00 -0.00000000000E+00 -0.54697315198E+03  0.54697315198E+03  0.00000000000E+00 0.  1.
         23    2    1    2    0    0  0.38361466589E+02  0.30949981414E+02 -0.14033052282E+03  0.17122691244E+03  0.84832166306E+02 0.  0.
         23    2    1    2    0    0  0.73359038089E+01  0.40158754855E+02  0.14519767471E+01  0.10631695617E+03  0.98156231881E+02 0.  0.
        -11    1    4    4    0    0 -0.30540241727E+02  0.60163769401E+01 -0.32541653333E+02  0.45031792745E+02  0.00000000000E+00 0. -1.
         11    1    4    4    0    0  0.37876145536E+02  0.34142377915E+02  0.33993630080E+02  0.61285163428E+02  0.00000000000E+00 0.  1.
        -13    1    3    3    0    0  0.19768579878E+02  0.58837301365E+02 -0.71594246487E+02  0.94754213164E+02  0.00000000000E+00 0. -1.
         13    1    3    3    0    0  0.18592886711E+02 -0.27887319951E+02 -0.68736276333E+02  0.76472699275E+02  0.00000000000E+00 0.  1.
         21    1    1    2  502  501 -0.24519787074E+02 -0.50439354535E+02 -0.32678493050E+03  0.33156257215E+03  0.00000000000E+00 0.  1.
         21    1    1    2  503  502 -0.21177583324E+02 -0.20669381734E+02  0.13244924155E+02  0.32421310779E+02  0.00000000000E+00 0.  1.
<scales pt_clust_5="13000.00000" pt_clust_6="13000.00000" pt_clust_7="13000.00000" pt_clust_8="13000.00000" pt_clust_9="57.01192" pt_clust_10="29.59245"></scales>
<clustering>
<clus scale="   29.592">  1 10  2 -1</clus>
<clus scale="   57.012">  2  9  1 -1</clus>
<clus scale="   84.832">  7  8 -1 -1</clus>
<clus scale="   86.880">  2  7  1 -1</clus>
<clus scale="   98.156">  5  6 -1 -1</clus>
<clus scale="   29.592">  1  5  2 -1</clus>
</clustering>
</event>
<event>
10    2  0.1133532E-006  0.1902696E+03  0.7546771E-02  0.1158280E+00
          1   -1    0    0  503    0  0.00000000000E+00  0.00000000000E+00  0.22264943983E+03  0.22264943983E+03  0.00000000000E+00 0. -1.
         -1   -1    0    0    0  501 -0.00000000000E+00 -0.00000000000E+00 -0.57627634256E+03  0.57627634256E+03  0.00000000000E+00 0.  1.
         23    2    1    2    0    0 -0.40004101084E+02 -0.20386122523E+03 -0.19777323459E+03  0.30192658000E+03  0.94263885631E+02 0.  0.
         23    2    1    2    0    0 -0.59484368770E+02  0.12871171741E+03  0.99589382458E+02  0.19698985672E+03  0.93711590664E+02 0.  0.
        -11    1    3    3    0    0 -0.67573282916E+02 -0.17730059180E+03 -0.16097758087E+03  0.24882811328E+03  0.00000000000E+00 0.  1.
         11    1    3    3    0    0  0.27569181833E+02 -0.26560633432E+02 -0.36795653718E+02  0.53098466718E+02  0.00000000000E+00 0. -1.
        -13    1    4    4    0    0 -0.65812281197E+02  0.88898123239E+02  0.10932376443E+03  0.15551790296E+03  0.00000000000E+00 0. -1.
         13    1    4    4    0    0  0.63279124268E+01  0.39813594171E+02 -0.97343819681E+01  0.41471953761E+02  0.00000000000E+00 0.  1.
         21    1    1    2  502  501  0.65113630002E+02  0.41027270511E+02 -0.23527585241E+03  0.24754342743E+03  0.00000000000E+00 0.  1.
         21    1    1    2  503  502  0.34374839851E+02  0.34122237311E+02 -0.20167198197E+02  0.52465918243E+02  0.00000000000E+00 0.  1.
<scales pt_clust_5="13000.00000" pt_clust_6="13000.00000" pt_clust_7="13000.00000" pt_clust_8="13000.00000" pt_clust_9="78.36598" pt_clust_10="48.43508"></scales>
<clustering>
<clus scale="   48.435">  1 10  2 -1</clus>
<clus scale="   78.366">  2  9  1 -1</clus>
<clus scale="   93.712">  7  8 -1 -1</clus>
<clus scale="   94.264">  5  6 -1 -1</clus>
<clus scale="  189.997">  1  7  2 -1</clus>
<clus scale="   48.435">  1  5  2 -1</clus>
</clustering>
</event>
<event>
10    2  0.1133532E-006  0.1386851E+03  0.7546771E-02  0.1232914E+00
          1   -1    0    0  503    0  0.00000000000E+00  0.00000000000E+00  0.37708082934E+03  0.37708082934E+03  0.00000000000E+00 0. -1.
         -1   -1    0    0    0  501 -0.00000000000E+00 -0.00000000000E+00 -0.15969001339E+03  0.15969001339E+03  0.00000000000E+00 0.  1.
         23    2    1    2    0    0 -0.19356014589E+02  0.34670985218E+01 -0.32530603318E+02  0.98070093539E+02  0.90403689203E+02 0.  0.
         23    2    1    2    0    0  0.82588846670E+02 -0.59150073374E+02  0.23363654792E+03  0.27134057791E+03  0.93381068351E+02 0.  0.
        -11    1    4    4    0    0  0.65510068281E+02 -0.83638399788E+02  0.16197115247E+03  0.19370494366E+03  0.00000000000E+00 0. -1.
         11    1    4    4    0    0  0.17078778388E+02  0.24488326414E+02  0.71665395450E+02  0.77635634259E+02  0.00000000000E+00 0.  1.
        -13    1    3    3    0    0 -0.38760748507E+02 -0.30664210841E+02 -0.31859858514E+02  0.58802551270E+02  0.00000000000E+00 0.  1.
         13    1    3    3    0    0  0.19404733919E+02  0.34131309362E+02 -0.67074480424E+00  0.39267542269E+02  0.00000000000E+00 0. -1.
         21    1    1    2  502  501 -0.10206005914E+02 -0.43314714950E+02 -0.20757514460E+02  0.49103986543E+02  0.00000000000E+00 0. -1.
         21    1    1    2  503  502 -0.53026826167E+02  0.98997689802E+02  0.37042385814E+02  0.11825618473E+03  0.00000000000E+00 0.  1.
<scales pt_clust_5="13000.00000" pt_clust_6="13000.00000" pt_clust_7="13000.00000" pt_clust_8="13000.00000" pt_clust_9="44.50087" pt_clust_10="102.53553"></scales>
<clustering>
<clus scale="   44.501">  2  9  1 -1</clus>
<clus scale="   90.404">  7  8 -1 -1</clus>
<clus scale="   93.381">  5  6 -1 -1</clus>
<clus scale="   95.664">  2  7  1 -1</clus>
<clus scale="  102.536">  2 10  1 -1</clus>
<clus scale="  138.685">  1  5  2 -1</clus>
</clustering>
</event>
<event>
10    2  0.1133532E-006  0.9750200E+02  0.7546771E-02  0.1285640E+00
          1   -1    0    0  502    0  0.00000000000E+00  0.00000000000E+00  0.25908693714E+03  0.25908693714E+03  0.00000000000E+00 0. -1.
         -1   -1    0    0    0  501 -0.00000000000E+00 -0.00000000000E+00 -0.97136848205E+02  0.97136848205E+02  0.00000000000E+00 0.  1.
         23    2    1    2    0    0 -0.64128382252E+01 -0.59564896260E+02  0.55355294122E+01  0.10971847881E+03  0.91751845458E+02 0.  0.
         23    2    1    2    0    0  0.19470590082E+02  0.20383572308E+02  0.15881792473E+03  0.18556785800E+03  0.91748039825E+02 0.  0.
        -11    1    3    3    0    0  0.19258213922E+02 -0.63244609841E+02 -0.24073319431E+02  0.70358255989E+02  0.00000000000E+00 0.  1.
         11    1    3    3    0    0 -0.25671052147E+02  0.36797135806E+01  0.29608848843E+02  0.39360222817E+02  0.00000000000E+00 0. -1.
        -11    1    4    4    0    0  0.77952730658E+01 -0.35520742568E+02  0.42135549356E+02  0.55658727566E+02  0.00000000000E+00 0.  1.
         11    1    4    4    0    0  0.11675317016E+02  0.55904314875E+02  0.11668237537E+03  0.12990913044E+03  0.00000000000E+00 0. -1.
         21    1    1    2  502  503  0.99320497947E+01  0.28291513224E+02 -0.13866586399E+02  0.33035398469E+02  0.00000000000E+00 0.  1.
         21    1    1    2  503  501 -0.22989801651E+02  0.10889810728E+02  0.11463221192E+02  0.27902050064E+02  0.00000000000E+00 0.  1.
<scales pt_clust_5="13000.00000" pt_clust_6="13000.00000" pt_clust_7="13000.00000" pt_clust_8="13000.00000" pt_clust_9="31.40280" pt_clust_10="25.43853"></scales>
<clustering>
<clus scale="   25.439">  2 10  1 -1</clus>
<clus scale="   31.403">  2  9  1 -1</clus>
<clus scale="   91.748">  7  8 -1 -1</clus>
<clus scale="   91.752">  5  6 -1 -1</clus>
<clus scale="   97.498">  1  7  2 -1</clus>
<clus scale="   97.498">  1  5  2 -1</clus>
</clustering>
</event>
<event>
10    2  0.1133532E-006  0.1164862E+03  0.7546771E-02  0.1249128E+00
          1   -1    0    0  503    0  0.00000000000E+00  0.00000000000E+00  0.14711685727E+03  0.14711685727E+03  0.00000000000E+00 0. -1.
         -1   -1    0    0    0  501 -0.00000000000E+00 -0.00000000000E+00 -0.26410843768E+03  0.26410843768E+03  0.00000000000E+00 0.  1.
         23    2    1    2    0    0  0.68615711541E+01 -0.81326428452E+02 -0.10113944848E+03  0.15902246091E+03  0.91639979868E+02 0.  0.
         23    2    1    2    0    0  0.17115258095E+01  0.72014379456E+02 -0.57567805689E+01  0.11698057616E+03  0.91990839259E+02 0.  0.
        -13    1    4    4    0    0  0.63005469273E+01  0.39775964825E+02 -0.48631688132E+02  0.63141629373E+02  0.00000000000E+00 0.  1.
         13    1    4    4    0    0 -0.45890211178E+01  0.32238414631E+02  0.42874907563E+02  0.53838946788E+02  0.00000000000E+00 0. -1.
        -13    1    3    3    0    0  0.42074307804E+02 -0.61457876839E+02 -0.36903495210E+02  0.83121513229E+02  0.00000000000E+00 0.  1.
         13    1    3    3    0    0 -0.35212736650E+02 -0.19868551613E+02 -0.64235953273E+02  0.75900947679E+02  0.00000000000E+00 0. -1.
         21    1    1    2  502  501 -0.35966048985E+02  0.21312349377E+02 -0.62318361788E+02  0.75042328932E+02  0.00000000000E+00 0. -1.
         21    1    1    2  503  502  0.27392952022E+02 -0.12000300381E+02  0.52223010428E+02  0.60179928946E+02  0.00000000000E+00 0. -1.
<scales pt_clust_5="13000.00000" pt_clust_6="13000.00000" pt_clust_7="13000.00000" pt_clust_8="13000.00000" pt_clust_9="39.73001" pt_clust_10="29.90620"></scales>
<clustering>
<clus scale="   29.906">  1 10  2 -1</clus>
<clus scale="   39.730">  2  9  1 -1</clus>
<clus scale="   91.640">  7  8 -1 -1</clus>
<clus scale="   91.991">  5  6 -1 -1</clus>
<clus scale="  116.209">  2  7  1 -1</clus>
<clus scale="   29.906">  1  5  2 -1</clus>
</clustering>
</event>
<event>
10    2  0.1133532E-006  0.3354720E+03  0.7546771E-02  0.1068851E+00
          2   -1    0    0  503    0  0.00000000000E+00  0.00000000000E+00  0.41399614698E+03  0.41399614698E+03  0.00000000000E+00 0. -1.
         -2   -1    0    0    0  501 -0.00000000000E+00 -0.00000000000E+00 -0.38409039237E+03  0.38409039237E+03  0.00000000000E+00 0.  1.
         23    2    1    2    0    0 -0.94625457672E+02  0.33651564990E+03  0.15721702522E+02  0.36148531115E+03  0.90706661168E+02 0.  0.
         23    2    1    2    0    0  0.10497539861E+03 -0.27782899374E+03  0.11262177324E+02  0.31183687979E+03  0.94374884795E+02 0.  0.
        -13    1    3    3    0    0 -0.10897444027E+02  0.16555603560E+03  0.36842106596E+02  0.16995557074E+03  0.00000000000E+00 0.  1.
         13    1    3    3    0    0 -0.83728013645E+02  0.17095961430E+03 -0.21120404074E+02  0.19152974040E+03  0.00000000000E+00 0. -1.
        -13    1    4    4    0    0  0.52658586058E+02 -0.12150207663E+03 -0.41462303052E+02  0.13876168018E+03  0.00000000000E+00 0.  1.
         13    1    4    4    0    0  0.52316812556E+02 -0.15632691711E+03  0.52724480376E+02  0.17307519961E+03  0.00000000000E+00 0. -1.
         21    1    1    2  502  501 -0.18984550733E+00 -0.38149347278E+02 -0.52439669344E+02  0.64848497746E+02  0.00000000000E+00 0.  1.
         21    1    1    2  503  502 -0.10160095435E+02 -0.20537308882E+02  0.55361544113E+02  0.59915850674E+02  0.00000000000E+00 0.  1.
<scales pt_clust_5="13000.00000" pt_clust_6="13000.00000" pt_clust_7="13000.00000" pt_clust_8="13000.00000" pt_clust_9="38.50866" pt_clust_10="22.91307"></scales>
<clustering>
<clus scale="   22.913">  1 10  2 -1</clus>
<clus scale="   38.509">  2  9  1 -1</clus>
<clus scale="   90.707">  5  6 -1 -1</clus>
<clus scale="   94.375">  7  8 -1 -1</clus>
<clus scale="  334.459">  2  5  1 -1</clus>
<clus scale="   22.913">  1  5  2 -1</clus>
</clustering>
</event>
<event>
10    2  0.1133532E-006  0.1008334E+03  0.7546771E-02  0.1278878E+00
         -1   -1    0    0    0  501 -0.00000000000E+00  0.00000000000E+00  0.14160760840E+03  0.14160760840E+03  0.00000000000E+00 0.  1.
          1   -1    0    0  502    0  0.00000000000E+00 -0.00000000000E+00 -0.14520420582E+03  0.14520420582E+03  0.00000000000E+00 0. -1.
         23    2    1    2    0    0  0.17290326858E+02 -0.18342821534E+02  0.26507051696E+02  0.98420669666E+02  0.91370618490E+02 0.  0.
         23    2    1    2    0    0 -0.26161938861E+02  0.44254728966E+02 -0.32239029453E+02  0.11025411960E+03  0.92052635968E+02 0.  0.
        -11    1    4    4    0    0 -0.14773517248E+02 -0.27916547265E+02 -0.16003805108E+02  0.35407798590E+02  0.00000000000E+00 0. -1.
         11    1    4    4    0    0 -0.11388421614E+02  0.72171276231E+02 -0.16235224345E+02  0.74846321013E+02  0.00000000000E+00 0.  1.
        -13    1    3    3    0    0  0.41756723897E+02  0.21726803300E+02  0.19507278235E+02  0.50953035989E+02  0.00000000000E+00 0.  1.
         13    1    3    3    0    0 -0.24466397039E+02 -0.40069624835E+02  0.69997734601E+01  0.47467633678E+02  0.00000000000E+00 0. -1.
         21    1    1    2  502  503  0.26728218633E+02 -0.43777202285E+02 -0.59013937786E+01  0.51630103232E+02  0.00000000000E+00 0. -1.
         21    1    1    2  503  501 -0.17856606630E+02  0.17865294854E+02  0.80367741179E+01  0.26506921715E+02  0.00000000000E+00 0. -1.
<scales pt_clust_5="13000.00000" pt_clust_6="13000.00000" pt_clust_7="13000.00000" pt_clust_8="13000.00000" pt_clust_9="46.78933" pt_clust_10="25.25920"></scales>
<clustering>
<clus scale="   25.259">  1 10  2 -1</clus>
<clus scale="   46.789">  1  9  2 -1</clus>
<clus scale="   91.371">  7  8 -1 -1</clus>
<clus scale="   92.053">  5  6 -1 -1</clus>
<clus scale="  100.211">  1  7  2 -1</clus>
<clus scale="  100.833">  2  5  1 -1</clus>
</clustering>
</event>
<event>
10    2  0.1133532E-006  0.1268138E+03  0.7546771E-02  0.1234087E+00
         -2   -1    0    0    0  501 -0.00000000000E+00  0.00000000000E+00  0.40289702583E+03  0.40289702583E+03  0.00000000000E+00 0.  1.
          2   -1    0    0  503    0  0.00000000000E+00 -0.00000000000E+00 -0.19070184255E+03  0.19070184255E+03  0.00000000000E+00 0. -1.
         23    2    1    2    0    0  0.49154602259E+02  0.12116952076E+02  0.27003450517E+03  0.29271983914E+03  0.10101126073E+03 0.  0.
         23    2    1    2    0    0  0.78140937095E+00 -0.79247469786E+02 -0.86739768401E+02  0.15114846238E+03  0.95085741255E+02 0.  0.
        -11    1    4    4    0    0 -0.39336161603E+02 -0.10413738059E+02 -0.13345482130E+02  0.42823841996E+02  0.00000000000E+00 0. -1.
         11    1    4    4    0    0  0.40117570974E+02 -0.68833731728E+02 -0.73394286271E+02  0.10832462039E+03  0.00000000000E+00 0.  1.
        -11    1    3    3    0    0  0.29794623140E+02 -0.40964194068E+02  0.17474542276E+03  0.18193885659E+03  0.00000000000E+00 0.  1.
         11    1    3    3    0    0  0.19359979118E+02  0.53081146144E+02  0.95289082416E+02  0.11078098255E+03  0.00000000000E+00 0. -1.
         21    1    1    2  502  501 -0.10261788062E+02  0.64949425131E+02  0.67571321220E+02  0.94284757891E+02  0.00000000000E+00 0. -1.
         21    1    1    2  503  502 -0.39674223567E+02  0.21810925794E+01 -0.38670874713E+02  0.55445808963E+02  0.00000000000E+00 0. -1.
<scales pt_clust_5="13000.00000" pt_clust_6="13000.00000" pt_clust_7="13000.00000" pt_clust_8="13000.00000" pt_clust_9="66.62913" pt_clust_10="39.73413"></scales>
<clustering>
<clus scale="   39.734">  2 10  1 -1</clus>
<clus scale="   66.629">  1  9  2 -1</clus>
<clus scale="   95.086">  5  6 -1 -1</clus>
<clus scale="  101.011">  7  8 -1 -1</clus>
<clus scale="  122.146">  2  5  1 -1</clus>
<clus scale="   39.734">  2  5  1 -1</clus>
</clustering>
</event>
<event>
10    2  0.1133532E-006  0.1029809E+03  0.7546771E-02  0.1274550E+00
         -1   -1    0    0    0  501 -0.00000000000E+00  0.00000000000E+00  0.11862898326E+03  0.11862898326E+03  0.00000000000E+00 0.  1.
          1   -1    0    0  503    0  0.00000000000E+00 -0.00000000000E+00 -0.23245842808E+03  0.23245842808E+03  0.00000000000E+00 0. -1.
         23    2    1    2    0    0 -0.51103311926E+02  0.16253427137E+01  0.42862901718E+01  0.10392491152E+03  0.90376018510E+02 0.  0.
         23    2    1    2    0    0  0.31085205572E+02 -0.56520808263E+02 -0.22245953247E+02  0.11252369261E+03  0.89475176387E+02 0.  0.
        -11    1    4    4    0    0 -0.27065212430E+02  0.25796826427E+01 -0.84603642724E+01  0.28473816921E+02  0.00000000000E+00 0. -1.
         11    1    4    4    0    0  0.58150418003E+02 -0.59100490906E+02 -0.13785588975E+02  0.84049875685E+02  0.00000000000E+00 0.  1.
        -11    1    3    3    0    0 -0.21017507261E+01  0.38836576669E+02 -0.11205688464E+02  0.40475480200E+02  0.00000000000E+00 0. -1.
         11    1    3    3    0    0 -0.49001561199E+02 -0.37211233955E+02  0.15491978636E+02  0.63449431317E+02  0.00000000000E+00 0.  1.
         21    1    1    2  502  501  0.30611861907E+01  0.42856891124E+02 -0.72026291859E+01  0.43565603920E+02  0.00000000000E+00 0.  1.
         21    1    1    2  503  502  0.16956920162E+02  0.12038574425E+02 -0.88667152561E+02  0.91073203298E+02  0.00000000000E+00 0.  1.
<scales pt_clust_5="13000.00000" pt_clust_6="13000.00000" pt_clust_7="13000.00000" pt_clust_8="13000.00000" pt_clust_9="45.40891" pt_clust_10="20.79578"></scales>
<clustering>
<clus scale="   20.796">  2 10  1 -1</clus>
<clus scale="   45.409">  2  9  1 -1</clus>
<clus scale="   89.475">  5  6 -1 -1</clus>
<clus scale="   90.376">  7  8 -1 -1</clus>
<clus scale="  102.191">  2  5  1 -1</clus>
<clus scale="   20.796">  2  5  1 -1</clus>
</clustering>
</event>
<event>
10    2  0.1133532E-006  0.9358693E+02  0.7546771E-02  0.1295647E+00
         -3   -1    0    0    0  501 -0.00000000000E+00  0.00000000000E+00  0.68182477655E+03  0.68182477655E+03  0.00000000000E+00 0.  1.
          3   -1    0    0  503    0  0.00000000000E+00 -0.00000000000E+00 -0.60336015096E+02  0.60336015096E+02  0.00000000000E+00 0. -1.
         23    2    1    2    0    0 -0.25381559081E+02  0.45449408856E+02  0.43704496859E+03  0.44901237083E+03  0.88847803994E+02 0.  0.
         23    2    1    2    0    0  0.30260277532E+01 -0.30772209626E+01  0.95444108006E+02  0.13199075227E+03  0.91067858214E+02 0.  0.
        -13    1    3    3    0    0  0.19828743861E+02  0.52876047522E+02  0.21523592825E+03  0.22252092102E+03  0.00000000000E+00 0. -1.
         13    1    3    3    0    0 -0.45210302943E+02 -0.74266386662E+01  0.22180904035E+03  0.22649144980E+03  0.00000000000E+00 0.  1.
        -13    1    4    4    0    0  0.45631569811E+01 -0.46266055742E+02  0.61177646156E+02  0.76837976970E+02  0.00000000000E+00 0.  1.
         13    1    4    4    0    0 -0.15371292279E+01  0.43188834780E+02  0.34266461850E+02  0.55152775303E+02  0.00000000000E+00 0. -1.
         21    1    1    2  502  501  0.40759003643E+02 -0.22158045701E+02  0.11464412593E+03  0.12367518335E+03  0.00000000000E+00 0. -1.
         21    1    1    2  503  502 -0.18403472315E+02 -0.20214142193E+02 -0.25644441079E+02  0.37482485192E+02  0.00000000000E+00 0. -1.
<scales pt_clust_5="13000.00000" pt_clust_6="13000.00000" pt_clust_7="13000.00000" pt_clust_8="13000.00000" pt_clust_9="45.56124" pt_clust_10="27.33678"></scales>
<clustering>
<clus scale="   27.337">  2 10  1 -1</clus>
<clus scale="   45.561">  1  9  2 -1</clus>
<clus scale="   88.848">  5  6 -1 -1</clus>
<clus scale="   91.068">  7  8 -1 -1</clus>
<clus scale="   91.428">  1  5  2 -1</clus>
<clus scale="   27.337">  2  5  1 -1</clus>
</clustering>
</event>
<event>
10    2  0.1133532E-006  0.1044296E+03  0.7546771E-02  0.1271468E+00
         -2   -1    0    0    0  501 -0.00000000000E+00  0.00000000000E+00  0.12274585406E+03  0.12274585406E+03  0.00000000000E+00 0.  1.
          2   -1    0    0  503    0  0.00000000000E+00 -0.00000000000E+00 -0.36684915913E+03  0.36684915913E+03  0.00000000000E+00 0. -1.
         23    2    1    2    0    0  0.28098215611E+02  0.48434641136E+02 -0.23462037063E+02  0.10816047286E+03  0.89514225264E+02 0.  0.
         23    2    1    2    0    0 -0.10990932730E+02 -0.48777746890E+02 -0.49799316930E+02  0.11358080811E+03  0.88997521366E+02 0.  0.
        -11    1    3    3    0    0  0.58683728382E+01  0.33921025984E+02 -0.56264775190E+02  0.65960584676E+02  0.00000000000E+00 0. -1.
         11    1    3    3    0    0  0.22229842773E+02  0.14513615152E+02  0.32802738127E+02  0.42199888188E+02  0.00000000000E+00 0.  1.
        -13    1    4    4    0    0  0.29602572312E+02 -0.37390181153E+02 -0.53001759026E+02  0.71298838658E+02  0.00000000000E+00 0.  1.
         13    1    4    4    0    0 -0.40593505042E+02 -0.11387565737E+02  0.32024420955E+01  0.42281969448E+02  0.00000000000E+00 0. -1.
         21    1    1    2  502  501  0.24558557543E+02  0.62572011793E+01  0.42998636412E+02  0.49911502166E+02  0.00000000000E+00 0.  1.
         21    1    1    2  503  502 -0.41665840424E+02 -0.59140954259E+01 -0.21384058749E+03  0.21794223005E+03  0.00000000000E+00 0. -1.
<scales pt_clust_5="13000.00000" pt_clust_6="13000.00000" pt_clust_7="13000.00000" pt_clust_8="13000.00000" pt_clust_9="25.34315" pt_clust_10="41.40628"></scales>
<clustering>
<clus scale="   25.343">  1  9  2 -1</clus>
<clus scale="   41.406">  2 10  1 -1</clus>
<clus scale="   88.998">  7  8 -1 -1</clus>
<clus scale="   89.514">  5  6 -1 -1</clus>
<clus scale="  103.987">  2  7  1 -1</clus>
<clus scale="   41.406">  2  5  1 -1</clus>
</clustering>
</event>
<event>
10    2  0.1133532E-006  0.1887062E+03  0.7546771E-02  0.1159794E+00
         -2   -1    0    0    0  501 -0.00000000000E+00  0.00000000000E+00  0.32511100611E+03  0.32511100611E+03  0.00000000000E+00 0.  1.
          2   -1    0    0  503    0  0.00000000000E+00 -0.00000000000E+00 -0.23237492349E+03  0.23237492349E+03  0.00000000000E+00 0. -1.
         23    2    1    2    0    0  0.17604082022E+03  0.30472403830E+02  0.15816403705E+03  0.25549973797E+03  0.91352699516E+02 0.  0.
         23    2    1    2    0    0 -0.15020684530E+03 -0.59474910801E+02 -0.12235712234E+03  0.22289180057E+03  0.92790775334E+02 0.  0.
        -11    1    4    4    0    0 -0.14067400532E+03 -0.79288902052E+02 -0.93445526896E+02  0.18656894773E+03  0.00000000000E+00 0. -1.
         11    1    4    4    0    0 -0.95328399750E+01  0.19813991251E+02 -0.28911595445E+02  0.36322852840E+02  0.00000000000E+00 0.  1.
        -11    1    3    3    0    0  0.15518190068E+03  0.41986037574E+02  0.16534564131E+03  0.23061533069E+03  0.00000000000E+00 0.  1.
         11    1    3    3    0    0  0.20858919535E+02 -0.11513633744E+02 -0.71816042516E+01  0.24884407283E+02  0.00000000000E+00 0. -1.
         21    1    1    2  502  501 -0.20388943669E+02 -0.11611989140E+01  0.37799573795E+02  0.42963533211E+02  0.00000000000E+00 0. -1.
         21    1    1    2  503  502 -0.54450312499E+01  0.30163705885E+02  0.19129594104E+02  0.36130857845E+02  0.00000000000E+00 0.  1.
<scales pt_clust_5="13000.00000" pt_clust_6="13000.00000" pt_clust_7="13000.00000" pt_clust_8="13000.00000" pt_clust_9="20.42198" pt_clust_10="30.95438"></scales>
<clustering>
<clus scale="   20.422">  1  9  2 -1</clus>
<clus scale="   30.954">  1 10  2 -1</clus>
<clus scale="   91.353">  7  8 -1 -1</clus>
<clus scale="   92.791">  5  6 -1 -1</clus>
<clus scale="  188.003">  1  7  2 -1</clus>
<clus scale="  188.706">  2  5  1 -1</clus>
</clustering>
</event>
<event>
10    2  0.1133532E-006  0.1407365E+03  0.7546771E-02  0.1223442E+00
          1   -1    0    0  503    0  0.00000000000E+00  0.00000000000E+00  0.16790664009E+03  0.16790664009E+03  0.00000000000E+00 0. -1.
         -1   -1    0    0    0  501 -0.00000000000E+00 -0.00000000000E+00 -0.40050722014E+03  0.40050722014E+03  0.00000000000E+00 0.  1.
         23    2    1    2    0    0  0.48088120939E+02  0.17373291388E+02 -0.84966873119E+02  0.13602615517E+03  0.93109863777E+02 0.  0.
         23    2    1    2    0    0  0.52532357129E+02  0.38782167749E+02 -0.66842075467E+02  0.13134810750E+03  0.92307947714E+02 0.  0.
        -13    1    4    4    0    0 -0.21712174326E+02 -0.55330288842E+01 -0.29798869184E+02  0.37282777890E+02  0.00000000000E+00 0. -1.
         13    1    4    4    0    0  0.74244531454E+02  0.44315196634E+02 -0.37043206282E+02  0.94065329613E+02  0.00000000000E+00 0.  1.
        -13    1    3    3    0    0  0.33641242078E+02 -0.22250320952E+02 -0.84741304540E+02  0.93850405679E+02  0.00000000000E+00 0.  1.
         13    1    3    3    0    0  0.14446878861E+02  0.39623612340E+02 -0.22556857973E+00  0.42175749488E+02  0.00000000000E+00 0. -1.
         21    1    1    2  502  501 -0.12229820922E+03 -0.94390346145E+02 -0.15240706322E+03  0.21701221703E+03  0.00000000000E+00 0.  1.
         21    1    1    2  503  502  0.21677731149E+02  0.38234887008E+02  0.71615431755E+02  0.84027380524E+02  0.00000000000E+00 0.  1.
<scales pt_clust_5="13000.00000" pt_clust_6="13000.00000" pt_clust_7="13000.00000" pt_clust_8="13000.00000" pt_clust_9="106.23562" pt_clust_10="43.95260"></scales>
<clustering>
<clus scale="   43.953">  1 10  2 -1</clus>
<clus scale="   92.308">  5  6 -1 -1</clus>
<clus scale="   93.110">  7  8 -1 -1</clus>
<clus scale="  111.383">  2  7  1 -1</clus>
<clus scale="  106.236">  2  9  1 -1</clus>
<clus scale="   43.953">  1  5  2 -1</clus>
</clustering>
</event>
<event>
10    2  0.1133532E-006  0.2373564E+03  0.7546771E-02  0.1121912E+00
         -1   -1    0    0    0  501 -0.00000000000E+00  0.00000000000E+00  0.63864330466E+03  0.63864330466E+03  0.00000000000E+00 0.  1.
          1   -1    0    0  503    0  0.00000000000E+00 -0.00000000000E+00 -0.32590854021E+03  0.32590854021E+03  0.00000000000E+00 0. -1.
         23    2    1    2    0    0 -0.20053417228E+03 -0.33667771843E+02  0.44738540595E+03  0.49863540323E+03  0.84475385654E+02 0.  0.
         23    2    1    2    0    0  0.21776692620E+03  0.84118133740E+02 -0.15429606959E+03  0.29394467746E+03  0.89988342250E+02 0.  0.
        -13    1    3    3    0    0 -0.14530978812E+03 -0.50897749336E+02  0.37889663281E+03  0.40898431970E+03  0.00000000000E+00 0.  1.
         13    1    3    3    0    0 -0.55224384163E+02  0.17229977493E+02  0.68488773148E+02  0.89651083529E+02  0.00000000000E+00 0. -1.
        -13    1    4    4    0    0  0.14311850714E+03  0.12637486917E+02 -0.11241903309E+03  0.18242985546E+03  0.00000000000E+00 0. -1.
         13    1    4    4    0    0  0.74648419060E+02  0.71480646823E+02 -0.41877036503E+02  0.11151482200E+03  0.00000000000E+00 0.  1.
         21    1    1    2  502  501 -0.14552471362E+02 -0.16048430954E+02  0.90555951081E+02  0.93111260517E+02  0.00000000000E+00 0.  1.
         21    1    1    2  503  502 -0.26802825625E+01 -0.34401930944E+02 -0.70910522996E+02  0.78860503668E+02  0.00000000000E+00 0.  1.
<scales pt_clust_5="13000.00000" pt_clust_6="13000.00000" pt_clust_7="13000.00000" pt_clust_8="13000.00000" pt_clust_9="21.66395" pt_clust_10="34.63085"></scales>
<clustering>
<clus scale="   21.664">  1  9  2 -1</clus>
<clus scale="   34.631">  2 10  1 -1</clus>
<clus scale="   84.475">  5  6 -1 -1</clus>
<clus scale="   89.988">  7  8 -1 -1</clus>
<clus scale="  235.322">  1  5  2 -1</clus>
<clus scale="   34.631">  2  5  1 -1</clus>
</clustering>
</event>
<event>
10    2  0.1133532E-006  0.1688406E+03  0.7546771E-02  0.1194238E+00
         -1   -1    0    0    0  501 -0.00000000000E+00  0.00000000000E+00  0.26349434590E+03  0.26349434590E+03  0.00000000000E+00 0.  1.
          1   -1    0    0  503    0  0.00000000000E+00 -0.00000000000E+00 -0.47401331730E+03  0.47401331730E+03  0.00000000000E+00 0. -1.
         23    2    1    2    0    0  0.15330120820E+02  0.12905796006E+03 -0.84515096543E+02  0.17991501219E+03  0.91299728417E+02 0.  0.
         23    2    1    2    0    0 -0.54418764582E+02  0.27351409131E+02 -0.23575567997E+03  0.26420770782E+03  0.10254496922E+03 0.  0.
        -11    1    3    3    0    0  0.37481744155E+02  0.12757739812E+02 -0.13361123085E+02  0.41787087480E+02  0.00000000000E+00 0.  1.
         11    1    3    3    0    0 -0.22151623334E+02  0.11630022025E+03 -0.71153973458E+02  0.13812792471E+03  0.00000000000E+00 0. -1.
        -13    1    4    4    0    0 -0.70710692510E+02  0.52088675884E+02 -0.15444036075E+03  0.17766557691E+03  0.00000000000E+00 0. -1.
         13    1    4    4    0    0  0.16291927927E+02 -0.24737266753E+02 -0.81315319221E+02  0.86542130908E+02  0.00000000000E+00 0.  1.
         21    1    1    2  502  501  0.50193353400E+02 -0.13807330583E+03  0.17278868033E+03  0.22680286277E+03  0.00000000000E+00 0.  1.
         21    1    1    2  503  502 -0.11104709638E+02 -0.18336063359E+02 -0.63036875212E+02  0.66582080413E+02  0.00000000000E+00 0.  1.
<scales pt_clust_5="13000.00000" pt_clust_6="13000.00000" pt_clust_7="13000.00000" pt_clust_8="13000.00000" pt_clust_9="142.02639" pt_clust_10="21.43655"></scales>
<clustering>
<clus scale="   21.437">  2 10  1 -1</clus>
<clus scale="   91.300">  5  6 -1 -1</clus>
<clus scale="  102.545">  7  8 -1 -1</clus>
<clus scale="  120.507">  2  7  1 -1</clus>
<clus scale="  142.026">  1  9  2 -1</clus>
<clus scale="   21.437">  2  5  1 -1</clus>
</clustering>
</event>
<event>
10    2  0.1133532E-006  0.1098410E+03  0.7546771E-02  0.1261225E+00
         -2   -1    0    0    0  501 -0.00000000000E+00  0.00000000000E+00  0.10799668574E+03  0.10799668574E+03  0.00000000000E+00 0.  1.
          2   -1    0    0  503    0  0.00000000000E+00 -0.00000000000E+00 -0.26045514972E+03  0.26045514972E+03  0.00000000000E+00 0. -1.
         23    2    1    2    0    0 -0.20044977371E+01  0.55430622403E+02 -0.53230553220E+02  0.11968957159E+03  0.91736197003E+02 0.  0.
         23    2    1    2    0    0  0.68810458347E+02 -0.46345212233E+02 -0.76562071212E+02  0.14488120665E+03  0.90807793810E+02 0.  0.
        -13    1    3    3    0    0  0.25117600852E+02  0.66932990036E+02 -0.54965312527E+02  0.90178182555E+02  0.00000000000E+00 0.  1.
         13    1    3    3    0    0 -0.27122098589E+02 -0.11502367633E+02  0.17347593068E+01  0.29511389037E+02  0.00000000000E+00 0. -1.
        -13    1    4    4    0    0  0.22335392173E+02  0.97566880352E+00  0.18464999420E+02  0.28996170035E+02  0.00000000000E+00 0.  1.
         13    1    4    4    0    0  0.46475066174E+02 -0.47320881036E+02 -0.95027070632E+02  0.11588503661E+03  0.00000000000E+00 0. -1.
         21    1    1    2  502  501 -0.43247190383E+02 -0.30793792607E+02  0.14283222315E+02  0.54978064525E+02  0.00000000000E+00 0.  1.
         21    1    1    2  503  502 -0.23558770226E+02  0.21708382437E+02 -0.36949061863E+02  0.48902992702E+02  0.00000000000E+00 0.  1.
<scales pt_clust_5="13000.00000" pt_clust_6="13000.00000" pt_clust_7="13000.00000" pt_clust_8="13000.00000" pt_clust_9="53.78757" pt_clust_10="32.03544"></scales>
<clustering>
<clus scale="   32.035">  2 10  1 -1</clus>
<clus scale="   53.788">  1  9  2 -1</clus>
<clus scale="   90.808">  7  8 -1 -1</clus>
<clus scale="   91.736">  5  6 -1 -1</clus>
<clus scale="  109.067">  2  7  1 -1</clus>
<clus scale="   32.035">  2  5  1 -1</clus>
</clustering>
</event>
<event>
10    2  0.1133532E-006  0.1035387E+03  0.7546771E-02  0.1275709E+00
         -1   -1    0    0    0  501 -0.00000000000E+00  0.00000000000E+00  0.25454509826E+02  0.25454509826E+02  0.00000000000E+00 0.  1.
          1   -1    0    0  502    0  0.00000000000E+00 -0.00000000000E+00 -0.10692292934E+04  0.10692292934E+04  0.00000000000E+00 0. -1.
         23    2    1    2    0    0 -0.13521632888E+02 -0.18584877900E+02 -0.18462986959E+03  0.20978522715E+03  0.96919660262E+02 0.  0.
         23    2    1    2    0    0  0.57506481307E+02 -0.33128258768E+02 -0.56263416931E+03  0.57385129080E+03  0.91343410007E+02 0.  0.
        -11    1    3    3    0    0 -0.28432083496E+02  0.78468907821E+01 -0.17568984933E+03  0.17814847803E+03  0.00000000000E+00 0. -1.
         11    1    3    3    0    0  0.14910450608E+02 -0.26431768682E+02 -0.89400202603E+01  0.31636749126E+02  0.00000000000E+00 0.  1.
        -13    1    4    4    0    0  0.39087763038E+02 -0.65123614848E+02 -0.38532088481E+03  0.39273543601E+03  0.00000000000E+00 0. -1.
         13    1    4    4    0    0  0.18418718269E+02  0.31995356080E+02 -0.17731328450E+03  0.18111585478E+03  0.00000000000E+00 0.  1.
         21    1    1    2  502  503 -0.15619496784E+02  0.60839506312E+02 -0.22433250610E+03  0.23296027022E+03  0.00000000000E+00 0.  1.
         21    1    1    2  503  501 -0.28365351634E+02 -0.91263696431E+01 -0.72178238566E+02  0.78087015046E+02  0.00000000000E+00 0. -1.
<scales pt_clust_5="13000.00000" pt_clust_6="13000.00000" pt_clust_7="13000.00000" pt_clust_8="13000.00000" pt_clust_9="62.72983" pt_clust_10="29.79738"></scales>
<clustering>
<clus scale="   29.797">  1 10  2 -1</clus>
<clus scale="   62.730">  2  9  1 -1</clus>
<clus scale="   91.343">  7  8 -1 -1</clus>
<clus scale="   96.920">  5  6 -1 -1</clus>
<clus scale="   98.338">  2  7  1 -1</clus>
<clus scale="   62.730">  2  5  1 -1</clus>
</clustering>
</event>
<event>
10    2  0.1133532E-006  0.1257714E+03  0.7546771E-02  0.1234686E+00
         -1   -1    0    0    0  501 -0.00000000000E+00  0.00000000000E+00  0.69525159585E+02  0.69525159585E+02  0.00000000000E+00 0.  1.
          1   -1    0    0  503    0  0.00000000000E+00 -0.00000000000E+00 -0.66514948883E+03  0.66514948883E+03  0.00000000000E+00 0. -1.
         23    2    1    2    0    0 -0.16168111137E+01 -0.51636087609E+02 -0.13194181013E+03  0.17003841472E+03  0.93997455286E+02 0.  0.
         23    2    1    2    0    0  0.10563939058E+03  0.65825937026E+02 -0.32189844938E+03  0.35842482274E+03  0.96731623645E+02 0.  0.
        -11    1    3    3    0    0  0.33745186689E+02 -0.92180881641E+01 -0.10329894876E+02  0.36474888652E+02  0.00000000000E+00 0.  1.
         11    1    3    3    0    0 -0.35361997802E+02 -0.42417999445E+02 -0.12161191525E+03  0.13356352607E+03  0.00000000000E+00 0. -1.
        -11    1    4    4    0    0  0.73222364937E+02  0.87700768506E+02 -0.27205340007E+03  0.29506946981E+03  0.00000000000E+00 0.  1.
         11    1    4    4    0    0  0.32417025646E+02 -0.21874831480E+02 -0.49845049311E+02  0.63355352929E+02  0.00000000000E+00 0. -1.
         21    1    1    2  502  501 -0.16797951280E+02  0.26220320203E+02  0.41970918966E+01  0.31421202064E+02  0.00000000000E+00 0.  1.
         21    1    1    2  503  502 -0.87224628189E+02 -0.40410169621E+02 -0.14598116163E+03  0.17479020889E+03  0.00000000000E+00 0. -1.
<scales pt_clust_5="13000.00000" pt_clust_6="13000.00000" pt_clust_7="13000.00000" pt_clust_8="13000.00000" pt_clust_9="31.13963" pt_clust_10="97.68472"></scales>
<clustering>
<clus scale="   31.140">  1  9  2 -1</clus>
<clus scale="   93.997">  5  6 -1 -1</clus>
<clus scale="   96.732">  7  8 -1 -1</clus>
<clus scale="   97.685">  1 10  2 -1</clus>
<clus scale="  123.681">  1  5  2 -1</clus>
<clus scale="  125.771">  2  5  1 -1</clus>
</clustering>
</event>
<event>
10    2  0.1133532E-006  0.4274314E+03  0.7546771E-02  0.1034698E+00
         -1   -1    0    0    0  501 -0.00000000000E+00  0.00000000000E+00  0.39162390622E+03  0.39162390622E+03  0.00000000000E+00 0.  1.
          1   -1    0    0  503    0  0.00000000000E+00 -0.00000000000E+00 -0.16207318984E+04  0.16207318984E+04  0.00000000000E+00 0. -1.
         23    2    1    2    0    0 -0.15673341763E+03 -0.43322762395E+03  0.11142766539E+03  0.48288840231E+03  0.92268879416E+02 0.  0.
         23    2    1    2    0    0  0.19502372763E+03  0.29361983107E+03 -0.12445848064E+04  0.12967242283E+04  0.90859916337E+02 0.  0.
        -11    1    4    4    0    0  0.10118208673E+03  0.12945713418E+03 -0.42612265696E+03  0.45670283888E+03  0.00000000000E+00 0.  1.
         11    1    4    4    0    0  0.93841640898E+02  0.16416269689E+03 -0.81846214942E+03  0.84002138941E+03  0.00000000000E+00 0. -1.
        -11    1    3    3    0    0 -0.11026737187E+03 -0.24943843560E+03  0.10787265231E+03  0.29328302980E+03  0.00000000000E+00 0. -1.
         11    1    3    3    0    0 -0.46466045763E+02 -0.18378918835E+03  0.35550130775E+01  0.18960537250E+03  0.00000000000E+00 0.  1.
         21    1    1    2  502  501 -0.24542961541E+02  0.52145291861E+02  0.40249301857E+02  0.70295766049E+02  0.00000000000E+00 0. -1.
         21    1    1    2  503  502 -0.13747348451E+02  0.87462501023E+02 -0.13620015302E+03  0.16244740798E+03  0.00000000000E+00 0. -1.
<scales pt_clust_5="13000.00000" pt_clust_6="13000.00000" pt_clust_7="13000.00000" pt_clust_8="13000.00000" pt_clust_9="57.63236" pt_clust_10="90.69710"></scales>
<clustering>
<clus scale="   57.632">  1  9  2 -1</clus>
<clus scale="   90.697">  2 10  1 -1</clus>
<clus scale="   90.860">  5  6 -1 -1</clus>
<clus scale="   92.269">  7  8 -1 -1</clus>
<clus scale="  427.130">  2  5  1 -1</clus>
<clus scale="   90.697">  2  5  1 -1</clus>
</clustering>
</event>
<event>
10    2  0.1133532E-006  0.1195914E+03  0.7546771E-02  0.1244154E+00
         -2   -1    0    0    0  501 -0.00000000000E+00  0.00000000000E+00  0.18647784030E+03  0.18647784030E+03  0.00000000000E+00 0.  1.
          2   -1    0    0  503    0  0.00000000000E+00 -0.00000000000E+00 -0.23007191293E+03  0.23007191293E+03  0.00000000000E+00 0. -1.
         23    2    1    2    0    0  0.30030279128E+02  0.59953697527E+02  0.29864559435E+02  0.11736887272E+03  0.91582186382E+02 0.  0.
         23    2    1    2    0    0 -0.59666769519E+02 -0.10617923733E+03 -0.79798595751E+02  0.17137858176E+03  0.90380576333E+02 0.  0.
        -11    1    3    3    0    0 -0.21150212987E+02  0.58606676981E+02  0.16669281706E+02  0.64497589480E+02  0.00000000000E+00 0. -1.
         11    1    3    3    0    0  0.51180492115E+02  0.13470205460E+01  0.13195277729E+02  0.52871283243E+02  0.00000000000E+00 0.  1.
        -13    1    4    4    0    0  0.19681619177E+02 -0.36566419753E+02 -0.46109683971E+01  0.41781936487E+02  0.00000000000E+00 0.  1.
         13    1    4    4    0    0 -0.79348388697E+02 -0.69612817580E+02 -0.75187627354E+02  0.12959664528E+03  0.00000000000E+00 0. -1.
         21    1    1    2  502  501 -0.31519664894E+02 -0.70578018328E+00  0.33562823157E+02  0.46048349580E+02  0.00000000000E+00 0.  1.
         21    1    1    2  503  502  0.61156155286E+02  0.46931319989E+02 -0.27222859469E+02  0.81753949158E+02  0.00000000000E+00 0.  1.
<scales pt_clust_5="13000.00000" pt_clust_6="13000.00000" pt_clust_7="13000.00000" pt_clust_8="13000.00000" pt_clust_9="31.52757" pt_clust_10="72.44301"></scales>
<clustering>
<clus scale="   31.528">  1  9  2 -1</clus>
<clus scale="   72.443">  2 10  1 -1</clus>
<clus scale="   90.381">  7  8 -1 -1</clus>
<clus scale="   91.582">  5  6 -1 -1</clus>
<clus scale="  118.674">  2  7  1 -1</clus>
<clus scale="   72.443">  2  5  1 -1</clus>
</clustering>
</event>
<event>
10    2  0.1133532E-006  0.1446730E+03  0.7546771E-02  0.1207337E+00
         -1   -1    0    0    0  501 -0.00000000000E+00  0.00000000000E+00  0.41639533670E+03  0.41639533670E+03  0.00000000000E+00 0.  1.
          1   -1    0    0  503    0  0.00000000000E+00 -0.00000000000E+00 -0.79519525143E+02  0.79519525143E+02  0.00000000000E+00 0. -1.
         23    2    1    2    0    0  0.39016105291E+01 -0.10995761676E+03  0.18678570349E+03  0.23503820928E+03  0.90819385295E+02 0.  0.
         23    2    1    2    0    0 -0.50289142844E+01  0.11635666063E+03  0.88641092634E+02  0.17266749065E+03  0.91611443456E+02 0.  0.
        -11    1    4    4    0    0 -0.18730838544E+02 -0.97020725864E+01  0.16499154166E+02  0.26780526755E+02  0.00000000000E+00 0. -1.
         11    1    4    4    0    0  0.13701924260E+02  0.12605873322E+03  0.72141938467E+02  0.14588696390E+03  0.00000000000E+00 0.  1.
        -11    1    3    3    0    0  0.33839656333E+02 -0.10112098745E+03  0.11538449385E+03  0.15711192782E+03  0.00000000000E+00 0. -1.
         11    1    3    3    0    0 -0.29938045804E+02 -0.88366293144E+01  0.71401209634E+02  0.77926281455E+02  0.00000000000E+00 0.  1.
         21    1    1    2  502  501 -0.23361474253E+02  0.15395417586E+01  0.57604319622E+02  0.62180272653E+02  0.00000000000E+00 0.  1.
         21    1    1    2  503  502  0.24488778008E+02 -0.79385856317E+01  0.38446958128E+01  0.26028889259E+02  0.00000000000E+00 0. -1.
<scales pt_clust_5="13000.00000" pt_clust_6="13000.00000" pt_clust_7="13000.00000" pt_clust_8="13000.00000" pt_clust_9="23.41215" pt_clust_10="24.79355"></scales>
<clustering>
<clus scale="   23.412">  1  9  2 -1</clus>
<clus scale="   24.794">  2 10  1 -1</clus>
<clus scale="   90.819">  7  8 -1 -1</clus>
<clus scale="   91.611">  5  6 -1 -1</clus>
<clus scale="  144.173">  1  7  2 -1</clus>
<clus scale="   24.794">  2  5  1 -1</clus>
</clustering>
</event>
<event>
10    2  0.1133532E-006  0.1598090E+03  0.7546771E-02  0.1189239E+00
          1   -1    0    0  503    0  0.00000000000E+00  0.00000000000E+00  0.91154224272E+03  0.91154224272E+03  0.00000000000E+00 0. -1.
         -1   -1    0    0    0  501 -0.00000000000E+00 -0.00000000000E+00 -0.26348266938E+03  0.26348266938E+03  0.00000000000E+00 0.  1.
         23    2    1    2    0    0 -0.11254233970E+03  0.52345938127E+02 -0.87842596156E+02  0.17797508802E+03  0.92482078224E+02 0.  0.
         23    2    1    2    0    0  0.94581806637E+02 -0.11719322927E+03  0.61654455424E+03  0.64108770951E+03  0.90478134261E+02 0.  0.
        -13    1    4    4    0    0  0.86205239604E+02 -0.76169015504E+02  0.55403051967E+03  0.56584704557E+03  0.00000000000E+00 0. -1.
         13    1    4    4    0    0  0.83765670325E+01 -0.41024213767E+02  0.62514034572E+02  0.75240663932E+02  0.00000000000E+00 0.  1.
        -13    1    3    3    0    0 -0.12678830397E+03  0.33495466577E+02 -0.73393373504E+02  0.15027909894E+03  0.00000000000E+00 0.  1.
         13    1    3    3    0    0  0.14245964270E+02  0.18850471551E+02 -0.14449222652E+02  0.27695989076E+02  0.00000000000E+00 0. -1.
         21    1    1    2  502  501  0.17104658793E+02  0.35724283740E+02 -0.11405575908E+03  0.12073735950E+03  0.00000000000E+00 0.  1.
         21    1    1    2  503  502  0.85587427067E+00  0.29123007403E+02  0.23341337433E+03  0.23522475507E+03  0.00000000000E+00 0.  1.
<scales pt_clust_5="13000.00000" pt_clust_6="13000.00000" pt_clust_7="13000.00000" pt_clust_8="13000.00000" pt_clust_9="39.73945" pt_clust_10="29.13558"></scales>
<clustering>
<clus scale="   29.136">  1 10  2 -1</clus>
<clus scale="   39.739">  2  9  1 -1</clus>
<clus scale="   90.478">  5  6 -1 -1</clus>
<clus scale="   92.482">  7  8 -1 -1</clus>
<clus scale="  158.658">  1  5  2 -1</clus>
<clus scale="   29.136">  1  5  2 -1</clus>
</clustering>
</event>
<event>
10    2  0.1133532E-006  0.1026323E+03  0.7546771E-02  0.1275951E+00
          1   -1    0    0  503    0  0.00000000000E+00  0.00000000000E+00  0.16053429968E+03  0.16053429968E+03  0.00000000000E+00 0. -1.
         -1   -1    0    0    0  501 -0.00000000000E+00 -0.00000000000E+00 -0.31122208341E+03  0.31122208341E+03  0.00000000000E+00 0.  1.
         23    2    1    2    0    0 -0.21263882016E+02  0.42950799271E+02 -0.80412845900E+02  0.13379300099E+03  0.95589839903E+02 0.  0.
         23    2    1    2    0    0  0.13169910956E+02 -0.50985102460E+02 -0.17788842459E+02  0.10859918923E+03  0.93297447760E+02 0.  0.
        -11    1    4    4    0    0  0.46326538237E+02 -0.55543549491E+02 -0.41121890814E+01  0.72444075908E+02  0.00000000000E+00 0. -1.
         11    1    4    4    0    0 -0.33156627281E+02  0.45584470306E+01 -0.13676653378E+02  0.36155113326E+02  0.00000000000E+00 0.  1.
        -13    1    3    3    0    0 -0.39979241335E+02  0.17226769672E+02  0.38719510263E+01  0.43704614582E+02  0.00000000000E+00 0. -1.
         13    1    3    3    0    0  0.18715359319E+02  0.25724029599E+02 -0.84284796927E+02  0.90088386411E+02  0.00000000000E+00 0.  1.
         21    1    1    2  502  501 -0.38043280269E+01 -0.50214997909E+02 -0.12548840480E+03  0.13521597046E+03  0.00000000000E+00 0. -1.
         21    1    1    2  503  502  0.11898299087E+02  0.58249301098E+02  0.73002309437E+02  0.94148222409E+02  0.00000000000E+00 0.  1.
<scales pt_clust_5="13000.00000" pt_clust_6="13000.00000" pt_clust_7="13000.00000" pt_clust_8="13000.00000" pt_clust_9="50.35890" pt_clust_10="56.53280"></scales>
<clustering>
<clus scale="   50.359">  2  9  1 -1</clus>
<clus scale="   56.533">  1 10  2 -1</clus>
<clus scale="   93.297">  5  6 -1 -1</clus>
<clus scale="   95.590">  7  8 -1 -1</clus>
<clus scale="  100.501">  1  5  2 -1</clus>
<clus scale="   56.533">  1  5  2 -1</clus>
</clustering>
</event>
<event>
10    2  0.1133532E-006  0.9847465E+02  0.7546771E-02  0.1285278E+00
         -1   -1    0    0    0  501 -0.00000000000E+00  0.00000000000E+00  0.41969537143E+02  0.41969537143E+02  0.00000000000E+00 0.  1.
          1   -1    0    0  503    0  0.00000000000E+00 -0.00000000000E+00 -0.38755804096E+03  0.38755804096E+03  0.00000000000E+00 0. -1.
         23    2    1    2    0    0 -0.18709090445E+02 -0.20253209228E+02 -0.14220868544E+03  0.17233648951E+03  0.93361302767E+02 0.  0.
         23    2    1    2    0    0  0.24949297710E+02  0.22656873839E+02 -0.11879605432E+03  0.15279744911E+03  0.89993091652E+02 0.  0.
        -11    1    3    3    0    0  0.10718534346E+02  0.30164252417E+02 -0.22426384789E+02  0.39085954474E+02  0.00000000000E+00 0.  1.
         11    1    3    3    0    0 -0.29427624791E+02 -0.50417461645E+02 -0.11978230065E+03  0.13325053504E+03  0.00000000000E+00 0. -1.
        -11    1    4    4    0    0  0.60876690360E+01  0.38169903183E+02 -0.81680583781E+01  0.39505928681E+02  0.00000000000E+00 0.  1.
         11    1    4    4    0    0  0.18861628674E+02 -0.15513029344E+02 -0.11062799594E+03  0.11329152043E+03  0.00000000000E+00 0. -1.
         21    1    1    2  502  501  0.15993175875E+02  0.13007228527E+02 -0.62823194078E+01  0.21550805221E+02  0.00000000000E+00 0.  1.
         21    1    1    2  503  502 -0.22233383140E+02 -0.15410893138E+02 -0.78301444649E+02  0.82842834255E+02  0.00000000000E+00 0. -1.
<scales pt_clust_5="13000.00000" pt_clust_6="13000.00000" pt_clust_7="13000.00000" pt_clust_8="13000.00000" pt_clust_9="20.61479" pt_clust_10="25.69305"></scales>
<clustering>
<clus scale="   20.615">  1  9  2 -1</clus>
<clus scale="   25.693">  2 10  1 -1</clus>
<clus scale="   89.993">  7  8 -1 -1</clus>
<clus scale="   93.361">  5  6 -1 -1</clus>
<clus scale="   95.287">  2  7  1 -1</clus>
<clus scale="   25.693">  2  5  1 -1</clus>
</clustering>
</event>
<event>
10    2  0.1133532E-006  0.1337038E+03  0.7546771E-02  0.1224605E+00
         -1   -1    0    0    0  501 -0.00000000000E+00  0.00000000000E+00  0.47757828058E+02  0.47757828058E+02  0.00000000000E+00 0. -1.
          1   -1    0    0  503    0  0.00000000000E+00 -0.00000000000E+00 -0.78802884399E+03  0.78802884399E+03  0.00000000000E+00 0.  1.
         23    2    1    2    0    0  0.17370859436E+02  0.11561239267E+03 -0.29347527986E+03  0.32599739865E+03  0.80489700843E+02 0.  0.
         23    2    1    2    0    0  0.39871995803E+02 -0.80302210557E+02 -0.35313114220E+03  0.37552648960E+03  0.90996262141E+02 0.  0.
        -11    1    3    3    0    0  0.26778932776E+02  0.13092033504E+02 -0.12543166017E+03  0.12892483840E+03  0.00000000000E+00 0.  1.
         11    1    3    3    0    0 -0.94080733404E+01  0.10252035917E+03 -0.16804361969E+03  0.19707256025E+03  0.00000000000E+00 0. -1.
        -13    1    4    4    0    0  0.46972839490E+02 -0.15357132985E+01 -0.10358497419E+03  0.11374819973E+03  0.00000000000E+00 0.  1.
         13    1    4    4    0    0 -0.71008436865E+01 -0.78766497258E+02 -0.24954616802E+03  0.26177828986E+03  0.00000000000E+00 0. -1.
         21    1    1    2  502  501 -0.30480366061E+02 -0.22219824693E+02 -0.18826738921E+01  0.37766622639E+02  0.00000000000E+00 0. -1.
         21    1    1    2  503  502 -0.26762489178E+02 -0.13090357421E+02 -0.91781919976E+02  0.96496161161E+02  0.00000000000E+00 0. -1.
<scales pt_clust_5="13000.00000" pt_clust_6="13000.00000" pt_clust_7="13000.00000" pt_clust_8="13000.00000" pt_clust_9="38.55813" pt_clust_10="29.79242"></scales>
<clustering>
<clus scale="   29.792">  2 10  1 -1</clus>
<clus scale="   38.558">  1  9  2 -1</clus>
<clus scale="   80.490">  5  6 -1 -1</clus>
<clus scale="   90.996">  7  8 -1 -1</clus>
<clus scale="  126.787">  1  5  2 -1</clus>
<clus scale="   29.792">  2  5  1 -1</clus>
</clustering>
</event>
<event>
10    2  0.1133532E-006  0.1260979E+03  0.7546771E-02  0.1234488E+00
          1   -1    0    0  503    0  0.00000000000E+00  0.00000000000E+00  0.45343177557E+03  0.45343177557E+03  0.00000000000E+00 0. -1.
         -1   -1    0    0    0  501 -0.00000000000E+00 -0.00000000000E+00 -0.24166322010E+03  0.24166322010E+03  0.00000000000E+00 0.  1.
         23    2    1    2    0    0 -0.26410678381E+02 -0.11593639169E+02 -0.15303786946E+03  0.18043311506E+03  0.91123998605E+02 0.  0.
         23    2    1    2    0    0  0.11629867001E+03  0.51106282053E+02  0.25140754667E+03  0.29483857705E+03  0.87102234639E+02 0.  0.
        -11    1    3    3    0    0  0.25240721497E+02 -0.11991055616E+02 -0.10909543104E+03  0.11261746095E+03  0.00000000000E+00 0.  1.
         11    1    3    3    0    0 -0.51651399878E+02  0.39741644682E+00 -0.43942438417E+02  0.67815654116E+02  0.00000000000E+00 0. -1.
        -13    1    4    4    0    0  0.71497409281E+02  0.17896023135E+01  0.64127165598E+02  0.96059229530E+02  0.00000000000E+00 0.  1.
         13    1    4    4    0    0  0.44801260732E+02  0.49316679740E+02  0.18728038107E+03  0.19877934752E+03  0.00000000000E+00 0. -1.
         21    1    1    2  502  501 -0.51027502025E+02 -0.33083683481E+02 -0.32324124486E+02  0.68870785529E+02  0.00000000000E+00 0. -1.
         21    1    1    2  503  502 -0.38860489607E+02 -0.64289594031E+01  0.14572300274E+03  0.15095251803E+03  0.00000000000E+00 0. -1.
<scales pt_clust_5="13000.00000" pt_clust_6="13000.00000" pt_clust_7="13000.00000" pt_clust_8="13000.00000" pt_clust_9="62.98344" pt_clust_10="39.38869"></scales>
<clustering>
<clus scale="   39.389">  1 10  2 -1</clus>
<clus scale="   62.983">  2  9  1 -1</clus>
<clus scale="   87.102">  7  8 -1 -1</clus>
<clus scale="   91.124">  5  6 -1 -1</clus>
<clus scale="  123.223">  1  7  2 -1</clus>
<clus scale="   39.389">  1  5  2 -1</clus>
</clustering>
</event>
<event>
10    2  0.1133532E-006  0.1248386E+03  0.7546771E-02  0.1235753E+00
          1   -1    0    0  503    0  0.00000000000E+00  0.00000000000E+00  0.16348198489E+03  0.16348198489E+03  0.00000000000E+00 0. -1.
         -1   -1    0    0    0  501 -0.00000000000E+00 -0.00000000000E+00 -0.31495561709E+03  0.31495561709E+03  0.00000000000E+00 0.  1.
         23    2    1    2    0    0 -0.41326797763E+02 -0.28981148116E+02 -0.13753450234E+03  0.17337174997E+03  0.92704979330E+02 0.  0.
         23    2    1    2    0    0  0.52297693411E+02  0.60775011726E+02  0.31570808501E+01  0.12149047910E+03  0.91221261590E+02 0.  0.
        -13    1    4    4    0    0  0.74637034007E+02  0.62561799616E+02 -0.53093582096E+01  0.97533865407E+02  0.00000000000E+00 0.  1.
         13    1    4    4    0    0 -0.22339340597E+02 -0.17867878905E+01  0.84664390596E+01  0.23956613693E+02  0.00000000000E+00 0. -1.
        -13    1    3    3    0    0  0.78614812161E+00  0.24722993852E+02 -0.81180220726E+02  0.84865026312E+02  0.00000000000E+00 0.  1.
         13    1    3    3    0    0 -0.42112945884E+02 -0.53704141968E+02 -0.56354281617E+02  0.88506723655E+02  0.00000000000E+00 0. -1.
         21    1    1    2  502  501 -0.31400824516E+02 -0.73168894780E+02 -0.75102667897E+02  0.10945368732E+03  0.00000000000E+00 0. -1.
         21    1    1    2  503  502  0.20429928868E+02  0.41375031170E+02  0.58006457194E+02  0.74121685586E+02  0.00000000000E+00 0.  1.
<scales pt_clust_5="13000.00000" pt_clust_6="13000.00000" pt_clust_7="13000.00000" pt_clust_8="13000.00000" pt_clust_9="71.49953" pt_clust_10="46.14407"></scales>
<clustering>
<clus scale="   46.144">  1 10  2 -1</clus>
<clus scale="   71.500">  2  9  1 -1</clus>
<clus scale="   91.221">  5  6 -1 -1</clus>
<clus scale="   92.705">  7  8 -1 -1</clus>
<clus scale="  123.741">  1  5  2 -1</clus>
<clus scale="   46.144">  1  5  2 -1</clus>
</clustering>
</event>
<event>
10    2  0.1133532E-006  0.1741322E+03  0.7546771E-02  0.1173648E+00
         -1   -1    0    0    0  501 -0.00000000000E+00  0.00000000000E+00  0.12808480418E+04  0.12808480418E+04  0.00000000000E+00 0.  1.
          1   -1    0    0  503    0  0.00000000000E+00 -0.00000000000E+00 -0.55142782402E+02  0.55142782402E+02  0.00000000000E+00 0. -1.
         23    2    1    2    0    0  0.84809120194E+02  0.12600140272E+03  0.53089823757E+03  0.55942025941E+03  0.89605511144E+02 0.  0.
         23    2    1    2    0    0 -0.17179353817E+02 -0.12599599744E+03  0.18263483929E+03  0.24002764595E+03  0.89931444614E+02 0.  0.
        -11    1    4    4    0    0  0.19020956310E+02 -0.69013955707E+02  0.14742941534E+03  0.16389068115E+03  0.00000000000E+00 0.  1.
         11    1    4    4    0    0 -0.36200310127E+02 -0.56982041729E+02  0.35205423948E+02  0.76136964795E+02  0.00000000000E+00 0. -1.
        -11    1    3    3    0    0 -0.77758699788E+01  0.48394903236E+02  0.23021661941E+03  0.23537676747E+03  0.00000000000E+00 0.  1.
         11    1    3    3    0    0  0.92584990173E+02  0.77606499482E+02  0.30068161816E+03  0.32404349194E+03  0.00000000000E+00 0. -1.
         21    1    1    2  502  501 -0.37215401714E+01  0.50396947308E+02  0.36397058632E+03  0.36746195703E+03  0.00000000000E+00 0. -1.
         21    1    1    2  503  502 -0.63908226205E+02 -0.50402352590E+02  0.14820159617E+03  0.16908096177E+03  0.00000000000E+00 0.  1.
<scales pt_clust_5="13000.00000" pt_clust_6="13000.00000" pt_clust_7="13000.00000" pt_clust_8="13000.00000" pt_clust_9="50.53417" pt_clust_10="76.83217"></scales>
<clustering>
<clus scale="   50.534">  1  9  2 -1</clus>
<clus scale="   76.832">  2 10  1 -1</clus>
<clus scale="   89.606">  7  8 -1 -1</clus>
<clus scale="   89.931">  5  6 -1 -1</clus>
<clus scale="  173.964">  1  7  2 -1</clus>
<clus scale="   76.832">  2  5  1 -1</clus>
</clustering>
</event>
<event>
10    2  0.1133532E-006  0.2164032E+03  0.7546771E-02  0.1169132E+00
         -1   -1    0    0    0  501 -0.00000000000E+00  0.00000000000E+00  0.19642615742E+03  0.19642615742E+03  0.00000000000E+00 0.  1.
          1   -1    0    0  503    0  0.00000000000E+00 -0.00000000000E+00 -0.93979960939E+03  0.93979960939E+03  0.00000000000E+00 0. -1.
         23    2    1    2    0    0 -0.17904594516E+03  0.10912063963E+03  0.87437109719E+02  0.24559162455E+03  0.93301840383E+02 0.  0.
         23    2    1    2    0    0  0.15741093550E+02 -0.47847047322E+02 -0.29089980096E+03  0.30779441882E+03  0.87049342897E+02 0.  0.
        -11    1    4    4    0    0  0.47128036265E+02 -0.47622579290E+02 -0.22566861541E+03  0.23540451534E+03  0.00000000000E+00 0.  1.
         11    1    4    4    0    0 -0.31386942715E+02 -0.22446803209E+00 -0.65231185549E+02  0.72389903488E+02  0.00000000000E+00 0. -1.
        -13    1    3    3    0    0 -0.15773803133E+03  0.87485809184E+02  0.10675772129E+03  0.20960024903E+03  0.00000000000E+00 0.  1.
         13    1    3    3    0    0 -0.21307913829E+02  0.21634830448E+02 -0.19320611571E+02  0.35991375519E+02  0.00000000000E+00 0. -1.
         21    1    1    2  502  501  0.19494803980E+02  0.11087374406E+02 -0.33846979463E+01  0.22681125052E+02  0.00000000000E+00 0.  1.
         21    1    1    2  503  502  0.14381004763E+03 -0.72360966716E+02 -0.53652606279E+03  0.56015859840E+03  0.00000000000E+00 0. -1.
<scales pt_clust_5="13000.00000" pt_clust_6="13000.00000" pt_clust_7="13000.00000" pt_clust_8="13000.00000" pt_clust_9="22.42715" pt_clust_10="195.25656"></scales>
<clustering>
<clus scale="   22.427">  1  9  2 -1</clus>
<clus scale="   87.049">  5  6 -1 -1</clus>
<clus scale="   93.302">  7  8 -1 -1</clus>
<clus scale="  100.476">  2  5  1 -1</clus>
<clus scale="  195.257">  2 10  1 -1</clus>
<clus scale="  100.476">  2  5  1 -1</clus>
</clustering>
</event>
<event>
10    2  0.1133532E-006  0.1565835E+03  0.7546771E-02  0.1192957E+00
         -2   -1    0    0    0  501 -0.00000000000E+00  0.00000000000E+00  0.21172076728E+03  0.21172076728E+03  0.00000000000E+00 0.  1.
          2   -1    0    0  503    0  0.00000000000E+00 -0.00000000000E+00 -0.43760321148E+03  0.43760321148E+03  0.00000000000E+00 0. -1.
         23    2    1    2    0    0 -0.36368398830E+02  0.38271081710E+01  0.10056170363E+03  0.14156277882E+03  0.92682559963E+02 0.  0.
         23    2    1    2    0    0  0.13601439988E+03  0.44601595899E+02 -0.30243945762E+03  0.34666476630E+03  0.90651063644E+02 0.  0.
        -11    1    3    3    0    0 -0.85720698799E+01 -0.41366319531E+02  0.24535760527E+02  0.48853416648E+02  0.00000000000E+00 0.  1.
         11    1    3    3    0    0 -0.27796328950E+02  0.45193427702E+02  0.76025943099E+02  0.92709362173E+02  0.00000000000E+00 0. -1.
        -11    1    4    4    0    0  0.39877337760E+02  0.74217574894E+01 -0.18936224404E+03  0.19365780133E+03  0.00000000000E+00 0.  1.
         11    1    4    4    0    0  0.96137062122E+02  0.37179838410E+02 -0.11307721358E+03  0.15300696497E+03  0.00000000000E+00 0. -1.
         21    1    1    2  502  501  0.12858064360E+01 -0.51592984088E+02  0.13549547954E+02  0.53358031776E+02  0.00000000000E+00 0.  1.
         21    1    1    2  503  502 -0.10093180749E+03  0.31642800175E+01 -0.37554238167E+02  0.10773840186E+03  0.00000000000E+00 0.  1.
<scales pt_clust_5="13000.00000" pt_clust_6="13000.00000" pt_clust_7="13000.00000" pt_clust_8="13000.00000" pt_clust_9="51.60900" pt_clust_10="100.92119"></scales>
<clustering>
<clus scale="   51.609">  1  9  2 -1</clus>
<clus scale="   90.651">  7  8 -1 -1</clus>
<clus scale="   92.683">  5  6 -1 -1</clus>
<clus scale="  100.921">  1 10  2 -1</clus>
<clus scale="  155.390">  2  7  1 -1</clus>
<clus scale="  155.390">  2  5  1 -1</clus>
</clustering>
</event>
<event>
10    2  0.1133532E-006  0.2241059E+03  0.7546771E-02  0.1132421E+00
          2   -1    0    0  503    0  0.00000000000E+00  0.00000000000E+00  0.17149704788E+04  0.17149704788E+04  0.00000000000E+00 0. -1.
         -2   -1    0    0    0  501 -0.00000000000E+00 -0.00000000000E+00 -0.12286973843E+03  0.12286973843E+03  0.00000000000E+00 0.  1.
         23    2    1    2    0    0  0.16656883845E+03  0.15535785930E+03  0.69768676690E+02  0.25526959923E+03  0.91725992240E+02 0.  0.
         23    2    1    2    0    0 -0.74660768370E+01 -0.18395209175E+03  0.59468519162E+03  0.62630595490E+03  0.68662636473E+02 0.  0.
        -11    1    3    3    0    0  0.10590908873E+03  0.15126458687E+03  0.55568389694E+02  0.19283556790E+03  0.00000000000E+00 0.  1.
         11    1    3    3    0    0  0.60659749728E+02  0.40932724264E+01  0.14200286996E+02  0.62434031321E+02  0.00000000000E+00 0. -1.
        -11    1    4    4    0    0 -0.30776244774E+02 -0.40542421501E+02  0.13958524103E+03  0.14857625886E+03  0.00000000000E+00 0.  1.
         11    1    4    4    0    0  0.23310167937E+02 -0.14340967025E+03  0.45509995059E+03  0.47772969604E+03  0.00000000000E+00 0. -1.
         21    1    1    2  502  501  0.10000178093E+02 -0.18443008295E+02  0.12465786440E+02  0.24403769144E+02  0.00000000000E+00 0. -1.
         21    1    1    2  503  502 -0.16910293971E+03  0.47037240748E+02  0.91518108558E+03  0.93186089393E+03  0.00000000000E+00 0.  1.
<scales pt_clust_5="13000.00000" pt_clust_6="13000.00000" pt_clust_7="13000.00000" pt_clust_8="13000.00000" pt_clust_9="20.97971" pt_clust_10="174.48633"></scales>
<clustering>
<clus scale="   20.980">  2  9  1 -1</clus>
<clus scale="   68.663">  7  8 -1 -1</clus>
<clus scale="   91.726">  5  6 -1 -1</clus>
<clus scale="  174.486">  1 10  2 -1</clus>
<clus scale="  215.695">  1  7  2 -1</clus>
<clus scale="  174.486">  1  5  2 -1</clus>
</clustering>
</event>
<event>
10    2  0.1133532E-006  0.1102635E+03  0.7546771E-02  0.1260910E+00
          1   -1    0    0  503    0  0.00000000000E+00  0.00000000000E+00  0.29202323521E+03  0.29202323521E+03  0.00000000000E+00 0. -1.
         -1   -1    0    0    0  501 -0.00000000000E+00 -0.00000000000E+00 -0.53497915965E+03  0.53497915965E+03  0.00000000000E+00 0.  1.
         23    2    1    2    0    0 -0.19521756265E+02 -0.77412317218E+02 -0.24088050444E+03  0.27012121385E+03  0.92565041608E+02 0.  0.
         23    2    1    2    0    0 -0.88426560704E+02  0.19481056731E+02 -0.21581276998E+03  0.25090504942E+03  0.90440167667E+02 0.  0.
        -11    1    4    4    0    0 -0.76406640687E+02  0.44519249615E+02 -0.10806469784E+03  0.13963494279E+03  0.00000000000E+00 0. -1.
         11    1    4    4    0    0 -0.12019920016E+02 -0.25038192885E+02 -0.10774807214E+03  0.11127010663E+03  0.00000000000E+00 0.  1.
        -11    1    3    3    0    0 -0.45010985820E+02 -0.75226630532E+02 -0.13331550890E+03  0.15955582001E+03  0.00000000000E+00 0.  1.
         11    1    3    3    0    0  0.25489229555E+02 -0.21856866866E+01 -0.10756499554E+03  0.11056539384E+03  0.00000000000E+00 0. -1.
         21    1    1    2  502  501  0.46818079224E+02  0.77459457727E+01 -0.25592759456E+02  0.53915874793E+02  0.00000000000E+00 0. -1.
         21    1    1    2  503  502  0.61130237745E+02  0.50185314715E+02  0.23933010943E+03  0.25206025680E+03  0.00000000000E+00 0. -1.
<scales pt_clust_5="13000.00000" pt_clust_6="13000.00000" pt_clust_7="13000.00000" pt_clust_8="13000.00000" pt_clust_9="47.45453" pt_clust_10="79.62039"></scales>
<clustering>
<clus scale="   47.455">  2  9  1 -1</clus>
<clus scale="   79.620">  1 10  2 -1</clus>
<clus scale="   90.440">  5  6 -1 -1</clus>
<clus scale="   92.565">  7  8 -1 -1</clus>
<clus scale="  108.486">  1  5  2 -1</clus>
<clus scale="   79.620">  1  5  2 -1</clus>
</clustering>
</event>
<event>
10    2  0.1133532E-006  0.9405099E+02  0.7546771E-02  0.1296453E+00
         -1   -1    0    0    0  501 -0.00000000000E+00  0.00000000000E+00  0.49837884567E+03  0.49837884567E+03  0.00000000000E+00 0.  1.
          1   -1    0    0  503    0  0.00000000000E+00 -0.00000000000E+00 -0.36764926808E+02  0.36764926808E+02  0.00000000000E+00 0. -1.
         23    2    1    2    0    0 -0.14584178827E+02 -0.77088380902E+01  0.20159778054E+03  0.21986944900E+03  0.86190399870E+02 0.  0.
         23    2    1    2    0    0  0.26062832084E+02  0.11741835653E+02  0.13390277924E+03  0.16475984833E+03  0.91644483806E+02 0.  0.
        -11    1    3    3    0    0  0.21604914340E+01 -0.36556803284E+02  0.37495839566E+02  0.52411883904E+02  0.00000000000E+00 0. -1.
         11    1    3    3    0    0 -0.16744670261E+02  0.28847965193E+02  0.16410194097E+03  0.16745756510E+03  0.00000000000E+00 0.  1.
        -13    1    4    4    0    0  0.54264263061E+02  0.26852871940E+02  0.65220628262E+02  0.88991108139E+02  0.00000000000E+00 0.  1.
         13    1    4    4    0    0 -0.28201430977E+02 -0.15111036287E+02  0.68682150979E+02  0.75768740190E+02  0.00000000000E+00 0. -1.
         21    1    1    2  502  501 -0.95497324799E+01  0.31196099448E+02  0.10371033278E+03  0.10872086799E+03  0.00000000000E+00 0.  1.
         21    1    1    2  503  502 -0.19289207765E+01 -0.35229097011E+02  0.22403026299E+02  0.41793607153E+02  0.00000000000E+00 0. -1.
<scales pt_clust_5="13000.00000" pt_clust_6="13000.00000" pt_clust_7="13000.00000" pt_clust_8="13000.00000" pt_clust_9="32.62505" pt_clust_10="32.78795"></scales>
<clustering>
<clus scale="   32.625">  1  9  2 -1</clus>
<clus scale="   32.788">  2 10  1 -1</clus>
<clus scale="   86.190">  5  6 -1 -1</clus>
<clus scale="   88.745">  1  5  2 -1</clus>
<clus scale="   91.644">  7  8 -1 -1</clus>
<clus scale="   32.788">  2  5  1 -1</clus>
</clustering>
</event>
<event>
10    2  0.1133532E-006  0.4101851E+03  0.7546771E-02  0.1040591E+00
          2   -1    0    0  503    0  0.00000000000E+00  0.00000000000E+00  0.85732033757E+03  0.85732033757E+03  0.00000000000E+00 0. -1.
         -2   -1    0    0    0  501 -0.00000000000E+00 -0.00000000000E+00 -0.54338043125E+03  0.54338043125E+03  0.00000000000E+00 0.  1.
         23    2    1    2    0    0 -0.38606616200E+03 -0.22492125085E+03 -0.14381458609E+03  0.48057090572E+03  0.10309757382E+03 0.  0.
         23    2    1    2    0    0  0.22599142394E+03  0.35007429168E+03  0.50756770418E+03  0.66267463295E+03  0.88817573986E+02 0.  0.
        -13    1    4    4    0    0  0.78854435373E+02  0.11551502007E+03  0.23910394492E+03  0.27700620628E+03  0.00000000000E+00 0.  1.
         13    1    4    4    0    0  0.14713698856E+03  0.23455927160E+03  0.26846375926E+03  0.38566842668E+03  0.00000000000E+00 0. -1.
        -13    1    3    3    0    0 -0.33788678288E+03 -0.21319910185E+03 -0.15699300385E+03  0.42926464837E+03  0.00000000000E+00 0.  1.
         13    1    3    3    0    0 -0.48179379116E+02 -0.11722149003E+02  0.13178417761E+02  0.51306257356E+02  0.00000000000E+00 0. -1.
         21    1    1    2  502  501  0.13278869313E+03 -0.56853375561E+02 -0.93350414684E+02  0.17198675315E+03  0.00000000000E+00 0.  1.
         21    1    1    2  503  502  0.27286044933E+02 -0.68299665262E+02  0.43537202909E+02  0.85468476996E+02  0.00000000000E+00 0. -1.
<scales pt_clust_5="13000.00000" pt_clust_6="13000.00000" pt_clust_7="13000.00000" pt_clust_8="13000.00000" pt_clust_9="147.04751" pt_clust_10="73.54844"></scales>
<clustering>
<clus scale="   73.548">  1 10  2 -1</clus>
<clus scale="   88.818">  5  6 -1 -1</clus>
<clus scale="  103.098">  7  8 -1 -1</clus>
<clus scale="  147.048">  2  9  1 -1</clus>
<clus scale="  406.831">  1  5  2 -1</clus>
<clus scale="   73.548">  1  5  2 -1</clus>
</clustering>
</event>
<event>
10    2  0.1133532E-006  0.1044554E+03  0.7546771E-02  0.1271247E+00
         -2   -1    0    0    0  501 -0.00000000000E+00  0.00000000000E+00  0.19039565887E+03  0.19039565887E+03  0.00000000000E+00 0.  1.
          2   -1    0    0  503    0  0.00000000000E+00 -0.00000000000E+00 -0.21796713558E+03  0.21796713558E+03  0.00000000000E+00 0. -1.
         23    2    1    2    0    0  0.29121784205E+01  0.60078347798E+01  0.79451534250E+02  0.12190888713E+03  0.92220689673E+02 0.  0.
         23    2    1    2    0    0  0.35845594635E+02  0.71258382339E+02 -0.70982546310E+02  0.14101242524E+03  0.92104931921E+02 0.  0.
        -11    1    3    3    0    0  0.18220615352E+02 -0.30138927772E+02  0.22377360307E+01  0.35289562956E+02  0.00000000000E+00 0.  1.
         11    1    3    3    0    0 -0.15308436932E+02  0.36146762552E+02  0.77213798219E+02  0.86619324170E+02  0.00000000000E+00 0. -1.
        -13    1    4    4    0    0 -0.11482075306E+02  0.55210854289E+02 -0.71466326999E+02  0.91035775272E+02  0.00000000000E+00 0. -1.
         13    1    4    4    0    0  0.47327669941E+02  0.16047528050E+02  0.48378068890E+00  0.49976649971E+02  0.00000000000E+00 0.  1.
         21    1    1    2  502  501 -0.34480369752E+02 -0.57109778051E+02  0.32258827768E+02  0.74101650563E+02  0.00000000000E+00 0.  1.
         21    1    1    2  503  502 -0.42774033036E+01 -0.20156439068E+02 -0.68299292421E+02  0.71339831511E+02  0.00000000000E+00 0.  1.
<scales pt_clust_5="13000.00000" pt_clust_6="13000.00000" pt_clust_7="13000.00000" pt_clust_8="13000.00000" pt_clust_9="69.46705" pt_clust_10="20.60530"></scales>
<clustering>
<clus scale="   20.605">  2 10  1 -1</clus>
<clus scale="   69.467">  1  9  2 -1</clus>
<clus scale="   92.105">  7  8 -1 -1</clus>
<clus scale="   92.221">  5  6 -1 -1</clus>
<clus scale="  104.353">  2  7  1 -1</clus>
<clus scale="   20.605">  2  5  1 -1</clus>
</clustering>
</event>
<event>
10    2  0.1133532E-006  0.1165897E+03  0.7546771E-02  0.1249301E+00
         -2   -1    0    0    0  501 -0.00000000000E+00  0.00000000000E+00  0.18974148339E+02  0.18974148339E+02  0.00000000000E+00 0.  1.
          2   -1    0    0  503    0  0.00000000000E+00 -0.00000000000E+00 -0.11573683963E+04  0.11573683963E+04  0.00000000000E+00 0. -1.
         23    2    1    2    0    0  0.33104385032E+02  0.57193723019E+02 -0.38677756246E+03  0.40266429091E+03  0.90413638867E+02 0.  0.
         23    2    1    2    0    0 -0.64040803534E+02 -0.45432933930E+02 -0.65860821949E+03  0.66959535304E+03  0.91802908595E+02 0.  0.
        -11    1    3    3    0    0  0.59346208520E+02  0.31321780404E+02 -0.16978731912E+03  0.18256713868E+03  0.00000000000E+00 0.  1.
         11    1    3    3    0    0 -0.26241823488E+02  0.25871942615E+02 -0.21699024334E+03  0.22009715223E+03  0.00000000000E+00 0. -1.
        -13    1    4    4    0    0  0.20018289571E+02  0.68174001032E+01 -0.91213225694E+02  0.93632587292E+02  0.00000000000E+00 0.  1.
         13    1    4    4    0    0 -0.84059093104E+02 -0.52250334033E+02 -0.56739499380E+03  0.57596276575E+03  0.00000000000E+00 0. -1.
         21    1    1    2  502  501  0.18747953672E+02  0.87042406246E+01 -0.27670424468E+02  0.34538412847E+02  0.00000000000E+00 0.  1.
         21    1    1    2  503  502  0.12188464830E+02 -0.20465029714E+02 -0.65338041498E+02  0.69544487797E+02  0.00000000000E+00 0.  1.
<scales pt_clust_5="13000.00000" pt_clust_6="13000.00000" pt_clust_7="13000.00000" pt_clust_8="13000.00000" pt_clust_9="20.67002" pt_clust_10="24.26599"></scales>
<clustering>
<clus scale="   20.670">  1  9  2 -1</clus>
<clus scale="   24.266">  1 10  2 -1</clus>
<clus scale="   90.414">  5  6 -1 -1</clus>
<clus scale="   91.803">  7  8 -1 -1</clus>
<clus scale="  115.499">  1  5  2 -1</clus>
<clus scale="  116.590">  2  5  1 -1</clus>
</clustering>
</event>
<event>
10    2  0.1133532E-006  0.9848855E+02  0.7546771E-02  0.1284971E+00
         -1   -1    0    0    0  501 -0.00000000000E+00  0.00000000000E+00  0.88605194621E+02  0.88605194621E+02  0.00000000000E+00 0.  1.
          1   -1    0    0  503    0  0.00000000000E+00 -0.00000000000E+00 -0.34134816242E+03  0.34134816242E+03  0.00000000000E+00 0. -1.
         23    2    1    2    0    0  0.49544421754E+02  0.18741277444E+00 -0.10738603933E+03  0.15089986088E+03  0.93724712425E+02 0.  0.
         23    2    1    2    0    0 -0.65824235395E+01 -0.17505719867E+02 -0.13145200638E+03  0.16090756990E+03  0.90894650796E+02 0.  0.
        -11    1    3    3    0    0  0.48250341405E+02 -0.41900984249E+02 -0.65107720467E+02  0.91229398722E+02  0.00000000000E+00 0. -1.
         11    1    3    3    0    0  0.12940803491E+01  0.42088397023E+02 -0.42278318862E+02  0.59670462155E+02  0.00000000000E+00 0.  1.
        -11    1    4    4    0    0 -0.19235084420E+02  0.23679326869E+02 -0.10102695756E+02  0.32136637272E+02  0.00000000000E+00 0.  1.
         11    1    4    4    0    0  0.12652660880E+02 -0.41185046736E+02 -0.12134931062E+03  0.12877093263E+03  0.00000000000E+00 0. -1.
         21    1    1    2  502  501 -0.19390412235E+02  0.48417439289E+02  0.29384819686E+02  0.59864047156E+02  0.00000000000E+00 0.  1.
         21    1    1    2  503  502 -0.23571585980E+02 -0.31099132196E+02 -0.43289741776E+02  0.58281879105E+02  0.00000000000E+00 0.  1.
<scales pt_clust_5="13000.00000" pt_clust_6="13000.00000" pt_clust_7="13000.00000" pt_clust_8="13000.00000" pt_clust_9="51.13142" pt_clust_10="39.02276"></scales>
<clustering>
<clus scale="   39.023">  2 10  1 -1</clus>
<clus scale="   51.131">  1  9  2 -1</clus>
<clus scale="   90.895">  7  8 -1 -1</clus>
<clus scale="   93.725">  5  6 -1 -1</clus>
<clus scale="   95.799">  2  7  1 -1</clus>
<clus scale="   39.023">  2  5  1 -1</clus>
</clustering>
</event>
<event>
10    2  0.1133532E-006  0.1538135E+03  0.7546771E-02  0.1202963E+00
         -1   -1    0    0    0  501 -0.00000000000E+00  0.00000000000E+00  0.94613602557E+03  0.94613602557E+03  0.00000000000E+00 0.  1.
          1   -1    0    0  503    0  0.00000000000E+00 -0.00000000000E+00 -0.91120642240E+02  0.91120642240E+02  0.00000000000E+00 0. -1.
         23    2    1    2    0    0  0.60103641003E+02  0.29663370116E+02  0.67484565196E+03  0.68877238214E+03  0.12040920744E+03 0.  0.
         23    2    1    2    0    0 -0.48563624598E+02 -0.70993176138E+02 -0.88644263605E+00  0.12495683546E+03  0.90636462068E+02 0.  0.
        -11    1    4    4    0    0  0.18426565529E+02  0.79575005051E+01  0.66418298035E+01  0.21141760443E+02  0.00000000000E+00 0.  1.
         11    1    4    4    0    0 -0.66990190127E+02 -0.78950676643E+02 -0.75282724396E+01  0.10381507502E+03  0.00000000000E+00 0. -1.
        -13    1    3    3    0    0 -0.96909446467E+01  0.60604577976E+02  0.28863670766E+03  0.29508978005E+03  0.00000000000E+00 0.  1.
         13    1    3    3    0    0  0.69794585650E+02 -0.30941207860E+02  0.38620894430E+03  0.39368260209E+03  0.00000000000E+00 0. -1.
         21    1    1    2  502  501  0.24769835595E+02  0.28416513432E+02  0.18110806667E+03  0.18498966134E+03  0.00000000000E+00 0.  1.
         21    1    1    2  503  502 -0.36309852000E+02  0.12913292590E+02 -0.51892666450E-01  0.38537788865E+02  0.00000000000E+00 0. -1.
<scales pt_clust_5="13000.00000" pt_clust_6="13000.00000" pt_clust_7="13000.00000" pt_clust_8="13000.00000" pt_clust_9="37.69672" pt_clust_10="38.19959"></scales>
<clustering>
<clus scale="   37.697">  1  9  2 -1</clus>
<clus scale="   38.200">  2 10  1 -1</clus>
<clus scale="   90.636">  5  6 -1 -1</clus>
<clus scale="  120.409">  7  8 -1 -1</clus>
<clus scale="  131.815">  2  5  1 -1</clus>
<clus scale="   38.200">  2  5  1 -1</clus>
</clustering>
</event>
