<event>
10    4  0.7204077E-005  0.1286977E+03  0.7546771E-02  0.1245052E+00
          2   -1    0    0  503    0 -0.00000000000E+00  0.00000000000E+00  0.32920931251E+02  0.32920931251E+02  0.00000000000E+00 0. -1.
         21   -1    0    0  501  502  0.00000000000E+00 -0.00000000000E+00 -0.14961815895E+04  0.14961815895E+04  0.00000000000E+00 0. -1.
         23    2    1    2    0    0 -0.45764318353E+02  0.25083280842E+00 -0.24331412136E+03  0.26289974230E+03  0.88431199798E+02 0.  0.
         24    2    1    2    0    0 -0.59229704336E+01 -0.80586630145E+02 -0.48304399364E+03  0.49612909707E+03  0.79267235582E+02 0.  0.
        -11    1    4    4    0    0 -0.17144798294E+02 -0.45180005444E+02 -0.97683323836E+02  0.10898260759E+03  0.00000000000E+00 0.  1.
         12    1    4    4    0    0  0.11221827860E+02 -0.35406624701E+02 -0.38536066980E+03  0.38714648949E+03  0.00000000000E+00 0. -1.
        -13    1    3    3    0    0 -0.45378191588E+02 -0.34062789231E+02 -0.94889113098E+02  0.11055947570E+03  0.00000000000E+00 0. -1.
         13    1    3    3    0    0 -0.38612676453E+00  0.34313622040E+02 -0.14842500826E+03  0.15234026661E+03  0.00000000000E+00 0.  1.
         21    1    1    2  503  502 -0.30329678390E+02  0.12135048210E+03 -0.51495011280E+03  0.52992400169E+03  0.00000000000E+00 0. -1.
          1    1    1    2  501    0  0.82016967177E+02 -0.41014684761E+02 -0.22195243050E+03  0.24014967973E+03  0.00000000000E+00 0. -1.
<scales pt_clust_5="13000.00000" pt_clust_6="13000.00000" pt_clust_7="13000.00000" pt_clust_8="13000.00000" pt_clust_9="101.38931" pt_clust_10="91.70058"></scales>
<clustering>
<clus scale="   79.267">  5  6 -1 -1</clus>
<clus scale="   88.431">  7  8 -1 -1</clus>
<clus scale="   91.701">  2 10  1 -1</clus>
<clus scale="   93.515">  1  7  2 -1</clus>
<clus scale="  101.389">  2  9  1 -1</clus>
<clus scale="   91.701">  2  5  1 -1</clus>
</clustering>
</event>
<event>
10    4  0.7204077E-005  0.1708847E+03  0.7546771E-02  0.1192943E+00
          2   -1    0    0  503    0 -0.00000000000E+00  0.00000000000E+00  0.71637973877E+03  0.71637973877E+03  0.00000000000E+00 0. -1.
         21   -1    0    0  501  502  0.00000000000E+00 -0.00000000000E+00 -0.47654452092E+03  0.47654452092E+03  0.00000000000E+00 0. -1.
         23    2    1    2    0    0 -0.27465594570E+02  0.71734108270E+02  0.25173182747E+03  0.27869361341E+03  0.91657383873E+02 0.  0.
         24    2    1    2    0    0  0.10217522783E+03 -0.89586962213E+02  0.11500415182E+03  0.19506918823E+03  0.79752318326E+02 0.  0.
        -13    1    4    4    0    0  0.24714411937E+02 -0.56462169674E+01 -0.86009764230E+01  0.26770482230E+02  0.00000000000E+00 0.  1.
         14    1    4    4    0    0  0.77460815892E+02 -0.83940745246E+02  0.12360512825E+03  0.16829870600E+03  0.00000000000E+00 0. -1.
        -11    1    3    3    0    0 -0.14263689018E+01  0.29318101835E+02  0.86959679377E+01  0.30613811945E+02  0.00000000000E+00 0. -1.
         11    1    3    3    0    0 -0.26039225668E+02  0.42416006436E+02  0.24303585953E+03  0.24807980146E+03  0.00000000000E+00 0.  1.
         21    1    1    2  503  502 -0.60719649546E+02 -0.16031858592E+03 -0.37561934240E+03  0.41289080302E+03  0.00000000000E+00 0. -1.
          1    1    1    2  501    0 -0.13989983713E+02  0.17817143987E+03  0.24871858096E+03  0.30627065505E+03  0.00000000000E+00 0. -1.
<scales pt_clust_5="13000.00000" pt_clust_6="13000.00000" pt_clust_7="13000.00000" pt_clust_8="13000.00000" pt_clust_9="170.88468" pt_clust_10="13000.00000"></scales>
<clustering>
<clus scale="   79.752">  5  6 -1 -1</clus>
<clus scale="   91.657">  7  8 -1 -1</clus>
<clus scale="  119.588">  1  7  2 -1</clus>
<clus scale="  138.482">  1  5  2 -1</clus>
<clus scale="  170.885">  2  9  1 -1</clus>
<clus scale="  170.885">  2  5  1 -1</clus>
</clustering>
</event>
<event>
10    4  0.7204077E-005  0.1474679E+03  0.7546771E-02  0.1208123E+00
         21   -1    0    0  503  502  0.00000000000E+00  0.00000000000E+00  0.24656849478E+03  0.24656849478E+03  0.00000000000E+00 0.  1.
          2   -1    0    0  502    0 -0.00000000000E+00 -0.00000000000E+00 -0.53582671268E+03  0.53582671268E+03  0.00000000000E+00 0. -1.
         23    2    1    2    0    0  0.10452152939E+03 -0.16514937643E+02 -0.10504358228E+02  0.13995267807E+03  0.90988555798E+02 0.  0.
         24    2    1    2    0    0  0.82599754661E+02 -0.89044539738E+02  0.99654809137E+02  0.17837017755E+03  0.84458212914E+02 0.  0.
        -11    1    4    4    0    0  0.36403602198E+02 -0.94556840725E+02  0.65399701824E+02  0.12059576850E+03  0.00000000000E+00 0.  1.
         12    1    4    4    0    0  0.46196152462E+02  0.55123009875E+01  0.34255107313E+02  0.57774409054E+02  0.00000000000E+00 0. -1.
        -11    1    3    3    0    0  0.94204553438E+02  0.24388342419E+02 -0.53898486235E+01  0.97459425417E+02  0.00000000000E+00 0.  1.
         11    1    3    3    0    0  0.10316975950E+02 -0.40903280062E+02 -0.51145096047E+01  0.42493252653E+02  0.00000000000E+00 0. -1.
         21    1    1    2  503  501 -0.28490904654E+02 -0.74073758560E+01  0.87354559199E+01  0.30706824244E+02  0.00000000000E+00 0. -1.
          1    1    1    2  501    0 -0.15863037940E+03  0.11296685324E+03 -0.38714412472E+03  0.43336552759E+03  0.00000000000E+00 0. -1.
<scales pt_clust_5="13000.00000" pt_clust_6="13000.00000" pt_clust_7="13000.00000" pt_clust_8="13000.00000" pt_clust_9="29.43809" pt_clust_10="120.88679"></scales>
<clustering>
<clus scale="   29.438">  1  9  2 -1</clus>
<clus scale="   84.458">  5  6 -1 -1</clus>
<clus scale="   90.989">  7  8 -1 -1</clus>
<clus scale="  133.856">  2  7  1 -1</clus>
<clus scale="  120.887">  1 10  2 -1</clus>
<clus scale="   29.438">  1  5  2 -1</clus>
</clustering>
</event>
<event>
10    4  0.7204077E-005  0.1553810E+03  0.7546771E-02  0.1195793E+00
         21   -1    0    0  501  502  0.00000000000E+00  0.00000000000E+00  0.98106066604E+02  0.98106066604E+02  0.00000000000E+00 0.  1.
          2   -1    0    0  503    0 -0.00000000000E+00 -0.00000000000E+00 -0.65971187761E+03  0.65971187761E+03  0.00000000000E+00 0. -1.
         24    2    1    2    0    0 -0.98102884813E+02 -0.74879756352E+02 -0.42169401063E+03  0.44772022466E+03  0.86002366489E+02 0.  0.
         23    2    1    2    0    0  0.10552325292E+03  0.56001192943E+02 -0.93303270783E+02  0.17940185990E+03  0.95959556464E+02 0.  0.
        -13    1    3    3    0    0 -0.68697659849E+02 -0.32918597756E+01 -0.25190141784E+03  0.26112167493E+03  0.00000000000E+00 0.  1.
         14    1    3    3    0    0 -0.29405224963E+02 -0.71587896576E+02 -0.16979259279E+03  0.18659854972E+03  0.00000000000E+00 0. -1.
        -11    1    4    4    0    0  0.50706361860E+02  0.15578410271E+02 -0.97677872686E+02  0.11115209765E+03  0.00000000000E+00 0. -1.
         11    1    4    4    0    0  0.54816891064E+02  0.40422782672E+02  0.43746019028E+01  0.68249762246E+02  0.00000000000E+00 0.  1.
         21    1    1    2  503  502 -0.18012557882E+02 -0.16864217034E+02  0.33926733247E+02  0.41950891366E+02  0.00000000000E+00 0. -1.
          1    1    1    2  501    0  0.10592189771E+02  0.35742780442E+02 -0.80535262837E+02  0.88744968298E+02  0.00000000000E+00 0. -1.
<scales pt_clust_5="13000.00000" pt_clust_6="13000.00000" pt_clust_7="13000.00000" pt_clust_8="13000.00000" pt_clust_9="24.67497" pt_clust_10="35.83707"></scales>
<clustering>
<clus scale="   24.675">  1  9  2 -1</clus>
<clus scale="   35.837">  1 10  2 -1</clus>
<clus scale="   86.002">  5  6 -1 -1</clus>
<clus scale="   95.960">  7  8 -1 -1</clus>
<clus scale="  149.437">  2  5  1 -1</clus>
<clus scale="   24.675">  1  5  2 -1</clus>
</clustering>
</event>
<event>
10    4  0.7204077E-005  0.1119653E+03  0.7546771E-02  0.1260279E+00
          2   -1    0    0  503    0 -0.00000000000E+00  0.00000000000E+00  0.14111816347E+04  0.14111816347E+04  0.00000000000E+00 0. -1.
         21   -1    0    0  501  502  0.00000000000E+00 -0.00000000000E+00 -0.93778261994E+02  0.93778261994E+02  0.00000000000E+00 0. -1.
         24    2    1    2    0    0  0.47094123868E+02 -0.50726142563E+02  0.12411795228E+04  0.12457640411E+04  0.81304613077E+02 0.  0.
         23    2    1    2    0    0 -0.66156633263E+02 -0.15678164562E+02  0.10971290641E+03  0.15748260497E+03  0.90229396913E+02 0.  0.
        -11    1    3    3    0    0  0.70249296803E+01  0.18736905344E+02  0.11458860498E+03  0.11632269619E+03  0.00000000000E+00 0.  1.
         12    1    3    3    0    0  0.40069194188E+02 -0.69463047908E+02  0.11265909179E+04  0.11294413449E+04  0.00000000000E+00 0. -1.
        -13    1    4    4    0    0  0.18898021715E+02 -0.96014295740E+01  0.47231481518E+02  0.51770025314E+02  0.00000000000E+00 0.  1.
         13    1    4    4    0    0 -0.85054654978E+02 -0.60767349879E+01  0.62481424889E+02  0.10571257966E+03  0.00000000000E+00 0. -1.
         21    1    1    2  503  502 -0.21385274131E+02  0.95643420003E+01  0.18708037207E+01  0.23501201971E+02  0.00000000000E+00 0.  1.
          1    1    1    2  501    0  0.40447783526E+02  0.56839965125E+02 -0.35359860310E+02  0.78212048616E+02  0.00000000000E+00 0. -1.
<scales pt_clust_5="13000.00000" pt_clust_6="13000.00000" pt_clust_7="13000.00000" pt_clust_8="13000.00000" pt_clust_9="23.42662" pt_clust_10="68.43984"></scales>
<clustering>
<clus scale="   23.427">  2  9  1 -1</clus>
<clus scale="   68.440">  2 10  1 -1</clus>
<clus scale="   81.305">  5  6 -1 -1</clus>
<clus scale="   90.229">  7  8 -1 -1</clus>
<clus scale="  104.906">  1  5  2 -1</clus>
<clus scale="   23.427">  2  5  1 -1</clus>
</clustering>
</event>
<event>
10    4  0.7204077E-005  0.9473973E+02  0.7546771E-02  0.1297214E+00
         21   -1    0    0  501  502  0.00000000000E+00  0.00000000000E+00  0.29814353470E+03  0.29814353470E+03  0.00000000000E+00 0. -1.
         -1   -1    0    0    0  501 -0.00000000000E+00 -0.00000000000E+00 -0.17204986065E+03  0.17204986065E+03  0.00000000000E+00 0.  1.
         23    2    1    2    0    0  0.22671433545E+02 -0.86263258255E+01 -0.12611425198E+03  0.15749699369E+03  0.91170670024E+02 0.  0.
         24    2    1    2    0    0 -0.30321997713E+02  0.46407700661E+02  0.20275782039E+03  0.22549683669E+03  0.81639398594E+02 0.  0.
        -11    1    4    4    0    0 -0.47919422436E+02 -0.10864915786E+01  0.10367661903E+03  0.11422036966E+03  0.00000000000E+00 0.  1.
         12    1    4    4    0    0  0.17597424722E+02  0.47494192240E+02  0.99081201355E+02  0.11127646703E+03  0.00000000000E+00 0. -1.
        -13    1    3    3    0    0 -0.16924438582E+02 -0.30523142127E+02 -0.98472705565E+02  0.10447474608E+03  0.00000000000E+00 0.  1.
         13    1    3    3    0    0  0.39595872128E+02  0.21896816302E+02 -0.27641546416E+02  0.53022247613E+02  0.00000000000E+00 0. -1.
         21    1    1    2  503  502  0.21309323388E+02  0.64920653361E+01  0.28965149975E+02  0.36540581395E+02  0.00000000000E+00 0. -1.
         -2    1    1    2    0  503 -0.13658759219E+02 -0.44273440172E+02  0.20484955662E+02  0.50658983572E+02  0.00000000000E+00 0.  1.
<scales pt_clust_5="13000.00000" pt_clust_6="13000.00000" pt_clust_7="13000.00000" pt_clust_8="13000.00000" pt_clust_9="22.27631" pt_clust_10="44.72738"></scales>
<clustering>
<clus scale="   22.276">  1  9  2 -1</clus>
<clus scale="   44.727">  1 10  2 -1</clus>
<clus scale="   81.639">  5  6 -1 -1</clus>
<clus scale="   85.607">  1  5  2 -1</clus>
<clus scale="   91.171">  7  8 -1 -1</clus>
<clus scale="   22.276">  1  5  2 -1</clus>
</clustering>
</event>
<event>
10    4  0.7204077E-005  0.1021224E+03  0.7546771E-02  0.1282702E+00
          2   -1    0    0  503    0 -0.00000000000E+00  0.00000000000E+00  0.48478692887E+02  0.48478692887E+02  0.00000000000E+00 0. -1.
         21   -1    0    0  501  502  0.00000000000E+00 -0.00000000000E+00 -0.50515680873E+03  0.50515680873E+03  0.00000000000E+00 0. -1.
         24    2    1    2    0    0 -0.59020979751E+01 -0.51866601175E+02 -0.60906026937E+02  0.11206206727E+03  0.78252052536E+02 0.  0.
         23    2    1    2    0    0 -0.36850736334E+02  0.27358282079E+02 -0.12518593379E+03  0.16212358475E+03  0.92228446502E+02 0.  0.
        -13    1    3    3    0    0  0.17991534067E+02 -0.22638481835E+02  0.10927229886E+02  0.30912788791E+02  0.00000000000E+00 0.  1.
         14    1    3    3    0    0 -0.23893632042E+02 -0.29228119340E+02 -0.71833256822E+02  0.81149278481E+02  0.00000000000E+00 0. -1.
        -11    1    4    4    0    0  0.16487402466E+02  0.12016388800E+02  0.46480590221E+01  0.20924447246E+02  0.00000000000E+00 0. -1.
         11    1    4    4    0    0 -0.53338138800E+02  0.15341893279E+02 -0.12983399282E+03  0.14119913750E+03  0.00000000000E+00 0.  1.
         21    1    1    2  503  502  0.23666403339E+02  0.31815405185E+00 -0.37560890314E+02  0.44396174950E+02  0.00000000000E+00 0. -1.
          1    1    1    2  501    0  0.19086430970E+02  0.24190165044E+02 -0.23302526479E+03  0.23505367465E+03  0.00000000000E+00 0. -1.
<scales pt_clust_5="13000.00000" pt_clust_6="13000.00000" pt_clust_7="13000.00000" pt_clust_8="13000.00000" pt_clust_9="23.66854" pt_clust_10="39.43518"></scales>
<clustering>
<clus scale="   23.669">  2  9  1 -1</clus>
<clus scale="   39.435">  2 10  1 -1</clus>
<clus scale="   78.252">  5  6 -1 -1</clus>
<clus scale="   89.701">  1  5  2 -1</clus>
<clus scale="   92.228">  7  8 -1 -1</clus>
<clus scale="   23.669">  2  5  1 -1</clus>
</clustering>
</event>
<event>
10    4  0.7204077E-005  0.1470013E+03  0.7546771E-02  0.1229024E+00
          2   -1    0    0  503    0 -0.00000000000E+00  0.00000000000E+00  0.11261075602E+04  0.11261075602E+04  0.00000000000E+00 0. -1.
         21   -1    0    0  501  502  0.00000000000E+00 -0.00000000000E+00 -0.47014988402E+03  0.47014988402E+03  0.00000000000E+00 0. -1.
         24    2    1    2    0    0 -0.31423506065E+02 -0.59076267179E+01  0.44516334858E+02  0.97760585201E+02  0.80951165296E+02 0.  0.
         23    2    1    2    0    0 -0.50830496898E+02  0.54022726780E+02  0.34530384257E+03  0.36519448382E+03  0.92898185638E+02 0.  0.
        -13    1    3    3    0    0 -0.29135433629E+02  0.31369561169E+02  0.45396784536E+01  0.43052660094E+02  0.00000000000E+00 0.  1.
         14    1    3    3    0    0 -0.22880724354E+01 -0.37277187887E+02  0.39976656404E+02  0.54707925107E+02  0.00000000000E+00 0. -1.
        -11    1    4    4    0    0 -0.14533606128E+02  0.64140675272E+02  0.29556900763E+03  0.30279744088E+03  0.00000000000E+00 0.  1.
         11    1    4    4    0    0 -0.36296890769E+02 -0.10117948492E+02  0.49734834940E+02  0.62397042940E+02  0.00000000000E+00 0. -1.
         21    1    1    2  503  502 -0.24423913249E+01  0.89749416837E+02 -0.41941365574E+03  0.42891576996E+03  0.00000000000E+00 0. -1.
          1    1    1    2  501    0  0.84696394287E+02 -0.13786451690E+03  0.68555115444E+03  0.70438660520E+03  0.00000000000E+00 0. -1.
<scales pt_clust_5="13000.00000" pt_clust_6="13000.00000" pt_clust_7="13000.00000" pt_clust_8="13000.00000" pt_clust_9="89.76001" pt_clust_10="113.92689"></scales>
<clustering>
<clus scale="   80.951">  5  6 -1 -1</clus>
<clus scale="   87.037">  1  5  2 -1</clus>
<clus scale="   89.760">  2  9  1 -1</clus>
<clus scale="   92.898">  7  8 -1 -1</clus>
<clus scale="  113.927">  2 10  1 -1</clus>
<clus scale="   89.760">  2  5  1 -1</clus>
</clustering>
</event>
<event>
10    4  0.7204077E-005  0.1969039E+03  0.7546771E-02  0.1159961E+00
         -1   -1    0    0    0  501 -0.00000000000E+00  0.00000000000E+00  0.97110615085E+03  0.97110615085E+03  0.00000000000E+00 0.  1.
         21   -1    0    0  501  502  0.00000000000E+00 -0.00000000000E+00 -0.25951797201E+03  0.25951797201E+03  0.00000000000E+00 0.  1.
         23    2    1    2    0    0  0.94835972051E+02  0.97196817024E+02  0.68161884851E+03  0.70140107352E+03  0.94435843081E+02 0.  0.
         24    2    1    2    0    0  0.17218601673E+03 -0.24418524221E+02 -0.62023547934E+02  0.20115774038E+03  0.79832495482E+02 0.  0.
        -11    1    4    4    0    0  0.16610913068E+03 -0.38891467755E+02 -0.41963964148E+02  0.17568654999E+03  0.00000000000E+00 0.  1.
         12    1    4    4    0    0  0.60768860540E+01  0.14472943534E+02 -0.20059583786E+02  0.25471190399E+02  0.00000000000E+00 0. -1.
        -13    1    3    3    0    0  0.63850693586E+02  0.28589476262E+01  0.32450666701E+03  0.33074107938E+03  0.00000000000E+00 0. -1.
         13    1    3    3    0    0  0.30985278465E+02  0.94337869398E+02  0.35711218150E+03  0.37065999415E+03  0.00000000000E+00 0.  1.
         21    1    1    2  503  502 -0.22287398918E+02  0.23680223547E+00 -0.36040190328E+02  0.42375459227E+02  0.00000000000E+00 0.  1.
         -2    1    1    2    0  503 -0.24473458987E+03 -0.73015095038E+02  0.12803306859E+03  0.28568984972E+03  0.00000000000E+00 0.  1.
<scales pt_clust_5="13000.00000" pt_clust_6="13000.00000" pt_clust_7="13000.00000" pt_clust_8="13000.00000" pt_clust_9="22.28866" pt_clust_10="179.99427"></scales>
<clustering>
<clus scale="   22.289">  2  9  1 -1</clus>
<clus scale="   79.832">  5  6 -1 -1</clus>
<clus scale="   94.436">  7  8 -1 -1</clus>
<clus scale="  164.841">  1  7  2 -1</clus>
<clus scale="  179.994">  2 10  1 -1</clus>
<clus scale="   22.289">  2  5  1 -1</clus>
</clustering>
</event>
<event>
10    4  0.7204077E-005  0.1451342E+03  0.7546771E-02  0.1227594E+00
         21   -1    0    0  501  502  0.00000000000E+00  0.00000000000E+00  0.42128297995E+03  0.42128297995E+03  0.00000000000E+00 0. -1.
          2   -1    0    0  503    0 -0.00000000000E+00 -0.00000000000E+00 -0.17511198226E+03  0.17511198226E+03  0.00000000000E+00 0. -1.
         23    2    1    2    0    0 -0.13134885851E+01  0.14112975763E+02  0.18731015987E+03  0.20840544485E+03  0.90259803443E+02 0.  0.
         24    2    1    2    0    0 -0.68432693268E+02  0.89558166525E+02 -0.85505932719E+02  0.16291283771E+03  0.80781368275E+02 0.  0.
        -11    1    4    4    0    0 -0.36135285751E+02  0.43979861897E+02  0.43731971347E+01  0.57088632686E+02  0.00000000000E+00 0.  1.
         12    1    4    4    0    0 -0.32297407517E+02  0.45578304628E+02 -0.89879129854E+02  0.10582420502E+03  0.00000000000E+00 0. -1.
        -13    1    3    3    0    0 -0.23670335907E+02  0.27106797777E+02  0.17691102058E+03  0.18053413109E+03  0.00000000000E+00 0. -1.
         13    1    3    3    0    0  0.22356847322E+02 -0.12993822014E+02  0.10399139290E+02  0.27871313760E+02  0.00000000000E+00 0.  1.
         21    1    1    2  503  502  0.21293237601E+02  0.10196018003E+02  0.84258282227E+02  0.87503250651E+02  0.00000000000E+00 0. -1.
          1    1    1    2  501    0  0.48452944252E+02 -0.11386716029E+03  0.60108488312E+02  0.13757342900E+03  0.00000000000E+00 0. -1.
<scales pt_clust_5="13000.00000" pt_clust_6="13000.00000" pt_clust_7="13000.00000" pt_clust_8="13000.00000" pt_clust_9="23.60849" pt_clust_10="120.57487"></scales>
<clustering>
<clus scale="   23.608">  1  9  2 -1</clus>
<clus scale="   80.781">  5  6 -1 -1</clus>
<clus scale="   90.260">  7  8 -1 -1</clus>
<clus scale="   93.158">  2  7  1 -1</clus>
<clus scale="  120.575">  1 10  2 -1</clus>
<clus scale="   23.608">  1  5  2 -1</clus>
</clustering>
</event>
<event>
10    4  0.7204077E-005  0.1110366E+03  0.7546771E-02  0.1266648E+00
         21   -1    0    0  503  502  0.00000000000E+00  0.00000000000E+00  0.28985693870E+03  0.28985693870E+03  0.00000000000E+00 0.  1.
          2   -1    0    0  502    0 -0.00000000000E+00 -0.00000000000E+00 -0.25049565411E+03  0.25049565411E+03  0.00000000000E+00 0. -1.
         23    2    1    2    0    0  0.13155640630E+02  0.29561860301E+02 -0.37998926624E+02  0.11215831340E+03  0.10044199508E+03 0.  0.
         24    2    1    2    0    0 -0.10527185814E+03 -0.34513682091E+02  0.70494400413E+02  0.15499003722E+03  0.82335246277E+02 0.  0.
        -11    1    4    4    0    0 -0.11803545384E+03 -0.23236987342E+02  0.56319606988E+02  0.13283156280E+03  0.00000000000E+00 0.  1.
         12    1    4    4    0    0  0.12763595705E+02 -0.11276694749E+02  0.14174793425E+02  0.22158474416E+02  0.00000000000E+00 0. -1.
        -13    1    3    3    0    0  0.48048207192E+01  0.62182435144E+02 -0.46062417002E+02  0.77533784911E+02  0.00000000000E+00 0. -1.
         13    1    3    3    0    0  0.83508199110E+01 -0.32620574842E+02  0.80634903784E+01  0.34624528492E+02  0.00000000000E+00 0.  1.
         21    1    1    2  503  501  0.21100244595E+02 -0.39047213222E+02  0.12264658105E+03  0.13043039916E+03  0.00000000000E+00 0.  1.
          1    1    1    2  501    0  0.71015972913E+02  0.43999035012E+02 -0.11578077026E+03  0.14277384303E+03  0.00000000000E+00 0. -1.
<scales pt_clust_5="13000.00000" pt_clust_6="13000.00000" pt_clust_7="13000.00000" pt_clust_8="13000.00000" pt_clust_9="44.38361" pt_clust_10="83.40474"></scales>
<clustering>
<clus scale="   44.384">  1  9  2 -1</clus>
<clus scale="   82.335">  5  6 -1 -1</clus>
<clus scale="   83.405">  1 10  2 -1</clus>
<clus scale="   94.972">  1  5  2 -1</clus>
<clus scale="  100.442">  7  8 -1 -1</clus>
<clus scale="   44.384">  1  5  2 -1</clus>
</clustering>
</event>
<event>
10    4  0.7204077E-005  0.1683844E+03  0.7546771E-02  0.1206016E+00
          2   -1    0    0  502    0 -0.00000000000E+00  0.00000000000E+00  0.58313440992E+03  0.58313440992E+03  0.00000000000E+00 0. -1.
         21   -1    0    0  503  502  0.00000000000E+00 -0.00000000000E+00 -0.17238071512E+03  0.17238071512E+03  0.00000000000E+00 0. -1.
         23    2    1    2    0    0  0.20381944897E+02 -0.15941766846E+02  0.17472485270E+03  0.19812292341E+03  0.89746058525E+02 0.  0.
         24    2    1    2    0    0 -0.13227090211E+03 -0.13755746604E+03  0.20974959121E+02  0.20718935030E+03  0.77909113465E+02 0.  0.
        -13    1    4    4    0    0 -0.40368515768E+01 -0.44748875647E+02 -0.96589646288E+01  0.45957084764E+02  0.00000000000E+00 0.  1.
         14    1    4    4    0    0 -0.12823405053E+03 -0.92808590390E+02  0.30633923750E+02  0.16123226554E+03  0.00000000000E+00 0. -1.
        -11    1    3    3    0    0  0.52162752048E+02 -0.22285472013E+02  0.80476602139E+02  0.98458511343E+02  0.00000000000E+00 0.  1.
         11    1    3    3    0    0 -0.31780807151E+02  0.63437051672E+01  0.94248250562E+02  0.99664412066E+02  0.00000000000E+00 0. -1.
         21    1    1    2  503  501  0.47797837621E+02  0.28811445106E+02 -0.33315643132E+02  0.64997420931E+02  0.00000000000E+00 0. -1.
          1    1    1    2  501    0  0.64091119588E+02  0.12468778778E+03  0.24836952611E+03  0.28520543040E+03  0.00000000000E+00 0. -1.
<scales pt_clust_5="13000.00000" pt_clust_6="13000.00000" pt_clust_7="13000.00000" pt_clust_8="13000.00000" pt_clust_9="55.80979" pt_clust_10="149.27659"></scales>
<clustering>
<clus scale="   55.810">  2  9  1 -1</clus>
<clus scale="   77.909">  5  6 -1 -1</clus>
<clus scale="   89.746">  7  8 -1 -1</clus>
<clus scale="   94.073">  1  7  2 -1</clus>
<clus scale="  149.277">  2 10  1 -1</clus>
<clus scale="   55.810">  2  5  1 -1</clus>
</clustering>
</event>
<event>
10    4  0.7204077E-005  0.1672110E+03  0.7546771E-02  0.1182915E+00
         21   -1    0    0  501  502  0.00000000000E+00  0.00000000000E+00  0.36284444887E+03  0.36284444887E+03  0.00000000000E+00 0.  1.
          2   -1    0    0  503    0 -0.00000000000E+00 -0.00000000000E+00 -0.35614604341E+03  0.35614604341E+03  0.00000000000E+00 0. -1.
         23    2    1    2    0    0  0.17244757120E+02  0.10739197962E+03  0.39756738628E+02  0.14877662870E+03  0.93399507745E+02 0.  0.
         24    2    1    2    0    0  0.95013077930E+02 -0.19573296539E+03  0.11336497450E+03  0.25762816935E+03  0.78624280479E+02 0.  0.
        -11    1    4    4    0    0  0.70638138548E+02 -0.16752281201E+03  0.12252211826E+03  0.21923801820E+03  0.00000000000E+00 0.  1.
         12    1    4    4    0    0  0.24374939382E+02 -0.28210153380E+02 -0.91571437569E+01  0.38390151151E+02  0.00000000000E+00 0. -1.
        -13    1    3    3    0    0  0.21473964240E+02  0.67409609414E+02 -0.22872556466E+02  0.74352810444E+02  0.00000000000E+00 0.  1.
         13    1    3    3    0    0 -0.42292071208E+01  0.39982370202E+02  0.62629295094E+02  0.74423818256E+02  0.00000000000E+00 0. -1.
         21    1    1    2  503  502  0.19498487162E+02  0.23742179439E+02  0.55225773885E+02  0.63196267194E+02  0.00000000000E+00 0.  1.
          1    1    1    2  501    0 -0.13175632221E+03  0.64598806338E+02 -0.20164908156E+03  0.24938942703E+03  0.00000000000E+00 0. -1.
<scales pt_clust_5="13000.00000" pt_clust_6="13000.00000" pt_clust_7="13000.00000" pt_clust_8="13000.00000" pt_clust_9="30.72266" pt_clust_10="146.20466"></scales>
<clustering>
<clus scale="   30.723">  1  9  2 -1</clus>
<clus scale="   78.624">  5  6 -1 -1</clus>
<clus scale="   93.400">  7  8 -1 -1</clus>
<clus scale="  146.205">  1 10  2 -1</clus>
<clus scale="  159.430">  1  5  2 -1</clus>
<clus scale="   30.723">  1  5  2 -1</clus>
</clustering>
</event>
<event>
10    4  0.7204077E-005  0.1899791E+03  0.7546771E-02  0.1189947E+00
         21   -1    0    0  501  502  0.00000000000E+00  0.00000000000E+00  0.79613650767E+02  0.79613650767E+02  0.00000000000E+00 0. -1.
          2   -1    0    0  503    0 -0.00000000000E+00 -0.00000000000E+00 -0.95396139084E+03  0.95396139084E+03  0.00000000000E+00 0. -1.
         24    2    1    2    0    0 -0.17296867204E+02  0.45083916672E+02 -0.29298742831E+03  0.30771234465E+03  0.80706336429E+02 0.  0.
         23    2    1    2    0    0 -0.16182040310E+03 -0.33561010790E+02 -0.12395467155E+03  0.22575012416E+03  0.91028422228E+02 0.  0.
        -11    1    3    3    0    0  0.98502928181E+00  0.66066807286E+02 -0.19816840148E+03  0.20889353426E+03  0.00000000000E+00 0.  1.
         12    1    3    3    0    0 -0.18281896486E+02 -0.20982890614E+02 -0.94819026831E+02  0.98818810390E+02  0.00000000000E+00 0. -1.
        -11    1    4    4    0    0 -0.68863221825E+02  0.29067927844E+02 -0.65253243646E+02  0.99222344034E+02  0.00000000000E+00 0.  1.
         11    1    4    4    0    0 -0.92957181272E+02 -0.62628938634E+02 -0.58701427906E+02  0.12652778012E+03  0.00000000000E+00 0. -1.
         21    1    1    2  503  502  0.55451866386E+01 -0.21127632719E+02 -0.20759054081E+02  0.30134105022E+02  0.00000000000E+00 0. -1.
          1    1    1    2  501    0  0.17357208366E+03  0.96047268363E+01 -0.43664658612E+03  0.46997846778E+03  0.00000000000E+00 0. -1.
<scales pt_clust_5="13000.00000" pt_clust_6="13000.00000" pt_clust_7="13000.00000" pt_clust_8="13000.00000" pt_clust_9="21.84321" pt_clust_10="166.75099"></scales>
<clustering>
<clus scale="   21.843">  1  9  2 -1</clus>
<clus scale="   80.706">  5  6 -1 -1</clus>
<clus scale="   91.028">  7  8 -1 -1</clus>
<clus scale="   92.972">  2  5  1 -1</clus>
<clus scale="  166.751">  1 10  2 -1</clus>
<clus scale="   21.843">  1  5  2 -1</clus>
</clustering>
</event>
<event>
10    4  0.7204077E-005  0.2006730E+03  0.7546771E-02  0.1162456E+00
         21   -1    0    0  503  502  0.00000000000E+00  0.00000000000E+00  0.51832462576E+02  0.51832462576E+02  0.00000000000E+00 0. -1.
          2   -1    0    0  502    0 -0.00000000000E+00 -0.00000000000E+00 -0.15261243704E+04  0.15261243704E+04  0.00000000000E+00 0. -1.
         23    2    1    2    0    0 -0.10737180716E+03 -0.42554953629E+02 -0.37552087492E+03  0.40325225985E+03  0.90867092622E+02 0.  0.
         24    2    1    2    0    0  0.76235979573E+01  0.20137281098E+03 -0.62688811822E+03  0.66303631137E+03  0.77584206995E+02 0.  0.
        -13    1    4    4    0    0  0.21930468121E+02  0.20984886267E+02 -0.14845117765E+03  0.15152248358E+03  0.00000000000E+00 0.  1.
         14    1    4    4    0    0 -0.14306870164E+02  0.18038792471E+03 -0.47843694057E+03  0.51151382779E+03  0.00000000000E+00 0. -1.
        -13    1    3    3    0    0 -0.46116186032E+02 -0.38763902399E+02 -0.73383621835E+02  0.94944713897E+02  0.00000000000E+00 0.  1.
         13    1    3    3    0    0 -0.61255621127E+02 -0.37910512294E+01 -0.30213725308E+03  0.30830754595E+03  0.00000000000E+00 0. -1.
         21    1    1    2  503  501  0.22654635586E+02 -0.23011377642E+02 -0.34554338287E+02  0.47294379253E+02  0.00000000000E+00 0. -1.
          1    1    1    2  501    0  0.77093573616E+02 -0.13580647971E+03 -0.43732857641E+03  0.46437388252E+03  0.00000000000E+00 0. -1.
<scales pt_clust_5="13000.00000" pt_clust_6="13000.00000" pt_clust_7="13000.00000" pt_clust_8="13000.00000" pt_clust_9="28.60887" pt_clust_10="195.46979"></scales>
<clustering>
<clus scale="   28.609">  9 10 -1 -1</clus>
<clus scale="   77.584">  5  6 -1 -1</clus>
<clus scale="   90.867">  7  8 -1 -1</clus>
<clus scale="  146.957">  2  7  1 -1</clus>
<clus scale="  195.470">  1  9  2 -1</clus>
<clus scale="  195.470">  1  5  2 -1</clus>
</clustering>
</event>
<event>
10    4  0.7204077E-005  0.1246470E+03  0.7546771E-02  0.1238536E+00
          4   -1    0    0  503    0 -0.00000000000E+00  0.00000000000E+00  0.74335191057E+03  0.74335191057E+03  0.00000000000E+00 0. -1.
         21   -1    0    0  501  502  0.00000000000E+00 -0.00000000000E+00 -0.61033088415E+02  0.61033088415E+02  0.00000000000E+00 0. -1.
         24    2    1    2    0    0  0.39022783024E+02 -0.56882242368E+02  0.16747756855E+03  0.19835162447E+03  0.80847163660E+02 0.  0.
         23    2    1    2    0    0 -0.12267365785E+03  0.52453609578E+01  0.32646795074E+03  0.36046636007E+03  0.90985349031E+02 0.  0.
        -13    1    3    3    0    0  0.27711199339E+02  0.14012888524E+02  0.29586391980E+02  0.42890863875E+02  0.00000000000E+00 0.  1.
         14    1    3    3    0    0  0.11311583685E+02 -0.70895130892E+02  0.13789117657E+03  0.15546076060E+03  0.00000000000E+00 0. -1.
        -13    1    4    4    0    0 -0.89865660794E+01  0.28975732997E+02  0.11793395964E+03  0.12177343843E+03  0.00000000000E+00 0.  1.
         13    1    4    4    0    0 -0.11368709177E+03 -0.23730372039E+02  0.20853399110E+03  0.23869292163E+03  0.00000000000E+00 0. -1.
         21    1    1    2  503  502 -0.23878532887E+01  0.43359326139E+02  0.61179614338E+01  0.43853876211E+02  0.00000000000E+00 0. -1.
          3    1    1    2  501    0  0.86038728113E+02  0.82775552712E+01  0.18225534143E+03  0.20171313824E+03  0.00000000000E+00 0. -1.
<scales pt_clust_5="13000.00000" pt_clust_6="13000.00000" pt_clust_7="13000.00000" pt_clust_8="13000.00000" pt_clust_9="43.42503" pt_clust_10="87.42081"></scales>
<clustering>
<clus scale="   43.425">  2  9  1 -1</clus>
<clus scale="   80.847">  5  6 -1 -1</clus>
<clus scale="   87.421">  2 10  1 -1</clus>
<clus scale="   90.985">  7  8 -1 -1</clus>
<clus scale="  117.451">  1  5  2 -1</clus>
<clus scale="   43.425">  2  5  1 -1</clus>
</clustering>
</event>
<event>
10    4  0.7204077E-005  0.1696468E+03  0.7546771E-02  0.1194823E+00
         21   -1    0    0  503  502  0.00000000000E+00  0.00000000000E+00  0.10010548066E+03  0.10010548066E+03  0.00000000000E+00 0.  1.
         -3   -1    0    0    0  501 -0.00000000000E+00 -0.00000000000E+00 -0.82849740714E+03  0.82849740714E+03  0.00000000000E+00 0.  1.
         23    2    1    2    0    0 -0.61917524483E+02  0.38857398145E+02 -0.17958578606E+03  0.21449159676E+03  0.91716483226E+02 0.  0.
         24    2    1    2    0    0 -0.13065150302E+03 -0.92433180006E+02 -0.25825613069E+03  0.31441973815E+03  0.80931048970E+02 0.  0.
        -11    1    4    4    0    0 -0.12820169217E+03 -0.63793880916E+02 -0.24254608584E+03  0.28166280705E+03  0.00000000000E+00 0.  1.
         12    1    4    4    0    0 -0.24498108522E+01 -0.28639299090E+02 -0.15710044848E+02  0.32756931094E+02  0.00000000000E+00 0. -1.
        -11    1    3    3    0    0 -0.58005582446E+02  0.87702164048E+01 -0.17402325859E+03  0.18364547046E+03  0.00000000000E+00 0. -1.
         11    1    3    3    0    0 -0.39119420367E+01  0.30087181740E+02 -0.55625274711E+01  0.30846126295E+02  0.00000000000E+00 0.  1.
         21    1    1    2  503  501  0.11307149333E+03 -0.65613392100E+02 -0.12694721332E+03  0.18222479194E+03  0.00000000000E+00 0.  1.
         -4    1    1    2    0  502  0.79497534173E+02  0.11918917396E+03 -0.16360279641E+03  0.21746676096E+03  0.00000000000E+00 0.  1.
<scales pt_clust_5="13000.00000" pt_clust_6="13000.00000" pt_clust_7="13000.00000" pt_clust_8="13000.00000" pt_clust_9="112.84668" pt_clust_10="149.09792"></scales>
<clustering>
<clus scale="   80.931">  5  6 -1 -1</clus>
<clus scale="   91.716">  7  8 -1 -1</clus>
<clus scale="  117.284">  2  7  1 -1</clus>
<clus scale="  112.847">  1  9  2 -1</clus>
<clus scale="  149.098">  1 10  2 -1</clus>
<clus scale="  112.847">  1  5  2 -1</clus>
</clustering>
</event>
<event>
10    4  0.7204077E-005  0.3154930E+03  0.7546771E-02  0.1120288E+00
         -1   -1    0    0    0  501 -0.00000000000E+00  0.00000000000E+00  0.65555978600E+03  0.65555978600E+03  0.00000000000E+00 0.  1.
         21   -1    0    0  501  502  0.00000000000E+00 -0.00000000000E+00 -0.31320333602E+03  0.31320333602E+03  0.00000000000E+00 0.  1.
         24    2    1    2    0    0 -0.35111923799E+02 -0.19841202162E+02 -0.14907490436E+02  0.10573231359E+03  0.96594867201E+02 0.  0.
         23    2    1    2    0    0  0.22537411241E+03  0.23470854287E+03  0.27591806377E+03  0.43644545722E+03  0.92044926925E+02 0.  0.
        -13    1    3    3    0    0 -0.61826361630E+02 -0.12750309862E+01 -0.31292979255E+02  0.69306386770E+02  0.00000000000E+00 0.  1.
         14    1    3    3    0    0  0.26714437831E+02 -0.18566171175E+02  0.16385488819E+02  0.36425926819E+02  0.00000000000E+00 0. -1.
        -13    1    4    4    0    0  0.23196799191E+03  0.21111359881E+03  0.25681834221E+03  0.40538100815E+03  0.00000000000E+00 0.  1.
         13    1    4    4    0    0 -0.65938795043E+01  0.23594944066E+02  0.19099721558E+02  0.31064449070E+02  0.00000000000E+00 0. -1.
         21    1    1    2  503  502  0.17696279765E+02 -0.20110398779E+02 -0.90144634409E+02  0.94040637861E+02  0.00000000000E+00 0.  1.
         -2    1    1    2    0  503 -0.20795846837E+03 -0.19475694193E+03  0.17149051105E+03  0.33254471336E+03  0.00000000000E+00 0.  1.
<scales pt_clust_5="13000.00000" pt_clust_6="13000.00000" pt_clust_7="13000.00000" pt_clust_8="13000.00000" pt_clust_9="26.78780" pt_clust_10="301.76741"></scales>
<clustering>
<clus scale="   26.788">  2  9  1 -1</clus>
<clus scale="   92.045">  7  8 -1 -1</clus>
<clus scale="   96.595">  5  6 -1 -1</clus>
<clus scale="  104.351">  1  5  2 -1</clus>
<clus scale="  301.767">  2 10  1 -1</clus>
<clus scale="   26.788">  2  5  1 -1</clus>
</clustering>
</event>
<event>
10    4  0.7204077E-005  0.9880441E+02  0.7546771E-02  0.1291729E+00
         21   -1    0    0  503  502  0.00000000000E+00  0.00000000000E+00  0.39859463229E+03  0.39859463229E+03  0.00000000000E+00 0. -1.
          2   -1    0    0  502    0 -0.00000000000E+00 -0.00000000000E+00 -0.98275523349E+02  0.98275523349E+02  0.00000000000E+00 0. -1.
         24    2    1    2    0    0 -0.20577397088E+02 -0.28007736726E+02  0.11848724865E+02  0.83169381032E+02  0.74625003001E+02 0.  0.
         23    2    1    2    0    0  0.40580609822E+02  0.35101591905E+02  0.23653260310E+03  0.25917762780E+03  0.91358977514E+02 0.  0.
        -11    1    3    3    0    0 -0.43051034825E+02 -0.19421343826E+02  0.27324315371E+02  0.54563709607E+02  0.00000000000E+00 0.  1.
         12    1    3    3    0    0  0.22473637738E+02 -0.85863929006E+01 -0.15475590506E+02  0.28605671426E+02  0.00000000000E+00 0. -1.
        -11    1    4    4    0    0 -0.29500802364E+02  0.14635861302E+02  0.75136808344E+02  0.82036856011E+02  0.00000000000E+00 0. -1.
         11    1    4    4    0    0  0.70081412186E+02  0.20465730603E+02  0.16139579476E+03  0.17714077179E+03  0.00000000000E+00 0.  1.
         21    1    1    2  503  501 -0.11508016374E+02  0.40771267835E+02  0.85520331768E+02  0.95438241117E+02  0.00000000000E+00 0. -1.
          1    1    1    2  501    0 -0.84951963605E+01 -0.47865123014E+02 -0.33582550798E+02  0.59084905690E+02  0.00000000000E+00 0. -1.
<scales pt_clust_5="13000.00000" pt_clust_6="13000.00000" pt_clust_7="13000.00000" pt_clust_8="13000.00000" pt_clust_9="42.36426" pt_clust_10="47.04127"></scales>
<clustering>
<clus scale="   42.364">  1  9  2 -1</clus>
<clus scale="   47.041">  1 10  2 -1</clus>
<clus scale="   74.625">  5  6 -1 -1</clus>
<clus scale="   83.575">  2  5  1 -1</clus>
<clus scale="   91.359">  7  8 -1 -1</clus>
<clus scale="   42.364">  1  5  2 -1</clus>
</clustering>
</event>
<event>
10    4  0.7204077E-005  0.3101651E+03  0.7546771E-02  0.1080267E+00
         21   -1    0    0  501  502  0.00000000000E+00  0.00000000000E+00  0.45594801411E+03  0.45594801411E+03  0.00000000000E+00 0.  1.
         -1   -1    0    0    0  501 -0.00000000000E+00 -0.00000000000E+00 -0.55795094875E+03  0.55795094875E+03  0.00000000000E+00 0.  1.
         24    2    1    2    0    0 -0.13863189526E+03  0.42851984424E+02  0.22848015012E+01  0.16573368112E+03  0.80045848021E+02 0.  0.
         23    2    1    2    0    0 -0.12864564407E+03  0.66180279792E+02  0.60264163307E+02  0.18070521698E+03  0.89961518947E+02 0.  0.
        -11    1    3    3    0    0 -0.12589244468E+03  0.71095623412E+01 -0.82225973620E+01  0.12636085078E+03  0.00000000000E+00 0.  1.
         12    1    3    3    0    0 -0.12739450587E+02  0.35742422083E+02  0.10507398863E+02  0.39372830334E+02  0.00000000000E+00 0. -1.
        -11    1    4    4    0    0 -0.10291185601E+02  0.43108428110E+02 -0.32118361843E+01  0.44436032303E+02  0.00000000000E+00 0.  1.
         11    1    4    4    0    0 -0.11835445847E+03  0.23071851682E+02  0.63475999492E+02  0.13626918467E+03  0.00000000000E+00 0. -1.
         21    1    1    2  503  502  0.36124106305E+02 -0.26852293125E+02  0.21272460894E+03  0.21743448657E+03  0.00000000000E+00 0. -1.
         -2    1    1    2    0  503  0.23115343303E+03 -0.82179971092E+02 -0.37727650839E+03  0.45002557820E+03  0.00000000000E+00 0.  1.
<scales pt_clust_5="13000.00000" pt_clust_6="13000.00000" pt_clust_7="13000.00000" pt_clust_8="13000.00000" pt_clust_9="45.01107" pt_clust_10="251.83371"></scales>
<clustering>
<clus scale="   45.011">  1  9  2 -1</clus>
<clus scale="   80.046">  5  6 -1 -1</clus>
<clus scale="   89.962">  7  8 -1 -1</clus>
<clus scale="  107.989">  5  7 -1 -1</clus>
<clus scale="  251.834">  1 10  2 -1</clus>
<clus scale="   45.011">  1  5  2 -1</clus>
</clustering>
</event>
<event>
10    4  0.7204077E-005  0.1974433E+03  0.7546771E-02  0.1152827E+00
          2   -1    0    0  503    0 -0.00000000000E+00  0.00000000000E+00  0.13456163139E+04  0.13456163139E+04  0.00000000000E+00 0. -1.
         21   -1    0    0  501  502  0.00000000000E+00 -0.00000000000E+00 -0.13050278415E+03  0.13050278415E+03  0.00000000000E+00 0. -1.
         23    2    1    2    0    0 -0.11963820876E+03 -0.13576252237E+03  0.81240189294E+03  0.83714103036E+03  0.89797024424E+02 0.  0.
         24    2    1    2    0    0  0.22826520733E+03 -0.22398470465E+02  0.18710277934E+03  0.30665071041E+03  0.80128096200E+02 0.  0.
        -11    1    4    4    0    0  0.32739188078E+02  0.24527374503E+02  0.21835664004E+02  0.46370710136E+02  0.00000000000E+00 0.  1.
         12    1    4    4    0    0  0.19552601925E+03 -0.46925844968E+02  0.16526711534E+03  0.26028000027E+03  0.00000000000E+00 0. -1.
        -13    1    3    3    0    0 -0.36391919373E+02 -0.70558938457E+01  0.71378623286E+02  0.80430499786E+02  0.00000000000E+00 0.  1.
         13    1    3    3    0    0 -0.83246289382E+02 -0.12870662853E+03  0.74102326965E+03  0.75671053058E+03  0.00000000000E+00 0. -1.
         21    1    1    2  503  502 -0.11164270119E+03  0.18841000792E+02  0.88394941179E+02  0.14364101665E+03  0.00000000000E+00 0. -1.
          1    1    1    2  501    0  0.30157026165E+01  0.13931999205E+03  0.12721391633E+03  0.18868634067E+03  0.00000000000E+00 0. -1.
<scales pt_clust_5="13000.00000" pt_clust_6="13000.00000" pt_clust_7="13000.00000" pt_clust_8="13000.00000" pt_clust_9="113.22136" pt_clust_10="148.08987"></scales>
<clustering>
<clus scale="   80.128">  5  6 -1 -1</clus>
<clus scale="   89.797">  7  8 -1 -1</clus>
<clus scale="  113.221">  2  9  1 -1</clus>
<clus scale="  148.090">  2 10  1 -1</clus>
<clus scale="  193.238">  2  5  1 -1</clus>
<clus scale="  113.221">  2  5  1 -1</clus>
</clustering>
</event>
<event>
10    4  0.7204077E-005  0.1696261E+03  0.7546771E-02  0.1179750E+00
          2   -1    0    0  503    0 -0.00000000000E+00  0.00000000000E+00  0.71189838777E+03  0.71189838777E+03  0.00000000000E+00 0. -1.
         21   -1    0    0  501  502  0.00000000000E+00 -0.00000000000E+00 -0.26963747825E+03  0.26963747825E+03  0.00000000000E+00 0. -1.
         24    2    1    2    0    0  0.23487689137E+02  0.12910195640E+03  0.20065589595E+03  0.25250085683E+03  0.79214313312E+02 0.  0.
         23    2    1    2    0    0 -0.11276770984E+03 -0.15713982483E+03  0.67247374680E+02  0.22383004054E+03  0.90378076530E+02 0.  0.
        -11    1    3    3    0    0 -0.18314359057E+02  0.39197870421E+02  0.10981536676E+03  0.11803094327E+03  0.00000000000E+00 0.  1.
         12    1    3    3    0    0  0.41802048193E+02  0.89904085976E+02  0.90840529188E+02  0.13446991356E+03  0.00000000000E+00 0. -1.
        -11    1    4    4    0    0 -0.83938838612E+02 -0.11975860939E+03  0.58236523369E+01  0.14636177122E+03  0.00000000000E+00 0. -1.
         11    1    4    4    0    0 -0.28828871227E+02 -0.37381215445E+02  0.61423722343E+02  0.77468269316E+02  0.00000000000E+00 0.  1.
         21    1    1    2  503  502 -0.34675248426E+02 -0.11805339881E+02 -0.15067532267E+03  0.15506383126E+03  0.00000000000E+00 0. -1.
          1    1    1    2  501    0  0.12395526913E+03  0.39843208314E+02  0.32503296156E+03  0.35014113739E+03  0.00000000000E+00 0. -1.
<scales pt_clust_5="13000.00000" pt_clust_6="13000.00000" pt_clust_7="13000.00000" pt_clust_8="13000.00000" pt_clust_9="36.62975" pt_clust_10="126.26382"></scales>
<clustering>
<clus scale="   36.630">  2  9  1 -1</clus>
<clus scale="   79.214">  5  6 -1 -1</clus>
<clus scale="   90.378">  7  8 -1 -1</clus>
<clus scale="  126.264">  2 10  1 -1</clus>
<clus scale="  163.950">  1  5  2 -1</clus>
<clus scale="   36.630">  2  5  1 -1</clus>
</clustering>
</event>
<event>
10    4  0.7204077E-005  0.3224185E+03  0.7546771E-02  0.1119951E+00
         21   -1    0    0  501  502  0.00000000000E+00  0.00000000000E+00  0.14902464066E+03  0.14902464066E+03  0.00000000000E+00 0. -1.
          2   -1    0    0  503    0 -0.00000000000E+00 -0.00000000000E+00 -0.11037978992E+04  0.11037978992E+04  0.00000000000E+00 0. -1.
         24    2    1    2    0    0 -0.35832639201E+02 -0.33071638537E+02 -0.16547339650E+03  0.19294909349E+03  0.86430298060E+02 0.  0.
         23    2    1    2    0    0  0.31216848754E+02 -0.28509829154E+03 -0.56109149442E+03  0.63660516202E+03  0.90481709296E+02 0.  0.
        -11    1    3    3    0    0 -0.73737518856E+01 -0.48923713281E+02 -0.40918076402E+02  0.64204290469E+02  0.00000000000E+00 0.  1.
         12    1    3    3    0    0 -0.28458887316E+02  0.15852074745E+02 -0.12455532010E+03  0.12874480303E+03  0.00000000000E+00 0. -1.
        -11    1    4    4    0    0 -0.16066952427E+01 -0.14269691629E+03 -0.36610359995E+03  0.39293362962E+03  0.00000000000E+00 0.  1.
         11    1    4    4    0    0  0.32823543997E+02 -0.14240137525E+03 -0.19498789447E+03  0.24367153240E+03  0.00000000000E+00 0. -1.
         21    1    1    2  503  502  0.23767942992E+02 -0.60449179581E+01  0.28407733286E+01  0.24688583197E+02  0.00000000000E+00 0. -1.
          1    1    1    2  501    0 -0.19152152544E+02  0.32421484803E+03 -0.23104914095E+03  0.39857970115E+03  0.00000000000E+00 0. -1.
<scales pt_clust_5="13000.00000" pt_clust_6="13000.00000" pt_clust_7="13000.00000" pt_clust_8="13000.00000" pt_clust_9="24.52460" pt_clust_10="309.46199"></scales>
<clustering>
<clus scale="   24.525">  1  9  2 -1</clus>
<clus scale="   86.430">  5  6 -1 -1</clus>
<clus scale="   90.482">  7  8 -1 -1</clus>
<clus scale="   98.599">  2  5  1 -1</clus>
<clus scale="  309.462">  1 10  2 -1</clus>
<clus scale="   24.525">  1  5  2 -1</clus>
</clustering>
</event>
<event>
10    4  0.7204077E-005  0.1132524E+03  0.7546771E-02  0.1259084E+00
         21   -1    0    0  501  502  0.00000000000E+00  0.00000000000E+00  0.10718885844E+03  0.10718885844E+03  0.00000000000E+00 0. -1.
          2   -1    0    0  503    0 -0.00000000000E+00 -0.00000000000E+00 -0.75817485214E+03  0.75817485214E+03  0.00000000000E+00 0. -1.
         24    2    1    2    0    0 -0.57839252428E+02  0.30869511036E+02 -0.45572301127E+03  0.46710838061E+03  0.78793847529E+02 0.  0.
         23    2    1    2    0    0  0.42783144736E+02 -0.69501312011E+02 -0.19750209396E+03  0.23223282075E+03  0.90907513824E+02 0.  0.
        -11    1    3    3    0    0 -0.38659678670E+02  0.39957380147E+02 -0.13946130758E+03  0.15013533660E+03  0.00000000000E+00 0.  1.
         12    1    3    3    0    0 -0.19179573757E+02 -0.90878691112E+01 -0.31626170369E+03  0.31697304402E+03  0.00000000000E+00 0. -1.
        -13    1    4    4    0    0 -0.23846373648E+01  0.20288813387E+02 -0.47075880153E+02  0.51317257684E+02  0.00000000000E+00 0.  1.
         13    1    4    4    0    0  0.45167782101E+02 -0.89790125398E+02 -0.15042621380E+03  0.18091556306E+03  0.00000000000E+00 0. -1.
         21    1    1    2  503  502 -0.12857475476E+02  0.17613929432E+02  0.78855030841E+02  0.81814919634E+02  0.00000000000E+00 0. -1.
          1    1    1    2  501    0  0.27913583167E+02  0.21017871543E+02 -0.76615919321E+02  0.84207589580E+02  0.00000000000E+00 0. -1.
<scales pt_clust_5="13000.00000" pt_clust_6="13000.00000" pt_clust_7="13000.00000" pt_clust_8="13000.00000" pt_clust_9="21.80746" pt_clust_10="35.12290"></scales>
<clustering>
<clus scale="   21.807">  1  9  2 -1</clus>
<clus scale="   35.123">  1 10  2 -1</clus>
<clus scale="   78.794">  5  6 -1 -1</clus>
<clus scale="   90.908">  7  8 -1 -1</clus>
<clus scale="  103.781">  2  5  1 -1</clus>
<clus scale="   21.807">  1  5  2 -1</clus>
</clustering>
</event>
<event>
10    4  0.7204077E-005  0.2205740E+03  0.7546771E-02  0.1149073E+00
          2   -1    0    0  502    0 -0.00000000000E+00  0.00000000000E+00  0.50288060430E+03  0.50288060430E+03  0.00000000000E+00 0. -1.
         21   -1    0    0  503  502  0.00000000000E+00 -0.00000000000E+00 -0.28964476453E+03  0.28964476453E+03  0.00000000000E+00 0.  1.
         24    2    1    2    0    0 -0.10043409491E+03 -0.77967798897E+02  0.20064544453E+03  0.25103834224E+03  0.81213728998E+02 0.  0.
         23    2    1    2    0    0 -0.82505999254E+02 -0.12495533882E+03 -0.16826936675E+02  0.17695582919E+03  0.92785468015E+02 0.  0.
        -13    1    3    3    0    0 -0.42992995495E+02 -0.80152010075E+02  0.14411053626E+03  0.17041299552E+03  0.00000000000E+00 0.  1.
         14    1    3    3    0    0 -0.57441099413E+02  0.21842111780E+01  0.56534908266E+02  0.80625346715E+02  0.00000000000E+00 0. -1.
        -11    1    4    4    0    0 -0.14050954343E+02 -0.85384868593E+02  0.21386346154E+02  0.89136866135E+02  0.00000000000E+00 0.  1.
         11    1    4    4    0    0 -0.68455044911E+02 -0.39570470225E+02 -0.38213282829E+02  0.87818963055E+02  0.00000000000E+00 0. -1.
         21    1    1    2  503  501  0.22947089809E+02 -0.38920200223E+02 -0.46445489762E+02  0.64796098921E+02  0.00000000000E+00 0.  1.
          1    1    1    2  501    0  0.15999300435E+03  0.24184333794E+03  0.75862821684E+02  0.29973509848E+03  0.00000000000E+00 0. -1.
<scales pt_clust_5="13000.00000" pt_clust_6="13000.00000" pt_clust_7="13000.00000" pt_clust_8="13000.00000" pt_clust_9="45.18131" pt_clust_10="200.10944"></scales>
<clustering>
<clus scale="   45.181">  2  9  1 -1</clus>
<clus scale="   81.214">  5  6 -1 -1</clus>
<clus scale="   92.785">  7  8 -1 -1</clus>
<clus scale="  151.468">  1  5  2 -1</clus>
<clus scale="  200.109">  2 10  1 -1</clus>
<clus scale="   45.181">  2  5  1 -1</clus>
</clustering>
</event>
<event>
10    4  0.7204077E-005  0.1138652E+03  0.7546771E-02  0.1257857E+00
         21   -1    0    0  503  502  0.00000000000E+00  0.00000000000E+00  0.61583446895E+03  0.61583446895E+03  0.00000000000E+00 0.  1.
          2   -1    0    0  502    0 -0.00000000000E+00 -0.00000000000E+00 -0.13190332907E+03  0.13190332907E+03  0.00000000000E+00 0. -1.
         24    2    1    2    0    0 -0.41326930686E+02  0.14184888267E+02  0.67662438378E+01  0.92523714882E+02  0.81275639061E+02 0.  0.
         23    2    1    2    0    0  0.10260143104E+03  0.71943726927E+02  0.16961828559E+02  0.15690062288E+03  0.92882443636E+02 0.  0.
        -13    1    3    3    0    0 -0.60561803885E+02 -0.11450215769E+01  0.20995211695E+02  0.64108050028E+02  0.00000000000E+00 0.  1.
         14    1    3    3    0    0  0.19234873199E+02  0.15329909844E+02 -0.14228967857E+02  0.28415664854E+02  0.00000000000E+00 0. -1.
        -13    1    4    4    0    0  0.83180866295E+02  0.94595907938E+02  0.10755028223E+02  0.12642433685E+03  0.00000000000E+00 0.  1.
         13    1    4    4    0    0  0.19420564744E+02 -0.22652181011E+02  0.62068003357E+01  0.30476286026E+02  0.00000000000E+00 0. -1.
         21    1    1    2  503  501 -0.47016061730E+02 -0.10421199665E+02  0.39342501325E+03  0.39636139131E+03  0.00000000000E+00 0.  1.
          1    1    1    2  501    0 -0.14258438623E+02 -0.75707415529E+02  0.66778054231E+02  0.10195206896E+03  0.00000000000E+00 0. -1.
<scales pt_clust_5="13000.00000" pt_clust_6="13000.00000" pt_clust_7="13000.00000" pt_clust_8="13000.00000" pt_clust_9="48.15715" pt_clust_10="85.95075"></scales>
<clustering>
<clus scale="   48.157">  1  9  2 -1</clus>
<clus scale="   81.276">  5  6 -1 -1</clus>
<clus scale="   85.951">  1 10  2 -1</clus>
<clus scale="   92.882">  7  8 -1 -1</clus>
<clus scale="  104.613">  2  5  1 -1</clus>
<clus scale="   48.157">  1  5  2 -1</clus>
</clustering>
</event>
<event>
10    4  0.7204077E-005  0.1583707E+03  0.7546771E-02  0.1211738E+00
         21   -1    0    0  501  502  0.00000000000E+00  0.00000000000E+00  0.58352301906E+02  0.58352301906E+02  0.00000000000E+00 0.  1.
          2   -1    0    0  503    0 -0.00000000000E+00 -0.00000000000E+00 -0.12782383850E+04  0.12782383850E+04  0.00000000000E+00 0. -1.
         23    2    1    2    0    0 -0.23129364069E+01 -0.24224664467E+02 -0.41287687881E+02  0.10317088310E+03  0.91363963935E+02 0.  0.
         24    2    1    2    0    0 -0.11317210938E+03 -0.48280998344E+02 -0.82161445804E+03  0.83455963432E+03  0.79375590893E+02 0.  0.
        -13    1    4    4    0    0 -0.11258326546E+03 -0.64173888891E+02 -0.69815625114E+03  0.71008128456E+03  0.00000000000E+00 0.  1.
         14    1    4    4    0    0 -0.58884391338E+00  0.15892890547E+02 -0.12345820690E+03  0.12447834976E+03  0.00000000000E+00 0. -1.
        -11    1    3    3    0    0 -0.39049890664E+01  0.25250571937E+02 -0.46844008613E+02  0.53359174147E+02  0.00000000000E+00 0. -1.
         11    1    3    3    0    0  0.15920526595E+01 -0.49475236404E+02  0.55563207321E+01  0.49811708954E+02  0.00000000000E+00 0.  1.
         21    1    1    2  503  502  0.83060934222E+01 -0.28887001873E+02 -0.51950342515E+02  0.60019064909E+02  0.00000000000E+00 0. -1.
          1    1    1    2  501    0  0.10717895236E+03  0.10139266468E+03 -0.30503359465E+03  0.33884110457E+03  0.00000000000E+00 0. -1.
<scales pt_clust_5="13000.00000" pt_clust_6="13000.00000" pt_clust_7="13000.00000" pt_clust_8="13000.00000" pt_clust_9="30.05745" pt_clust_10="137.04299"></scales>
<clustering>
<clus scale="   30.057">  1  9  2 -1</clus>
<clus scale="   79.376">  5  6 -1 -1</clus>
<clus scale="   91.364">  7  8 -1 -1</clus>
<clus scale="  100.040">  2  7  1 -1</clus>
<clus scale="  137.043">  1 10  2 -1</clus>
<clus scale="   30.057">  1  5  2 -1</clus>
</clustering>
</event>
<event>
10    4  0.7204077E-005  0.1431246E+03  0.7546771E-02  0.1233603E+00
          2   -1    0    0  502    0 -0.00000000000E+00  0.00000000000E+00  0.32773985493E+03  0.32773985493E+03  0.00000000000E+00 0. -1.
         21   -1    0    0  503  502  0.00000000000E+00 -0.00000000000E+00 -0.14115903019E+03  0.14115903019E+03  0.00000000000E+00 0. -1.
         24    2    1    2    0    0 -0.60076066534E+01 -0.40271807827E+02  0.57014579475E+02  0.10440986396E+03  0.77413484456E+02 0.  0.
         23    2    1    2    0    0  0.74174431251E+02 -0.78597806044E+02  0.10159791650E+03  0.17426082200E+03  0.91461664541E+02 0.  0.
        -11    1    3    3    0    0 -0.26126475307E+02 -0.43249985313E+02  0.77595691435E+01  0.51121080337E+02  0.00000000000E+00 0.  1.
         12    1    3    3    0    0  0.20118868654E+02  0.29781774855E+01  0.49255010332E+02  0.53288783621E+02  0.00000000000E+00 0. -1.
        -11    1    4    4    0    0  0.43825196854E+02 -0.40960721543E+02 -0.19103109902E+01  0.60017313141E+02  0.00000000000E+00 0.  1.
         11    1    4    4    0    0  0.30349234397E+02 -0.37637084501E+02  0.10350822749E+03  0.11424350886E+03  0.00000000000E+00 0. -1.
         21    1    1    2  503  501 -0.14141207537E+02  0.17417831272E+02 -0.47633887192E+02  0.52653032257E+02  0.00000000000E+00 0. -1.
          1    1    1    2  501    0 -0.54025617061E+02  0.10145178260E+03  0.75602215961E+02  0.13757516691E+03  0.00000000000E+00 0. -1.
<scales pt_clust_5="13000.00000" pt_clust_6="13000.00000" pt_clust_7="13000.00000" pt_clust_8="13000.00000" pt_clust_9="22.43557" pt_clust_10="110.08827"></scales>
<clustering>
<clus scale="   22.436">  2  9  1 -1</clus>
<clus scale="   77.413">  5  6 -1 -1</clus>
<clus scale="   85.813">  1  5  2 -1</clus>
<clus scale="   91.462">  7  8 -1 -1</clus>
<clus scale="  110.088">  2 10  1 -1</clus>
<clus scale="   22.436">  2  5  1 -1</clus>
</clustering>
</event>
<event>
10    4  0.7204077E-005  0.4562868E+03  0.7546771E-02  0.1025992E+00
          2   -1    0    0  503    0 -0.00000000000E+00  0.00000000000E+00  0.31573247726E+04  0.31573247726E+04  0.00000000000E+00 0. -1.
         21   -1    0    0  501  502  0.00000000000E+00 -0.00000000000E+00 -0.93846025328E+02  0.93846025328E+02  0.00000000000E+00 0. -1.
         24    2    1    2    0    0 -0.43052452844E+03 -0.34533669114E+02  0.14521162402E+04  0.15172124250E+04  0.82146354187E+02 0.  0.
         23    2    1    2    0    0  0.46838671865E+03 -0.27343039709E+02  0.13086835582E+04  0.13932417818E+04  0.91303050989E+02 0.  0.
        -11    1    3    3    0    0 -0.79564177829E+02  0.19304069572E+02  0.21176531738E+03  0.22704108690E+03  0.00000000000E+00 0.  1.
         12    1    3    3    0    0 -0.35096035061E+03 -0.53837738686E+02  0.12403509229E+04  0.12901713381E+04  0.00000000000E+00 0. -1.
        -13    1    4    4    0    0  0.92047047237E+02  0.19624519313E+02  0.34522356074E+03  0.35782270407E+03  0.00000000000E+00 0.  1.
         13    1    4    4    0    0  0.37633967141E+03 -0.46967559021E+02  0.96345999748E+03  0.10354190778E+04  0.00000000000E+00 0. -1.
         21    1    1    2  503  502 -0.77045356434E+02  0.60430029255E+02  0.12511962009E+03  0.15887949747E+03  0.00000000000E+00 0. -1.
          1    1    1    2  501    0  0.39183166220E+02  0.14466795668E+01  0.17755932868E+03  0.18183709357E+03  0.00000000000E+00 0. -1.
<scales pt_clust_5="13000.00000" pt_clust_6="13000.00000" pt_clust_7="13000.00000" pt_clust_8="13000.00000" pt_clust_9="92.52412" pt_clust_10="39.20988"></scales>
<clustering>
<clus scale="   39.210">  2 10  1 -1</clus>
<clus scale="   82.146">  5  6 -1 -1</clus>
<clus scale="   91.303">  7  8 -1 -1</clus>
<clus scale="   92.524">  2  9  1 -1</clus>
<clus scale="  454.543">  1  5  2 -1</clus>
<clus scale="   39.210">  2  5  1 -1</clus>
</clustering>
</event>
<event>
10    4  0.7204077E-005  0.3507763E+03  0.7546771E-02  0.1081211E+00
         21   -1    0    0  501  502  0.00000000000E+00  0.00000000000E+00  0.25363012788E+03  0.25363012788E+03  0.00000000000E+00 0. -1.
          4   -1    0    0  503    0 -0.00000000000E+00 -0.00000000000E+00 -0.98394379066E+03  0.98394379066E+03  0.00000000000E+00 0. -1.
         23    2    1    2    0    0  0.21434558469E+02  0.18843600377E+03 -0.18295567710E+03  0.27854579241E+03  0.90263009443E+02 0.  0.
         24    2    1    2    0    0 -0.31865705326E+03 -0.74486229270E+01 -0.14093918600E+03  0.36050539143E+03  0.92208912390E+02 0.  0.
        -13    1    4    4    0    0 -0.20658018974E+03 -0.39637307553E+02 -0.60608438252E+02  0.21890608427E+03  0.00000000000E+00 0.  1.
         14    1    4    4    0    0 -0.11207686352E+03  0.32188684626E+02 -0.80330747749E+02  0.14159930716E+03  0.00000000000E+00 0. -1.
        -11    1    3    3    0    0 -0.63555467747E+00  0.17301774565E+03 -0.18269699066E+03  0.25162220617E+03  0.00000000000E+00 0.  1.
         11    1    3    3    0    0  0.22070113146E+02  0.15418258113E+02 -0.25868644283E+00  0.26923586244E+02  0.00000000000E+00 0. -1.
         21    1    1    2  503  502 -0.39796811048E+02 -0.16764330399E+01  0.14667560596E+01  0.39859101478E+02  0.00000000000E+00 0. -1.
          3    1    1    2  501    0  0.33701930584E+03 -0.17931094780E+03 -0.40788555574E+03  0.55866363323E+03  0.00000000000E+00 0. -1.
<scales pt_clust_5="13000.00000" pt_clust_6="13000.00000" pt_clust_7="13000.00000" pt_clust_8="13000.00000" pt_clust_9="39.83211" pt_clust_10="338.43997"></scales>
<clustering>
<clus scale="   39.832">  1  9  2 -1</clus>
<clus scale="   90.263">  7  8 -1 -1</clus>
<clus scale="   92.209">  5  6 -1 -1</clus>
<clus scale="  209.051">  2  7  1 -1</clus>
<clus scale="  338.440">  1 10  2 -1</clus>
<clus scale="   39.832">  1  5  2 -1</clus>
</clustering>
</event>
<event>
10    4  0.7204077E-005  0.1849051E+03  0.7546771E-02  0.1172609E+00
         21   -1    0    0  503  502  0.00000000000E+00  0.00000000000E+00  0.37744894915E+03  0.37744894915E+03  0.00000000000E+00 0.  1.
         -1   -1    0    0    0  501 -0.00000000000E+00 -0.00000000000E+00 -0.68814841803E+03  0.68814841803E+03  0.00000000000E+00 0.  1.
         23    2    1    2    0    0 -0.11769118337E+03 -0.17253797502E+02 -0.44960848143E+03  0.47368388677E+03  0.89887317426E+02 0.  0.
         24    2    1    2    0    0 -0.52341251742E+02  0.17209301314E+03 -0.26172568126E+02  0.19931618651E+03  0.81769964395E+02 0.  0.
        -11    1    4    4    0    0 -0.63828230791E+02  0.79268594905E+02 -0.28727369104E+02  0.10574882940E+03  0.00000000000E+00 0.  1.
         12    1    4    4    0    0  0.11486979049E+02  0.92824418233E+02  0.25548009788E+01  0.93567357107E+02  0.00000000000E+00 0. -1.
        -11    1    3    3    0    0 -0.10603755481E+03 -0.47183456488E+02 -0.37222754016E+03  0.38990201750E+03  0.00000000000E+00 0.  1.
         11    1    3    3    0    0 -0.11653628561E+02  0.29929658986E+02 -0.77380941277E+02  0.83781869271E+02  0.00000000000E+00 0. -1.
         21    1    1    2  503  501  0.13827246306E+03 -0.32260774388E+02  0.21402636570E+03  0.25684103414E+03  0.00000000000E+00 0.  1.
         -2    1    1    2    0  502  0.31759972054E+02 -0.12257844125E+03 -0.48944785025E+02  0.13575625976E+03  0.00000000000E+00 0.  1.
<scales pt_clust_5="13000.00000" pt_clust_6="13000.00000" pt_clust_7="13000.00000" pt_clust_8="13000.00000" pt_clust_9="165.84197" pt_clust_10="126.62617"></scales>
<clustering>
<clus scale="   81.770">  5  6 -1 -1</clus>
<clus scale="   89.887">  7  8 -1 -1</clus>
<clus scale="  126.626">  1 10  2 -1</clus>
<clus scale="  148.770">  2  7  1 -1</clus>
<clus scale="  165.842">  1  9  2 -1</clus>
<clus scale="  126.626">  1  5  2 -1</clus>
</clustering>
</event>
<event>
10    4  0.7204077E-005  0.2307239E+03  0.7546771E-02  0.1145134E+00
         -1   -1    0    0    0  501 -0.00000000000E+00  0.00000000000E+00  0.10447099961E+04  0.10447099961E+04  0.00000000000E+00 0.  1.
         21   -1    0    0  501  502  0.00000000000E+00 -0.00000000000E+00 -0.12063186424E+03  0.12063186424E+03  0.00000000000E+00 0.  1.
         23    2    1    2    0    0 -0.20182975011E+02 -0.11794309184E+03  0.31915272016E+03  0.35345327148E+03  0.93556565460E+02 0.  0.
         24    2    1    2    0    0  0.21168289429E+03 -0.58662120209E+01  0.19755381916E+03  0.30181693892E+03  0.84981721448E+02 0.  0.
        -13    1    4    4    0    0  0.12600552752E+03 -0.43023601259E+02  0.13366909912E+03  0.18866862826E+03  0.00000000000E+00 0.  1.
         14    1    4    4    0    0  0.85677366769E+02  0.37157389239E+02  0.63884720039E+02  0.11314831066E+03  0.00000000000E+00 0. -1.
        -13    1    3    3    0    0  0.24656859655E+01 -0.12343926286E+03  0.22704745639E+03  0.25844511734E+03  0.00000000000E+00 0.  1.
         13    1    3    3    0    0 -0.22648660976E+02  0.54961710118E+01  0.92105263768E+02  0.95008154143E+02  0.00000000000E+00 0. -1.
         21    1    1    2  503  502  0.15448594818E+02  0.45868903009E+02  0.21640592537E+01  0.48448926692E+02  0.00000000000E+00 0. -1.
         -2    1    1    2    0  503 -0.20694851409E+03  0.77940400855E+02  0.40520753326E+03  0.46162272321E+03  0.00000000000E+00 0.  1.
<scales pt_clust_5="13000.00000" pt_clust_6="13000.00000" pt_clust_7="13000.00000" pt_clust_8="13000.00000" pt_clust_9="48.40057" pt_clust_10="214.50327"></scales>
<clustering>
<clus scale="   48.401">  2  9  1 -1</clus>
<clus scale="   84.982">  5  6 -1 -1</clus>
<clus scale="   93.557">  7  8 -1 -1</clus>
<clus scale="  145.362">  1  7  2 -1</clus>
<clus scale="  214.503">  2 10  1 -1</clus>
<clus scale="   48.401">  2  5  1 -1</clus>
</clustering>
</event>
<event>
10    4  0.7204077E-005  0.1221283E+03  0.7546771E-02  0.1243650E+00
         21   -1    0    0  503  502  0.00000000000E+00  0.00000000000E+00  0.57275977055E+03  0.57275977055E+03  0.00000000000E+00 0. -1.
          2   -1    0    0  502    0 -0.00000000000E+00 -0.00000000000E+00 -0.24096191535E+03  0.24096191535E+03  0.00000000000E+00 0. -1.
         24    2    1    2    0    0  0.70164237052E+02  0.35516382597E+02 -0.20303234601E+03  0.23205586529E+03  0.80270526937E+02 0.  0.
         23    2    1    2    0    0 -0.87568171801E+02 -0.14336931606E+02  0.28768325075E+03  0.31515330332E+03  0.93199890064E+02 0.  0.
        -13    1    3    3    0    0  0.13640674587E+02  0.51330689022E+02 -0.84871793427E+02  0.10012057210E+03  0.00000000000E+00 0.  1.
         14    1    3    3    0    0  0.56523562465E+02 -0.15814306424E+02 -0.11816055258E+03  0.13193529319E+03  0.00000000000E+00 0. -1.
        -13    1    4    4    0    0 -0.25843924322E+02  0.32603561039E+02  0.16380397011E+03  0.16900485567E+03  0.00000000000E+00 0. -1.
         13    1    4    4    0    0 -0.61724247479E+02 -0.46940492646E+02  0.12387928064E+03  0.14614844764E+03  0.00000000000E+00 0.  1.
         21    1    1    2  503  501 -0.21475396681E+02  0.23668122249E+02  0.14403347689E+03  0.14753648748E+03  0.00000000000E+00 0. -1.
          1    1    1    2  501    0  0.38879331430E+02 -0.44847573240E+02  0.10311347357E+03  0.11897602981E+03  0.00000000000E+00 0. -1.
<scales pt_clust_5="13000.00000" pt_clust_6="13000.00000" pt_clust_7="13000.00000" pt_clust_8="13000.00000" pt_clust_9="31.95892" pt_clust_10="51.04489"></scales>
<clustering>
<clus scale="   31.959">  1  9  2 -1</clus>
<clus scale="   51.045">  1 10  2 -1</clus>
<clus scale="   80.271">  5  6 -1 -1</clus>
<clus scale="   93.200">  7  8 -1 -1</clus>
<clus scale="  112.572">  2  5  1 -1</clus>
<clus scale="   31.959">  1  5  2 -1</clus>
</clustering>
</event>
<event>
10    4  0.7204077E-005  0.1887279E+03  0.7546771E-02  0.1188647E+00
         -1   -1    0    0    0  501 -0.00000000000E+00  0.00000000000E+00  0.54030084298E+03  0.54030084298E+03  0.00000000000E+00 0.  1.
         21   -1    0    0  501  502  0.00000000000E+00 -0.00000000000E+00 -0.41283498878E+03  0.41283498878E+03  0.00000000000E+00 0.  1.
         23    2    1    2    0    0  0.95715436918E+01  0.30154761480E+02  0.58037678647E+02  0.11247826392E+03  0.91005843899E+02 0.  0.
         24    2    1    2    0    0  0.17880206004E+03 -0.33869613000E+02  0.39618281587E+03  0.44358894328E+03  0.81810755106E+02 0.  0.
        -13    1    4    4    0    0  0.95956978457E+02  0.17746640372E+02  0.24403294315E+03  0.26282077982E+03  0.00000000000E+00 0.  1.
         14    1    4    4    0    0  0.82845081579E+02 -0.51616253373E+02  0.15214987271E+03  0.18076816346E+03  0.00000000000E+00 0. -1.
        -13    1    3    3    0    0  0.31962301681E+02  0.29298984672E+02 -0.67898004705E+01  0.43887590752E+02  0.00000000000E+00 0.  1.
         13    1    3    3    0    0 -0.22390757989E+02  0.85577680769E+00  0.64827479118E+02  0.68590673171E+02  0.00000000000E+00 0. -1.
         21    1    1    2  503  502 -0.67262316526E+02  0.35074693582E+02 -0.21964461002E+03  0.23237514511E+03  0.00000000000E+00 0.  1.
         -2    1    1    2    0  503 -0.12111128720E+03 -0.31359842061E+02 -0.10711003030E+03  0.16469347945E+03  0.00000000000E+00 0.  1.
<scales pt_clust_5="13000.00000" pt_clust_6="13000.00000" pt_clust_7="13000.00000" pt_clust_8="13000.00000" pt_clust_9="75.85811" pt_clust_10="170.07421"></scales>
<clustering>
<clus scale="   75.858">  2  9  1 -1</clus>
<clus scale="   81.811">  5  6 -1 -1</clus>
<clus scale="   91.006">  7  8 -1 -1</clus>
<clus scale="   97.600">  1  7  2 -1</clus>
<clus scale="  170.074">  2 10  1 -1</clus>
<clus scale="   75.858">  2  5  1 -1</clus>
</clustering>
</event>
<event>
10    4  0.7204077E-005  0.1962543E+03  0.7546771E-02  0.1154042E+00
         21   -1    0    0  501  502  0.00000000000E+00  0.00000000000E+00  0.30892845462E+03  0.30892845462E+03  0.00000000000E+00 0. -1.
          2   -1    0    0  503    0 -0.00000000000E+00 -0.00000000000E+00 -0.81967315480E+03  0.81967315480E+03  0.00000000000E+00 0. -1.
         24    2    1    2    0    0  0.17265462880E+03  0.17362718352E+02 -0.74375009109E+03  0.76793588629E+03  0.80313402504E+02 0.  0.
         23    2    1    2    0    0 -0.17104639097E+03 -0.34454214563E+02  0.12248593013E+03  0.23205127320E+03  0.91657130380E+02 0.  0.
        -11    1    3    3    0    0  0.24742082966E+02  0.33357176676E+02 -0.13341773097E+03  0.13973246882E+03  0.00000000000E+00 0.  1.
         12    1    3    3    0    0  0.14791254584E+03 -0.15994458324E+02 -0.61033236012E+03  0.62820341747E+03  0.00000000000E+00 0. -1.
        -11    1    4    4    0    0 -0.10477862458E+02 -0.29379399871E+02  0.42147652607E+02  0.52434333778E+02  0.00000000000E+00 0.  1.
         11    1    4    4    0    0 -0.16056852851E+03 -0.50748146919E+01  0.80338277526E+02  0.17961693942E+03  0.00000000000E+00 0. -1.
         21    1    1    2  503  502  0.15956750545E+02 -0.13650692685E+02  0.77166195274E+02  0.79972376430E+02  0.00000000000E+00 0. -1.
          1    1    1    2  501    0 -0.17564988381E+02  0.30742188896E+02  0.33353265502E+02  0.48642073502E+02  0.00000000000E+00 0. -1.
<scales pt_clust_5="13000.00000" pt_clust_6="13000.00000" pt_clust_7="13000.00000" pt_clust_8="13000.00000" pt_clust_9="20.99903" pt_clust_10="31.91301"></scales>
<clustering>
<clus scale="   20.999">  1  9  2 -1</clus>
<clus scale="   31.913">  1 10  2 -1</clus>
<clus scale="   80.313">  5  6 -1 -1</clus>
<clus scale="   91.657">  7  8 -1 -1</clus>
<clus scale="  191.220">  2  5  1 -1</clus>
<clus scale="   20.999">  1  5  2 -1</clus>
</clustering>
</event>
<event>
10    4  0.7204077E-005  0.3195000E+03  0.7546771E-02  0.1107057E+00
         21   -1    0    0  501  502  0.00000000000E+00  0.00000000000E+00  0.20260974384E+03  0.20260974384E+03  0.00000000000E+00 0. -1.
          4   -1    0    0  503    0 -0.00000000000E+00 -0.00000000000E+00 -0.11891774489E+04  0.11891774489E+04  0.00000000000E+00 0. -1.
         24    2    1    2    0    0 -0.70522365210E+02  0.89896580551E+02 -0.49489301711E+03  0.51412875965E+03  0.79715016953E+02 0.  0.
         23    2    1    2    0    0  0.59465390848E+01  0.25578789707E+03 -0.80486881460E+02  0.28795008282E+03  0.10475830514E+03 0.  0.
        -11    1    3    3    0    0  0.14140977137E+02  0.34310282002E+02 -0.16050261179E+03  0.16473691473E+03  0.00000000000E+00 0.  1.
         12    1    3    3    0    0 -0.84663342347E+02  0.55586298550E+02 -0.33439040532E+03  0.34939184492E+03  0.00000000000E+00 0. -1.
        -11    1    4    4    0    0 -0.45455161100E+02  0.69236859526E+02 -0.28413791875E+02  0.87562880014E+02  0.00000000000E+00 0.  1.
         11    1    4    4    0    0  0.51401700185E+02  0.18655103754E+03 -0.52073089585E+02  0.20038720281E+03  0.00000000000E+00 0. -1.
         21    1    1    2  503  502 -0.50781667020E+01  0.29437972069E+02 -0.15510133673E+01  0.29913000837E+02  0.00000000000E+00 0. -1.
          3    1    1    2  501    0  0.69653992828E+02 -0.37512244969E+03 -0.40963679314E+03  0.55979534945E+03  0.00000000000E+00 0. -1.
<scales pt_clust_5="13000.00000" pt_clust_6="13000.00000" pt_clust_7="13000.00000" pt_clust_8="13000.00000" pt_clust_9="29.87276" pt_clust_10="301.83779"></scales>
<clustering>
<clus scale="   29.873">  1  9  2 -1</clus>
<clus scale="   79.715">  5  6 -1 -1</clus>
<clus scale="  104.758">  7  8 -1 -1</clus>
<clus scale="  140.422">  2  5  1 -1</clus>
<clus scale="  301.838">  1 10  2 -1</clus>
<clus scale="   29.873">  1  5  2 -1</clus>
</clustering>
</event>
<event>
10    4  0.7204077E-005  0.3763120E+03  0.7546771E-02  0.1109279E+00
         21   -1    0    0  501  502  0.00000000000E+00  0.00000000000E+00  0.17161827778E+04  0.17161827778E+04  0.00000000000E+00 0. -1.
          2   -1    0    0  503    0 -0.00000000000E+00 -0.00000000000E+00 -0.11889014351E+04  0.11889014351E+04  0.00000000000E+00 0. -1.
         24    2    1    2    0    0  0.35248388214E+01 -0.53195058671E+01 -0.72198330571E+02  0.10865429420E+03  0.80947112851E+02 0.  0.
         23    2    1    2    0    0 -0.26845681287E+02 -0.19858627076E+01 -0.26179170331E+03  0.27883566960E+03  0.92140113225E+02 0.  0.
        -11    1    3    3    0    0  0.34529133301E+02  0.12254304643E+02 -0.61249600929E+02  0.71371861702E+02  0.00000000000E+00 0.  1.
         12    1    3    3    0    0 -0.31004294480E+02 -0.17573810510E+02 -0.10948729642E+02  0.37282432496E+02  0.00000000000E+00 0. -1.
        -11    1    4    4    0    0 -0.31132991692E+02 -0.41979254677E+02 -0.10967902470E+03  0.12149489476E+03  0.00000000000E+00 0. -1.
         11    1    4    4    0    0  0.42873104047E+01  0.39993391970E+02 -0.15211267861E+03  0.15734077483E+03  0.00000000000E+00 0.  1.
         21    1    1    2  503  502 -0.18556233712E+03 -0.32684551000E+03  0.16197881280E+04  0.16628213818E+04  0.00000000000E+00 0. -1.
          1    1    1    2  501    0  0.20888317958E+03  0.33415087857E+03 -0.75851675147E+03  0.85477286727E+03  0.00000000000E+00 0. -1.
<scales pt_clust_5="13000.00000" pt_clust_6="13000.00000" pt_clust_7="13000.00000" pt_clust_8="13000.00000" pt_clust_9="376.31198" pt_clust_10="13000.00000"></scales>
<clustering>
<clus scale="   80.947">  5  6 -1 -1</clus>
<clus scale="   81.198">  2  5  1 -1</clus>
<clus scale="   92.140">  7  8 -1 -1</clus>
<clus scale="   95.789">  2  7  1 -1</clus>
<clus scale="  376.312">  1  9  2 -1</clus>
<clus scale="  376.312">  1  5  2 -1</clus>
</clustering>
</event>
<event>
10    4  0.7204077E-005  0.1577040E+03  0.7546771E-02  0.1192818E+00
         21   -1    0    0  503  502  0.00000000000E+00  0.00000000000E+00  0.44182818105E+02  0.44182818105E+02  0.00000000000E+00 0.  1.
         -1   -1    0    0    0  501 -0.00000000000E+00 -0.00000000000E+00 -0.90575220945E+03  0.90575220945E+03  0.00000000000E+00 0.  1.
         23    2    1    2    0    0  0.60127231775E+02 -0.94269753364E+02 -0.30579713747E+03  0.33794070494E+03  0.90498399837E+02 0.  0.
         24    2    1    2    0    0 -0.84649982441E+02  0.12671181035E+03 -0.31557888459E+03  0.35973242094E+03  0.81215022459E+02 0.  0.
        -13    1    4    4    0    0 -0.75039373920E+02  0.13736256188E+03 -0.30108228905E+03  0.33933748072E+03  0.00000000000E+00 0.  1.
         14    1    4    4    0    0 -0.96106085205E+01 -0.10650751536E+02 -0.14496595541E+02  0.20394940223E+02  0.00000000000E+00 0. -1.
        -13    1    3    3    0    0  0.40640799170E+02 -0.21306655401E+02 -0.21499539091E+03  0.21983781803E+03  0.00000000000E+00 0. -1.
         13    1    3    3    0    0  0.19486432605E+02 -0.72963097963E+02 -0.90801746555E+02  0.11810288691E+03  0.00000000000E+00 0.  1.
         21    1    1    2  503  501  0.21887510291E+02  0.15822245971E+02 -0.61955505794E+02  0.67586176638E+02  0.00000000000E+00 0. -1.
         -2    1    1    2    0  502  0.26352403746E+01 -0.48264302954E+02 -0.17823786350E+03  0.18467572503E+03  0.00000000000E+00 0.  1.
<scales pt_clust_5="13000.00000" pt_clust_6="13000.00000" pt_clust_7="13000.00000" pt_clust_8="13000.00000" pt_clust_9="27.00753" pt_clust_10="45.44993"></scales>
<clustering>
<clus scale="   27.008">  2  9  1 -1</clus>
<clus scale="   45.450">  1 10  2 -1</clus>
<clus scale="   81.215">  5  6 -1 -1</clus>
<clus scale="   90.498">  7  8 -1 -1</clus>
<clus scale="  152.566">  1  5  2 -1</clus>
<clus scale="   45.450">  1  5  2 -1</clus>
</clustering>
</event>
<event>
10    4  0.7204077E-005  0.2000551E+03  0.7546771E-02  0.1161483E+00
         21   -1    0    0  501  502  0.00000000000E+00  0.00000000000E+00  0.11172753187E+03  0.11172753187E+03  0.00000000000E+00 0. -1.
          2   -1    0    0  503    0 -0.00000000000E+00 -0.00000000000E+00 -0.10114165846E+04  0.10114165846E+04  0.00000000000E+00 0. -1.
         23    2    1    2    0    0  0.12220061303E+03 -0.44135473590E+01 -0.37675022640E+02  0.15541330005E+03  0.88212341969E+02 0.  0.
         24    2    1    2    0    0  0.39928726045E+02 -0.13868977481E+03 -0.37672399776E+03  0.41129045626E+03  0.80060677761E+02 0.  0.
        -13    1    4    4    0    0 -0.12304095936E+02 -0.94560239740E+02 -0.19343980717E+03  0.21566638290E+03  0.00000000000E+00 0.  1.
         14    1    4    4    0    0  0.52232821982E+02 -0.44129535075E+02 -0.18328419059E+03  0.19562407336E+03  0.00000000000E+00 0. -1.
        -11    1    3    3    0    0  0.87804429506E+02 -0.13094076567E+02  0.16853431740E+02  0.90361002891E+02  0.00000000000E+00 0. -1.
         11    1    3    3    0    0  0.34396183522E+02  0.86805292084E+01 -0.54528454379E+02  0.65052297155E+02  0.00000000000E+00 0.  1.
         21    1    1    2  503  502  0.10079689661E+02 -0.27789380484E+02 -0.48706282896E+02  0.56975010354E+02  0.00000000000E+00 0. -1.
          1    1    1    2  501    0 -0.17220902873E+03  0.17089270266E+03 -0.43658374948E+03  0.49946534986E+03  0.00000000000E+00 0. -1.
<scales pt_clust_5="13000.00000" pt_clust_6="13000.00000" pt_clust_7="13000.00000" pt_clust_8="13000.00000" pt_clust_9="29.56095" pt_clust_10="183.33680"></scales>
<clustering>
<clus scale="   29.561">  2  9  1 -1</clus>
<clus scale="   80.061">  5  6 -1 -1</clus>
<clus scale="   88.212">  7  8 -1 -1</clus>
<clus scale="  151.709">  2  7  1 -1</clus>
<clus scale="  183.337">  1 10  2 -1</clus>
<clus scale="  183.337">  1  5  2 -1</clus>
</clustering>
</event>
<event>
10    4  0.7204077E-005  0.3294914E+03  0.7546771E-02  0.1071362E+00
         21   -1    0    0  501  502  0.00000000000E+00  0.00000000000E+00  0.99776622744E+03  0.99776622744E+03  0.00000000000E+00 0. -1.
          2   -1    0    0  503    0 -0.00000000000E+00 -0.00000000000E+00 -0.18311403948E+03  0.18311403948E+03  0.00000000000E+00 0. -1.
         24    2    1    2    0    0 -0.19397470611E+03 -0.46792777865E+01  0.27158997198E+02  0.21193200068E+03  0.80805194951E+02 0.  0.
         23    2    1    2    0    0 -0.22242583269E+02 -0.20680292440E+02  0.65380185911E+02  0.11410889580E+03  0.88452610963E+02 0.  0.
        -13    1    3    3    0    0 -0.97048490422E+02 -0.41746208352E+02  0.46612334643E+01  0.10574914894E+03  0.00000000000E+00 0.  1.
         14    1    3    3    0    0 -0.96926215688E+02  0.37066930566E+02  0.22497763734E+02  0.10618285173E+03  0.00000000000E+00 0. -1.
        -13    1    4    4    0    0 -0.15879732052E+01  0.26362853709E+02 -0.50914836670E+01  0.26896931433E+02  0.00000000000E+00 0.  1.
         13    1    4    4    0    0 -0.20654610064E+02 -0.47043146149E+02  0.70471669578E+02  0.87211964372E+02  0.00000000000E+00 0. -1.
         21    1    1    2  503  502 -0.46931019573E+02 -0.78249249532E+02  0.46092855647E+03  0.46987296136E+03  0.00000000000E+00 0. -1.
          1    1    1    2  501    0  0.26314830895E+03  0.10360881976E+03  0.26118444838E+03  0.38496640907E+03  0.00000000000E+00 0. -1.
<scales pt_clust_5="13000.00000" pt_clust_6="13000.00000" pt_clust_7="13000.00000" pt_clust_8="13000.00000" pt_clust_9="91.24399" pt_clust_10="241.28499"></scales>
<clustering>
<clus scale="   80.805">  5  6 -1 -1</clus>
<clus scale="   88.453">  7  8 -1 -1</clus>
<clus scale="   91.229">  5  7 -1 -1</clus>
<clus scale="   91.244">  1  9  2 -1</clus>
<clus scale="  241.285">  1 10  2 -1</clus>
<clus scale="   91.244">  1  5  2 -1</clus>
</clustering>
</event>
<event>
10    4  0.7204077E-005  0.1039829E+03  0.7546771E-02  0.1284568E+00
          2   -1    0    0  503    0 -0.00000000000E+00  0.00000000000E+00  0.58603943886E+03  0.58603943886E+03  0.00000000000E+00 0. -1.
         21   -1    0    0  501  502  0.00000000000E+00 -0.00000000000E+00 -0.34966098866E+02  0.34966098866E+02  0.00000000000E+00 0.  1.
         23    2    1    2    0    0 -0.42023517228E+02 -0.26944686549E+02  0.43598105218E+03  0.44827069471E+03  0.91515822357E+02 0.  0.
         24    2    1    2    0    0  0.22267502919E+02  0.49491642841E+02  0.93187707965E+02  0.12617443227E+03  0.65504000232E+02 0.  0.
        -13    1    4    4    0    0  0.87035806691E+01  0.41243021029E+02  0.12537213600E+02  0.43976366663E+02  0.00000000000E+00 0.  1.
         14    1    4    4    0    0  0.13563922250E+02  0.82486218115E+01  0.80650494366E+02  0.82198065610E+02  0.00000000000E+00 0. -1.
        -11    1    3    3    0    0 -0.68562608143E+02 -0.40341439287E+01  0.30879730393E+03  0.31634297916E+03  0.00000000000E+00 0.  1.
         11    1    3    3    0    0  0.26539090915E+02 -0.22910542620E+02  0.12718374826E+03  0.13192771555E+03  0.00000000000E+00 0. -1.
         21    1    1    2  503  502  0.19939859961E+02 -0.21583145063E+01  0.14958488049E+02  0.25020245832E+02  0.00000000000E+00 0. -1.
          1    1    1    2  501    0 -0.18384565221E+00 -0.20388641786E+02  0.69460917993E+01  0.21540164911E+02  0.00000000000E+00 0. -1.
<scales pt_clust_5="13000.00000" pt_clust_6="13000.00000" pt_clust_7="13000.00000" pt_clust_8="13000.00000" pt_clust_9="20.05633" pt_clust_10="21.43125"></scales>
<clustering>
<clus scale="   20.056">  2  9  1 -1</clus>
<clus scale="   21.431">  2 10  1 -1</clus>
<clus scale="   65.504">  5  6 -1 -1</clus>
<clus scale="   82.025">  2  5  1 -1</clus>
<clus scale="   91.516">  7  8 -1 -1</clus>
<clus scale="   20.056">  2  5  1 -1</clus>
</clustering>
</event>
<event>
10    4  0.7204077E-005  0.1420803E+03  0.7546771E-02  0.1212769E+00
         21   -1    0    0  501  502  0.00000000000E+00  0.00000000000E+00  0.39049023462E+03  0.39049023462E+03  0.00000000000E+00 0.  1.
          2   -1    0    0  503    0 -0.00000000000E+00 -0.00000000000E+00 -0.35317654411E+03  0.35317654411E+03  0.00000000000E+00 0. -1.
         23    2    1    2    0    0  0.10525827330E+03 -0.20887334272E+02 -0.14873129469E+03  0.20558051826E+03  0.92880388859E+02 0.  0.
         24    2    1    2    0    0 -0.11926451920E+03 -0.46805579101E+02  0.28846440470E+03  0.32624851672E+03  0.82532382154E+02 0.  0.
        -13    1    4    4    0    0 -0.10809024149E+03 -0.56413163884E+02  0.28652081798E+03  0.31138420721E+03  0.00000000000E+00 0.  1.
         14    1    4    4    0    0 -0.11174277705E+02  0.96075847833E+01  0.19435867207E+01  0.14864309501E+02  0.00000000000E+00 0. -1.
        -13    1    3    3    0    0  0.17577502329E+02  0.30472896018E+02 -0.65009702995E+02  0.73917707373E+02  0.00000000000E+00 0. -1.
         13    1    3    3    0    0  0.87680770967E+02 -0.51360230290E+02 -0.83721591699E+02  0.13166281088E+03  0.00000000000E+00 0.  1.
         21    1    1    2  503  502  0.13464756938E+01  0.37214455293E+02  0.46347307392E+02  0.59454197346E+02  0.00000000000E+00 0.  1.
          1    1    1    2  501    0  0.12659770207E+02  0.30478458081E+02 -0.14876672689E+03  0.15238354642E+03  0.00000000000E+00 0. -1.
<scales pt_clust_5="13000.00000" pt_clust_6="13000.00000" pt_clust_7="13000.00000" pt_clust_8="13000.00000" pt_clust_9="41.47640" pt_clust_10="33.00314"></scales>
<clustering>
<clus scale="   33.003">  1 10  2 -1</clus>
<clus scale="   41.476">  1  9  2 -1</clus>
<clus scale="   82.532">  5  6 -1 -1</clus>
<clus scale="   92.880">  7  8 -1 -1</clus>
<clus scale="  135.542">  1  5  2 -1</clus>
<clus scale="   33.003">  1  5  2 -1</clus>
</clustering>
</event>
<event>
10    4  0.7204077E-005  0.1647675E+03  0.7546771E-02  0.1186446E+00
         21   -1    0    0  501  502  0.00000000000E+00  0.00000000000E+00  0.83763856778E+03  0.83763856778E+03  0.00000000000E+00 0. -1.
          2   -1    0    0  503    0 -0.00000000000E+00 -0.00000000000E+00 -0.17896362368E+03  0.17896362368E+03  0.00000000000E+00 0. -1.
         23    2    1    2    0    0  0.29968654268E+02  0.12054628779E+03 -0.12225117696E+03  0.19734369227E+03  0.92572430406E+02 0.  0.
         24    2    1    2    0    0 -0.17982265574E+02 -0.10441140944E+03  0.56751213615E+03  0.58761697848E+03  0.10953805015E+03 0.  0.
        -13    1    4    4    0    0  0.42717019354E+02 -0.70186602887E+02  0.28214257532E+03  0.29386278392E+03  0.00000000000E+00 0.  1.
         14    1    4    4    0    0 -0.60699284928E+02 -0.34224806550E+02  0.28536956083E+03  0.29375419456E+03  0.00000000000E+00 0. -1.
        -11    1    3    3    0    0  0.62522409518E+02  0.83598559195E+02 -0.94540291253E+02  0.14083904807E+03  0.00000000000E+00 0.  1.
         11    1    3    3    0    0 -0.32553755250E+02  0.36947728592E+02 -0.27710885711E+02  0.56504644198E+02  0.00000000000E+00 0. -1.
         21    1    1    2  503  502 -0.38640403654E+01  0.27971806972E+02  0.15726514873E+03  0.15978009825E+03  0.00000000000E+00 0. -1.
          1    1    1    2  501    0 -0.81223483284E+01 -0.44106685322E+02  0.56148836185E+02  0.71861422456E+02  0.00000000000E+00 0. -1.
<scales pt_clust_5="13000.00000" pt_clust_6="13000.00000" pt_clust_7="13000.00000" pt_clust_8="13000.00000" pt_clust_9="28.23744" pt_clust_10="42.32984"></scales>
<clustering>
<clus scale="   28.237">  1  9  2 -1</clus>
<clus scale="   42.330">  1 10  2 -1</clus>
<clus scale="   92.572">  7  8 -1 -1</clus>
<clus scale="  109.538">  5  6 -1 -1</clus>
<clus scale="  154.011">  2  7  1 -1</clus>
<clus scale="   28.237">  1  5  2 -1</clus>
</clustering>
</event>
<event>
10    4  0.7204077E-005  0.1182665E+03  0.7546771E-02  0.1250473E+00
         21   -1    0    0  501  502  0.00000000000E+00  0.00000000000E+00  0.25879816480E+03  0.25879816480E+03  0.00000000000E+00 0.  1.
          2   -1    0    0  503    0 -0.00000000000E+00 -0.00000000000E+00 -0.18608161021E+03  0.18608161021E+03  0.00000000000E+00 0. -1.
         23    2    1    2    0    0  0.73581105558E+02  0.26176913184E+02 -0.10310164847E+03  0.15928462953E+03  0.92963613349E+02 0.  0.
         24    2    1    2    0    0 -0.55360204973E+02  0.10955308122E+02  0.11507194148E+03  0.15088350606E+03  0.79621037504E+02 0.  0.
        -11    1    4    4    0    0 -0.38781193079E+02 -0.16973891312E+02  0.11018656304E+03  0.11803886054E+03  0.00000000000E+00 0.  1.
         12    1    4    4    0    0 -0.16579011895E+02  0.27929199434E+02  0.48853784349E+01  0.32844645513E+02  0.00000000000E+00 0. -1.
        -13    1    3    3    0    0  0.77738773681E+01  0.36139268939E+02 -0.81197095957E+02  0.89215740318E+02  0.00000000000E+00 0. -1.
         13    1    3    3    0    0  0.65807228190E+02 -0.99623557545E+01 -0.21904552518E+02  0.70068889211E+02  0.00000000000E+00 0.  1.
         21    1    1    2  503  502 -0.27581584885E+02  0.31525071240E+02  0.48944100631E+02  0.64421261460E+02  0.00000000000E+00 0.  1.
          1    1    1    2  501    0  0.93606843002E+01 -0.68657292546E+02  0.11802160957E+02  0.70290377959E+02  0.00000000000E+00 0. -1.
<scales pt_clust_5="13000.00000" pt_clust_6="13000.00000" pt_clust_7="13000.00000" pt_clust_8="13000.00000" pt_clust_9="41.88763" pt_clust_10="62.36848"></scales>
<clustering>
<clus scale="   41.888">  1  9  2 -1</clus>
<clus scale="   62.368">  1 10  2 -1</clus>
<clus scale="   79.621">  5  6 -1 -1</clus>
<clus scale="   92.964">  7  8 -1 -1</clus>
<clus scale="  108.094">  1  5  2 -1</clus>
<clus scale="   41.888">  1  5  2 -1</clus>
</clustering>
</event>
<event>
10    4  0.7204077E-005  0.1450984E+03  0.7546771E-02  0.1217774E+00
         21   -1    0    0  501  502  0.00000000000E+00  0.00000000000E+00  0.36448561422E+03  0.36448561422E+03  0.00000000000E+00 0. -1.
          2   -1    0    0  503    0 -0.00000000000E+00 -0.00000000000E+00 -0.89674801226E+03  0.89674801226E+03  0.00000000000E+00 0. -1.
         24    2    1    2    0    0 -0.21196037980E+02  0.52769350013E+02 -0.74308173990E+03  0.75174184997E+03  0.98546742672E+02 0.  0.
         23    2    1    2    0    0  0.84309761677E+02  0.39002197325E+02 -0.59923784982E+02  0.14340344111E+03  0.91347575808E+02 0.  0.
        -13    1    3    3    0    0 -0.18589601885E+02  0.25704208535E+02 -0.57896348421E+02  0.66017170457E+02  0.00000000000E+00 0.  1.
         14    1    3    3    0    0 -0.26064360953E+01  0.27065141478E+02 -0.68518539148E+03  0.68572467951E+03  0.00000000000E+00 0. -1.
        -11    1    4    4    0    0  0.87954279717E+02 -0.18172628688E+01 -0.50183456617E+02  0.10127999350E+03  0.00000000000E+00 0.  1.
         11    1    4    4    0    0 -0.36445180401E+01  0.40819460194E+02 -0.97403283647E+01  0.42123447614E+02  0.00000000000E+00 0. -1.
         21    1    1    2  503  502 -0.17978766423E+02  0.55694162240E+02  0.17509553431E+03  0.18461723074E+03  0.00000000000E+00 0. -1.
          1    1    1    2  501    0 -0.45134957273E+02 -0.14746570958E+03  0.95647592536E+02  0.18147110466E+03  0.00000000000E+00 0. -1.
<scales pt_clust_5="13000.00000" pt_clust_6="13000.00000" pt_clust_7="13000.00000" pt_clust_8="13000.00000" pt_clust_9="58.52415" pt_clust_10="112.73497"></scales>
<clustering>
<clus scale="   58.524">  1  9  2 -1</clus>
<clus scale="   91.348">  7  8 -1 -1</clus>
<clus scale="   98.547">  5  6 -1 -1</clus>
<clus scale="  114.468">  2  5  1 -1</clus>
<clus scale="  112.735">  1 10  2 -1</clus>
<clus scale="   58.524">  1  5  2 -1</clus>
</clustering>
</event>
<event>
10    4  0.7204077E-005  0.9479270E+02  0.7546771E-02  0.1296503E+00
         21   -1    0    0  503  502  0.00000000000E+00  0.00000000000E+00  0.10633511775E+03  0.10633511775E+03  0.00000000000E+00 0. -1.
          2   -1    0    0  502    0 -0.00000000000E+00 -0.00000000000E+00 -0.65873492884E+03  0.65873492884E+03  0.00000000000E+00 0. -1.
         24    2    1    2    0    0  0.37960963825E+02  0.26666281136E+02 -0.44121072656E+03  0.45086932091E+03  0.80399713774E+02 0.  0.
         23    2    1    2    0    0 -0.11596653716E+02  0.40110480148E+02 -0.16930471612E+03  0.19585242979E+03  0.89167002649E+02 0.  0.
        -13    1    3    3    0    0  0.21245822949E+02  0.38765524981E+02 -0.10370835479E+03  0.11273674544E+03  0.00000000000E+00 0.  1.
         14    1    3    3    0    0  0.16715140876E+02 -0.12099243845E+02 -0.33750237178E+03  0.33813257547E+03  0.00000000000E+00 0. -1.
        -13    1    4    4    0    0 -0.16824512846E+02 -0.26498931484E+02 -0.47695509147E+02  0.57097453491E+02  0.00000000000E+00 0.  1.
         13    1    4    4    0    0  0.52278591295E+01  0.66609411632E+02 -0.12160920697E+03  0.13875497630E+03  0.00000000000E+00 0. -1.
         21    1    1    2  503  501 -0.19794371199E+02  0.10972230731E+02  0.24604353193E+02  0.33430243409E+02  0.00000000000E+00 0. -1.
          1    1    1    2  501    0 -0.65699389098E+01 -0.77748992015E+02  0.33511278398E+02  0.84918052477E+02  0.00000000000E+00 0. -1.
<scales pt_clust_5="13000.00000" pt_clust_6="13000.00000" pt_clust_7="13000.00000" pt_clust_8="13000.00000" pt_clust_9="22.63199" pt_clust_10="72.67061"></scales>
<clustering>
<clus scale="   22.632">  1  9  2 -1</clus>
<clus scale="   72.671">  1 10  2 -1</clus>
<clus scale="   80.400">  5  6 -1 -1</clus>
<clus scale="   86.597">  2  5  1 -1</clus>
<clus scale="   89.167">  7  8 -1 -1</clus>
<clus scale="   22.632">  1  5  2 -1</clus>
</clustering>
</event>
<event>
10    4  0.7204077E-005  0.1359095E+03  0.7546771E-02  0.1221204E+00
         21   -1    0    0  501  502  0.00000000000E+00  0.00000000000E+00  0.17409172560E+03  0.17409172560E+03  0.00000000000E+00 0.  1.
          4   -1    0    0  503    0 -0.00000000000E+00 -0.00000000000E+00 -0.20495220197E+03  0.20495220197E+03  0.00000000000E+00 0. -1.
         23    2    1    2    0    0  0.19767632640E+02 -0.10319460944E+03 -0.96288541588E+02  0.16908785528E+03  0.90990839349E+02 0.  0.
         24    2    1    2    0    0 -0.66507702905E+02  0.77103262874E+02  0.19133838991E+02  0.13168089919E+03  0.81274643805E+02 0.  0.
        -11    1    4    4    0    0 -0.39444412377E+02  0.70590310492E+02  0.45968971535E+02  0.93016127349E+02  0.00000000000E+00 0.  1.
         12    1    4    4    0    0 -0.27063290528E+02  0.65129523820E+01 -0.26835132543E+02  0.38664771841E+02  0.00000000000E+00 0. -1.
        -13    1    3    3    0    0  0.33812885050E+02 -0.80958499763E+02 -0.22245013183E+02  0.90512046108E+02  0.00000000000E+00 0. -1.
         13    1    3    3    0    0 -0.14045252410E+02 -0.22236109679E+02 -0.74043528405E+02  0.78575809176E+02  0.00000000000E+00 0.  1.
         21    1    1    2  503  502  0.16773892593E+02  0.25087761527E+02  0.35052385660E+02  0.46253961902E+02  0.00000000000E+00 0.  1.
          3    1    1    2  501    0  0.29966177672E+02  0.10035850406E+01  0.11241840562E+02  0.32021211195E+02  0.00000000000E+00 0. -1.
<scales pt_clust_5="13000.00000" pt_clust_6="13000.00000" pt_clust_7="13000.00000" pt_clust_8="13000.00000" pt_clust_9="35.44242" pt_clust_10="29.98298"></scales>
<clustering>
<clus scale="   29.983">  1 10  2 -1</clus>
<clus scale="   35.442">  1  9  2 -1</clus>
<clus scale="   81.275">  5  6 -1 -1</clus>
<clus scale="   90.991">  7  8 -1 -1</clus>
<clus scale="  129.606">  1  5  2 -1</clus>
<clus scale="   29.983">  1  5  2 -1</clus>
</clustering>
</event>
<event>
10    4  0.7204077E-005  0.2410637E+03  0.7546771E-02  0.1146365E+00
          2   -1    0    0  503    0 -0.00000000000E+00  0.00000000000E+00  0.41452562559E+03  0.41452562559E+03  0.00000000000E+00 0. -1.
         21   -1    0    0  501  502  0.00000000000E+00 -0.00000000000E+00 -0.43154963935E+03  0.43154963935E+03  0.00000000000E+00 0. -1.
         23    2    1    2    0    0 -0.66512438086E+02  0.54894541855E+02  0.13259513748E+03  0.18310643093E+03  0.92245213534E+02 0.  0.
         24    2    1    2    0    0  0.19609410389E+03 -0.17981294749E+03  0.35893259925E+02  0.27898771256E+03  0.75896139452E+02 0.  0.
        -11    1    4    4    0    0  0.89116182708E+02 -0.48281074020E+02  0.41084668868E+02  0.10936501335E+03  0.00000000000E+00 0.  1.
         12    1    4    4    0    0  0.10697792118E+03 -0.13153187348E+03 -0.51914089423E+01  0.16962269921E+03  0.00000000000E+00 0. -1.
        -11    1    3    3    0    0 -0.71635169066E+02  0.51766146585E+00  0.73435367568E+02  0.10258956394E+03  0.00000000000E+00 0.  1.
         11    1    3    3    0    0  0.51227309793E+01  0.54376880389E+02  0.59159769910E+02  0.80516866987E+02  0.00000000000E+00 0. -1.
         21    1    1    2  503  502  0.12499045711E+02 -0.51386787004E+02 -0.14449147265E+03  0.15386557019E+03  0.00000000000E+00 0.  1.
          1    1    1    2  501    0 -0.14208071151E+03  0.17630519264E+03 -0.41020938512E+02  0.23011555126E+03  0.00000000000E+00 0. -1.
<scales pt_clust_5="13000.00000" pt_clust_6="13000.00000" pt_clust_7="13000.00000" pt_clust_8="13000.00000" pt_clust_9="52.88505" pt_clust_10="228.80444"></scales>
<clustering>
<clus scale="   52.885">  2  9  1 -1</clus>
<clus scale="   75.896">  5  6 -1 -1</clus>
<clus scale="   92.245">  7  8 -1 -1</clus>
<clus scale="  123.756">  1  7  2 -1</clus>
<clus scale="  228.804">  2 10  1 -1</clus>
<clus scale="   52.885">  2  5  1 -1</clus>
</clustering>
</event>
<event>
10    4  0.7204077E-005  0.2479433E+03  0.7546771E-02  0.1139895E+00
         21   -1    0    0  503  502  0.00000000000E+00  0.00000000000E+00  0.93279106480E+03  0.93279106480E+03  0.00000000000E+00 0. -1.
          2   -1    0    0  502    0 -0.00000000000E+00 -0.00000000000E+00 -0.19259451145E+03  0.19259451145E+03  0.00000000000E+00 0. -1.
         24    2    1    2    0    0 -0.34592170564E+02 -0.81103147978E+02  0.29991759147E+03  0.32247883063E+03  0.79168779558E+02 0.  0.
         23    2    1    2    0    0  0.38470716854E+02  0.30649502056E+03  0.58848972611E+02  0.32747447282E+03  0.91417367543E+02 0.  0.
        -11    1    3    3    0    0 -0.34074989588E+02 -0.72822655085E+02  0.13340639791E+03  0.15576107027E+03  0.00000000000E+00 0.  1.
         12    1    3    3    0    0 -0.51718097585E+00 -0.82804928930E+01  0.16651119356E+03  0.16671776036E+03  0.00000000000E+00 0. -1.
        -11    1    4    4    0    0  0.15654531135E+02  0.26476577997E+03  0.77607476658E+02  0.27634924103E+03  0.00000000000E+00 0. -1.
         11    1    4    4    0    0  0.22816185719E+02  0.41729240595E+02 -0.18758504047E+02  0.51125231789E+02  0.00000000000E+00 0.  1.
         21    1    1    2  503  501 -0.35932921221E+02 -0.30482267119E+02  0.20576909689E+03  0.21109539235E+03  0.00000000000E+00 0. -1.
          1    1    1    2  501    0  0.32054374932E+02 -0.19490960547E+03  0.17566089239E+03  0.26433688046E+03  0.00000000000E+00 0. -1.
<scales pt_clust_5="13000.00000" pt_clust_6="13000.00000" pt_clust_7="13000.00000" pt_clust_8="13000.00000" pt_clust_9="47.12052" pt_clust_10="230.47500"></scales>
<clustering>
<clus scale="   47.121">  1  9  2 -1</clus>
<clus scale="   79.169">  5  6 -1 -1</clus>
<clus scale="   91.417">  7  8 -1 -1</clus>
<clus scale="  132.831">  2  5  1 -1</clus>
<clus scale="  230.475">  1 10  2 -1</clus>
<clus scale="   47.121">  1  5  2 -1</clus>
</clustering>
</event>
<event>
10    4  0.7204077E-005  0.1218447E+03  0.7546771E-02  0.1242904E+00
         21   -1    0    0  503  502  0.00000000000E+00  0.00000000000E+00  0.13992451754E+03  0.13992451754E+03  0.00000000000E+00 0.  1.
          2   -1    0    0  502    0 -0.00000000000E+00 -0.00000000000E+00 -0.24915381496E+03  0.24915381496E+03  0.00000000000E+00 0. -1.
         23    2    1    2    0    0  0.43214970928E+02 -0.77218518552E+02 -0.70281923177E+02  0.14449288467E+03  0.90046719407E+02 0.  0.
         24    2    1    2    0    0  0.18829836588E+02  0.82594230052E+02  0.24573994940E+02  0.11952356854E+03  0.80657501981E+02 0.  0.
        -11    1    4    4    0    0 -0.13903843319E+02  0.43182676440E+02  0.45435806663E+02  0.64206486671E+02  0.00000000000E+00 0.  1.
         12    1    4    4    0    0  0.32733679906E+02  0.39411553612E+02 -0.20861811723E+02  0.55317081871E+02  0.00000000000E+00 0. -1.
        -13    1    3    3    0    0  0.67333522701E+02 -0.41231142541E+02 -0.61995477052E+02  0.10038550478E+03  0.00000000000E+00 0.  1.
         13    1    3    3    0    0 -0.24118551773E+02 -0.35987376011E+02 -0.82864461247E+01  0.44107379895E+02  0.00000000000E+00 0. -1.
         21    1    1    2  503  501  0.85003262281E+01 -0.26100854741E+02  0.66832069845E+00  0.27458274104E+02  0.00000000000E+00 0.  1.
          1    1    1    2  501    0 -0.70545133744E+02  0.20725143241E+02 -0.64189689887E+02  0.97603605185E+02  0.00000000000E+00 0. -1.
<scales pt_clust_5="13000.00000" pt_clust_6="13000.00000" pt_clust_7="13000.00000" pt_clust_8="13000.00000" pt_clust_9="27.45014" pt_clust_10="71.53056"></scales>
<clustering>
<clus scale="   27.450">  1  9  2 -1</clus>
<clus scale="   71.531">  1 10  2 -1</clus>
<clus scale="   80.658">  5  6 -1 -1</clus>
<clus scale="   90.047">  7  8 -1 -1</clus>
<clus scale="  115.080">  1  5  2 -1</clus>
<clus scale="   27.450">  1  5  2 -1</clus>
</clustering>
</event>
<event>
10    4  0.7204077E-005  0.2048747E+03  0.7546771E-02  0.1162826E+00
         -1   -1    0    0    0  501 -0.00000000000E+00  0.00000000000E+00  0.19929540660E+04  0.19929540660E+04  0.00000000000E+00 0.  1.
         21   -1    0    0  503  502  0.00000000000E+00 -0.00000000000E+00 -0.66820170512E+02  0.66820170512E+02  0.00000000000E+00 0.  1.
         23    2    1    2    0    0 -0.57803203091E+02  0.84244619441E+02  0.24773151671E+03  0.28295151873E+03  0.90842123405E+02 0.  0.
         24    2    1    2    0    0  0.75648620583E+02 -0.24806344185E+03  0.13656743710E+04  0.13923098763E+04  0.78753533053E+02 0.  0.
        -11    1    4    4    0    0  0.17522378515E+02 -0.16818347405E+03  0.96013209385E+03  0.97490838151E+03  0.00000000000E+00 0.  1.
         12    1    4    4    0    0  0.58126242069E+02 -0.79879967800E+02  0.40554227720E+03  0.41740149481E+03  0.00000000000E+00 0. -1.
        -11    1    3    3    0    0 -0.33946423870E+02 -0.11918552995E+02  0.47904157739E+02  0.59910098713E+02  0.00000000000E+00 0.  1.
         11    1    3    3    0    0 -0.23856779221E+02  0.96163172436E+02  0.19982735898E+03  0.22304142002E+03  0.00000000000E+00 0. -1.
         21    1    1    2  503  501 -0.29172043376E+02 -0.21188978971E+02  0.32562131803E+02  0.48582644763E+02  0.00000000000E+00 0.  1.
         -2    1    1    2    0  502  0.11326625884E+02  0.18500780138E+03  0.28016587592E+03  0.33593019670E+03  0.00000000000E+00 0.  1.
<scales pt_clust_5="13000.00000" pt_clust_6="13000.00000" pt_clust_7="13000.00000" pt_clust_8="13000.00000" pt_clust_9="36.05525" pt_clust_10="189.13362"></scales>
<clustering>
<clus scale="   36.055">  2  9  1 -1</clus>
<clus scale="   78.754">  5  6 -1 -1</clus>
<clus scale="   90.842">  7  8 -1 -1</clus>
<clus scale="  136.924">  1  7  2 -1</clus>
<clus scale="  189.134">  2 10  1 -1</clus>
<clus scale="   36.055">  2  5  1 -1</clus>
</clustering>
</event>
<event>
10    4  0.7204077E-005  0.2203020E+03  0.7546771E-02  0.1169222E+00
          2   -1    0    0  503    0 -0.00000000000E+00  0.00000000000E+00  0.18407031467E+04  0.18407031467E+04  0.00000000000E+00 0. -1.
         21   -1    0    0  501  502  0.00000000000E+00 -0.00000000000E+00 -0.13002023018E+03  0.13002023018E+03  0.00000000000E+00 0. -1.
         24    2    1    2    0    0  0.29383574857E+02  0.40446907492E+02  0.20546920406E+03  0.22638442819E+03  0.80826782155E+02 0.  0.
         23    2    1    2    0    0 -0.11473264612E+03 -0.17854245996E+03  0.47983945743E+03  0.53474923878E+03  0.10329498231E+03 0.  0.
        -11    1    3    3    0    0 -0.25970438078E+02  0.17715886479E+02  0.10333672848E+03  0.10801294246E+03  0.00000000000E+00 0.  1.
         12    1    3    3    0    0  0.55354012935E+02  0.22731021013E+02  0.10213247558E+03  0.11837148572E+03  0.00000000000E+00 0. -1.
        -13    1    4    4    0    0 -0.83742746100E+02 -0.38408591414E+02  0.20259284200E+03  0.22255769376E+03  0.00000000000E+00 0.  1.
         13    1    4    4    0    0 -0.30989900024E+02 -0.14013386855E+03  0.27724661543E+03  0.31219154502E+03  0.00000000000E+00 0. -1.
         21    1    1    2  503  502  0.14700803108E+03 -0.47523680246E+02 -0.11028747832E+02  0.15489188057E+03  0.00000000000E+00 0. -1.
          1    1    1    2  501    0 -0.61658959817E+02  0.18561923272E+03  0.10364030029E+04  0.10546978293E+04  0.00000000000E+00 0. -1.
<scales pt_clust_5="13000.00000" pt_clust_6="13000.00000" pt_clust_7="13000.00000" pt_clust_8="13000.00000" pt_clust_9="155.19999" pt_clust_10="194.58454"></scales>
<clustering>
<clus scale="   80.827">  5  6 -1 -1</clus>
<clus scale="   95.038">  1  5  2 -1</clus>
<clus scale="  103.295">  7  8 -1 -1</clus>
<clus scale="  155.200">  2  9  1 -1</clus>
<clus scale="  194.585">  2 10  1 -1</clus>
<clus scale="  155.200">  2  5  1 -1</clus>
</clustering>
</event>
<event>
10    4  0.7204077E-005  0.2123465E+03  0.7546771E-02  0.1160843E+00
          2   -1    0    0  503    0 -0.00000000000E+00  0.00000000000E+00  0.12073759556E+04  0.12073759556E+04  0.00000000000E+00 0. -1.
         21   -1    0    0  501  502  0.00000000000E+00 -0.00000000000E+00 -0.10537896409E+03  0.10537896409E+03  0.00000000000E+00 0. -1.
         24    2    1    2    0    0  0.76790419627E+02  0.55876882787E+02  0.15999693512E+03  0.20237181860E+03  0.79601125234E+02 0.  0.
         23    2    1    2    0    0 -0.77454703912E+02 -0.23086339555E+03  0.31715486468E+03  0.41000612916E+03  0.90667961245E+02 0.  0.
        -11    1    3    3    0    0  0.56133415985E+02  0.19341072095E+02  0.14683675294E+03  0.15838582472E+03  0.00000000000E+00 0.  1.
         12    1    3    3    0    0  0.20657003642E+02  0.36535810692E+02  0.13160182188E+02  0.43985993880E+02  0.00000000000E+00 0. -1.
        -13    1    4    4    0    0 -0.94220668831E+02 -0.14937815528E+03  0.21226953258E+03  0.27613352236E+03  0.00000000000E+00 0.  1.
         13    1    4    4    0    0  0.16765964919E+02 -0.81485240277E+02  0.10488533210E+03  0.13387260680E+03  0.00000000000E+00 0. -1.
         21    1    1    2  503  502 -0.62383132594E+01  0.42365455954E+02 -0.16152331781E+02  0.45767305279E+02  0.00000000000E+00 0. -1.
          1    1    1    2  501    0  0.69025975437E+01  0.13262105681E+03  0.64099752351E+03  0.65460966667E+03  0.00000000000E+00 0. -1.
<scales pt_clust_5="13000.00000" pt_clust_6="13000.00000" pt_clust_7="13000.00000" pt_clust_8="13000.00000" pt_clust_9="42.82229" pt_clust_10="192.01669"></scales>
<clustering>
<clus scale="   42.822">  2  9  1 -1</clus>
<clus scale="   79.601">  5  6 -1 -1</clus>
<clus scale="   90.668">  7  8 -1 -1</clus>
<clus scale="  128.760">  1  5  2 -1</clus>
<clus scale="  192.017">  2 10  1 -1</clus>
<clus scale="   42.822">  2  5  1 -1</clus>
</clustering>
</event>
<event>
10    4  0.7204077E-005  0.2203074E+03  0.7546771E-02  0.1134358E+00
          2   -1    0    0  502    0 -0.00000000000E+00  0.00000000000E+00  0.18675896299E+04  0.18675896299E+04  0.00000000000E+00 0. -1.
         21   -1    0    0  503  502  0.00000000000E+00 -0.00000000000E+00 -0.47785162070E+02  0.47785162070E+02  0.00000000000E+00 0. -1.
         23    2    1    2    0    0  0.16615881208E+03 -0.62266952245E+02  0.56439642238E+03  0.59851860549E+03  0.90527760045E+02 0.  0.
         24    2    1    2    0    0 -0.23574394702E+03 -0.28891134165E+01  0.75929247293E+03  0.79916625034E+03  0.80981977608E+02 0.  0.
        -13    1    4    4    0    0 -0.58034984959E+02  0.39338179333E+01  0.94237468827E+02  0.11074400631E+03  0.00000000000E+00 0.  1.
         14    1    4    4    0    0 -0.17770896206E+03 -0.68229313498E+01  0.66505500410E+03  0.68842224403E+03  0.00000000000E+00 0. -1.
        -13    1    3    3    0    0  0.12603951741E+03 -0.37865316397E+02  0.50976897764E+03  0.52648281329E+03  0.00000000000E+00 0.  1.
         13    1    3    3    0    0  0.40119294670E+02 -0.24401635849E+02  0.54627444749E+02  0.72035792192E+02  0.00000000000E+00 0. -1.
         21    1    1    2  503  501  0.44582173986E+01  0.50505775397E+02  0.70315635532E+02  0.86689086113E+02  0.00000000000E+00 0. -1.
          1    1    1    2  501    0  0.65126917541E+02  0.14650290265E+02  0.42579993702E+03  0.43100085007E+03  0.00000000000E+00 0. -1.
<scales pt_clust_5="13000.00000" pt_clust_6="13000.00000" pt_clust_7="13000.00000" pt_clust_8="13000.00000" pt_clust_9="50.70216" pt_clust_10="67.84213"></scales>
<clustering>
<clus scale="   50.702">  2  9  1 -1</clus>
<clus scale="   67.842">  2 10  1 -1</clus>
<clus scale="   80.982">  5  6 -1 -1</clus>
<clus scale="   90.528">  7  8 -1 -1</clus>
<clus scale="  216.560">  2  5  1 -1</clus>
<clus scale="   50.702">  2  5  1 -1</clus>
</clustering>
</event>
<event>
10    4  0.7204077E-005  0.1475987E+03  0.7546771E-02  0.1205328E+00
         21   -1    0    0  501  502  0.00000000000E+00  0.00000000000E+00  0.69911555984E+02  0.69911555984E+02  0.00000000000E+00 0. -1.
          2   -1    0    0  503    0 -0.00000000000E+00 -0.00000000000E+00 -0.51087585072E+03  0.51087585072E+03  0.00000000000E+00 0. -1.
         24    2    1    2    0    0  0.65839869279E+02  0.10817470875E+03 -0.33837330713E+03  0.36999572908E+03  0.79772730667E+02 0.  0.
         23    2    1    2    0    0 -0.62082886548E+02 -0.74231252335E+02 -0.87174129333E+02  0.15816867971E+03  0.89740953805E+02 0.  0.
        -11    1    3    3    0    0  0.63261466320E+02  0.34360494186E+02 -0.12561481648E+03  0.14478169359E+03  0.00000000000E+00 0.  1.
         12    1    3    3    0    0  0.25784029588E+01  0.73814214567E+02 -0.21275849066E+03  0.22521403549E+03  0.00000000000E+00 0. -1.
        -13    1    4    4    0    0 -0.84363168062E+02 -0.68966236914E+02 -0.69454980473E+02  0.12921873035E+03  0.00000000000E+00 0. -1.
         13    1    4    4    0    0  0.22280281514E+02 -0.52650154208E+01 -0.17719148860E+02  0.28949949362E+02  0.00000000000E+00 0.  1.
         21    1    1    2  503  502 -0.17605151387E+02 -0.11927789856E+02  0.19412886530E+01  0.21353738030E+02  0.00000000000E+00 0.  1.
          1    1    1    2  501    0  0.13848168657E+02 -0.22015666562E+02 -0.17358146924E+02  0.31269259887E+02  0.00000000000E+00 0. -1.
<scales pt_clust_5="13000.00000" pt_clust_6="13000.00000" pt_clust_7="13000.00000" pt_clust_8="13000.00000" pt_clust_9="21.26531" pt_clust_10="26.21821"></scales>
<clustering>
<clus scale="   21.265">  1  9  2 -1</clus>
<clus scale="   26.218">  1 10  2 -1</clus>
<clus scale="   79.773">  5  6 -1 -1</clus>
<clus scale="   89.741">  7  8 -1 -1</clus>
<clus scale="  141.759">  2  5  1 -1</clus>
<clus scale="   21.265">  1  5  2 -1</clus>
</clustering>
</event>
<event>
10    4  0.8120568E-005  0.3446856E+03  0.7546771E-02  0.1113613E+00
         21   -1    0    0  501  502  0.00000000000E+00  0.00000000000E+00  0.14829809944E+03  0.14829809944E+03  0.00000000000E+00 0. -1.
          2   -1    0    0  503    0 -0.00000000000E+00 -0.00000000000E+00 -0.20822845069E+04  0.20822845069E+04  0.00000000000E+00 0. -1.
         24    2    1    2    0    0 -0.19343759865E+02 -0.36563688242E+02 -0.11368069142E+04  0.11407524341E+04  0.85294029128E+02 0.  0.
         23    2    1    2    0    0 -0.31517010467E+03  0.10509570974E+03 -0.52185130384E+03  0.62515209124E+03  0.90050268056E+02 0.  0.
        -13    1    3    3    0    0  0.14894556352E+02 -0.24350449310E+02 -0.12200642521E+03  0.12530107734E+03  0.00000000000E+00 0.  1.
         14    1    3    3    0    0 -0.34238316217E+02 -0.12213238932E+02 -0.10148004890E+04  0.10154513567E+04  0.00000000000E+00 0. -1.
        -11    1    4    4    0    0 -0.72458465876E+02  0.32019572903E+01 -0.62592285915E+02  0.95803319690E+02  0.00000000000E+00 0.  1.
         11    1    4    4    0    0 -0.24271163880E+03  0.10189375245E+03 -0.45925901793E+03  0.52934877155E+03  0.00000000000E+00 0. -1.
         21    1    1    2  503  502  0.15709433537E+02  0.16839427091E+02  0.12990368473E+02  0.26440542352E+02  0.00000000000E+00 0.  1.
          1    1    1    2  501    0  0.31880443100E+03 -0.85371448587E+02 -0.28831855792E+03  0.43823753868E+03  0.00000000000E+00 0. -1.
<scales pt_clust_5="13000.00000" pt_clust_6="13000.00000" pt_clust_7="13000.00000" pt_clust_8="13000.00000" pt_clust_9="23.02939" pt_clust_10="332.71474"></scales>
<clustering>
<clus scale="   23.029">  1  9  2 -1</clus>
<clus scale="   85.294">  5  6 -1 -1</clus>
<clus scale="   90.050">  7  8 -1 -1</clus>
<clus scale="   94.647">  2  5  1 -1</clus>
<clus scale="  332.715">  1 10  2 -1</clus>
<clus scale="   23.029">  1  5  2 -1</clus>
</clustering>
</event>
<event>
10    4  0.7204077E-005  0.1476503E+03  0.7546771E-02  0.1205695E+00
         -1   -1    0    0    0  501 -0.00000000000E+00  0.00000000000E+00  0.10270660856E+03  0.10270660856E+03  0.00000000000E+00 0.  1.
         21   -1    0    0  503  502  0.00000000000E+00 -0.00000000000E+00 -0.70696814205E+03  0.70696814205E+03  0.00000000000E+00 0. -1.
         24    2    1    2    0    0  0.24116267849E+02 -0.11532956341E+03 -0.14607836525E+02  0.14352356375E+03  0.80641936303E+02 0.  0.
         23    2    1    2    0    0  0.30132004384E+02  0.11344380850E+03 -0.15727525711E+03  0.21697348397E+03  0.92544858711E+02 0.  0.
        -13    1    3    3    0    0  0.61949417380E+01 -0.10905285711E+03  0.13017341082E+02  0.11000160961E+03  0.00000000000E+00 0.  1.
         14    1    3    3    0    0  0.17921326111E+02 -0.62767063017E+01 -0.27625177606E+02  0.33521954140E+02  0.00000000000E+00 0. -1.
        -11    1    4    4    0    0 -0.16602392024E+02  0.98768422034E+02 -0.98688718918E+02  0.14060691254E+03  0.00000000000E+00 0. -1.
         11    1    4    4    0    0  0.46734396408E+02  0.14675386467E+02 -0.58586538187E+02  0.76366571433E+02  0.00000000000E+00 0.  1.
         21    1    1    2  503  501  0.13370854378E+02  0.39236128658E+02 -0.20147736896E+03  0.20569731097E+03  0.00000000000E+00 0. -1.
         -2    1    1    2    0  502 -0.67619126611E+02 -0.37350373744E+02 -0.23090107090E+03  0.24348039191E+03  0.00000000000E+00 0.  1.
<scales pt_clust_5="13000.00000" pt_clust_6="13000.00000" pt_clust_7="13000.00000" pt_clust_8="13000.00000" pt_clust_9="41.45182" pt_clust_10="64.15445"></scales>
<clustering>
<clus scale="   41.452">  2  9  1 -1</clus>
<clus scale="   64.154">  2 10  1 -1</clus>
<clus scale="   80.642">  5  6 -1 -1</clus>
<clus scale="   92.545">  7  8 -1 -1</clus>
<clus scale="  140.496">  1  5  2 -1</clus>
<clus scale="   41.452">  2  5  1 -1</clus>
</clustering>
</event>
<event>
10    4  0.7204077E-005  0.1890775E+03  0.7546771E-02  0.1160361E+00
         21   -1    0    0  503  502  0.00000000000E+00  0.00000000000E+00  0.14204004356E+03  0.14204004356E+03  0.00000000000E+00 0. -1.
          2   -1    0    0  502    0 -0.00000000000E+00 -0.00000000000E+00 -0.10577003644E+04  0.10577003644E+04  0.00000000000E+00 0. -1.
         24    2    1    2    0    0 -0.16900676540E+03 -0.72736942687E+02 -0.47066565485E+03  0.51183243116E+03  0.81193160705E+02 0.  0.
         23    2    1    2    0    0 -0.79006056099E+01  0.20306996597E+03 -0.81349566475E+02  0.23714956808E+03  0.91226832836E+02 0.  0.
        -11    1    3    3    0    0 -0.60555128368E+02 -0.38704469075E+00 -0.82364036675E+02  0.10222968215E+03  0.00000000000E+00 0.  1.
         12    1    3    3    0    0 -0.10845163703E+03 -0.72349897996E+02 -0.38830161818E+03  0.40960274901E+03  0.00000000000E+00 0. -1.
        -13    1    4    4    0    0  0.81343548613E+01  0.27490596909E+02 -0.50629980075E+02  0.58183292532E+02  0.00000000000E+00 0.  1.
         13    1    4    4    0    0 -0.16034960471E+02  0.17557936906E+03 -0.30719586400E+02  0.17896627555E+03  0.00000000000E+00 0. -1.
         21    1    1    2  503  501  0.30936188452E+02 -0.19307996788E+02  0.70826017883E+01  0.37148482391E+02  0.00000000000E+00 0. -1.
          1    1    1    2  501    0  0.14597118255E+03 -0.11102502649E+03 -0.37072770133E+03  0.41360992635E+03  0.00000000000E+00 0. -1.
<scales pt_clust_5="13000.00000" pt_clust_6="13000.00000" pt_clust_7="13000.00000" pt_clust_8="13000.00000" pt_clust_9="36.46706" pt_clust_10="189.88933"></scales>
<clustering>
<clus scale="   36.467">  1  9  2 -1</clus>
<clus scale="   81.193">  5  6 -1 -1</clus>
<clus scale="   91.227">  7  8 -1 -1</clus>
<clus scale="  189.889">  1 10  2 -1</clus>
<clus scale="  184.446">  2  5  1 -1</clus>
<clus scale="   36.467">  1  5  2 -1</clus>
</clustering>
</event>
<event>
10    4  0.7204077E-005  0.1970395E+03  0.7546771E-02  0.1185489E+00
         21   -1    0    0  501  502  0.00000000000E+00  0.00000000000E+00  0.16048021859E+03  0.16048021859E+03  0.00000000000E+00 0. -1.
          2   -1    0    0  503    0 -0.00000000000E+00 -0.00000000000E+00 -0.80973263996E+03  0.80973263996E+03  0.00000000000E+00 0. -1.
         23    2    1    2    0    0 -0.50849793391E+01  0.30624346582E+01 -0.42152287241E+03  0.43143532869E+03  0.91758788986E+02 0.  0.
         24    2    1    2    0    0 -0.79634038571E+02  0.14786799261E+03 -0.23079890912E+03  0.29669362943E+03  0.80947204733E+02 0.  0.
        -11    1    4    4    0    0 -0.26382291393E+02  0.32290122645E+01 -0.12261327074E+02  0.29271008882E+02  0.00000000000E+00 0.  1.
         12    1    4    4    0    0 -0.53251747178E+02  0.14463898034E+03 -0.21853758205E+03  0.26742262055E+03  0.00000000000E+00 0. -1.
        -13    1    3    3    0    0  0.19363747965E+02  0.41596681987E+02 -0.19044194533E+03  0.19589122806E+03  0.00000000000E+00 0.  1.
         13    1    3    3    0    0 -0.24448727305E+02 -0.38534247329E+02 -0.23108092708E+03  0.23554410063E+03  0.00000000000E+00 0. -1.
         21    1    1    2  503  502  0.58866741282E+01  0.37419962394E+02  0.12358757783E+00  0.37880361558E+02  0.00000000000E+00 0.  1.
          1    1    1    2  501    0  0.78832343782E+02 -0.18835038966E+03  0.29457725863E+01  0.20420353887E+03  0.00000000000E+00 0. -1.
<scales pt_clust_5="13000.00000" pt_clust_6="13000.00000" pt_clust_7="13000.00000" pt_clust_8="13000.00000" pt_clust_9="37.88016" pt_clust_10="179.64442"></scales>
<clustering>
<clus scale="   37.880">  1  9  2 -1</clus>
<clus scale="   80.947">  5  6 -1 -1</clus>
<clus scale="   91.759">  7  8 -1 -1</clus>
<clus scale="   91.992">  2  7  1 -1</clus>
<clus scale="  179.644">  1 10  2 -1</clus>
<clus scale="   37.880">  1  5  2 -1</clus>
</clustering>
</event>
<event>
10    4  0.7204077E-005  0.1144830E+03  0.7546771E-02  0.1256589E+00
          2   -1    0    0  502    0 -0.00000000000E+00  0.00000000000E+00  0.11221806193E+04  0.11221806193E+04  0.00000000000E+00 0. -1.
         21   -1    0    0  503  502  0.00000000000E+00 -0.00000000000E+00 -0.37732202333E+02  0.37732202333E+02  0.00000000000E+00 0.  1.
         24    2    1    2    0    0  0.36576656735E+02  0.56801724592E+02  0.71878358711E+03  0.72643528160E+03  0.80585889127E+02 0.  0.
         23    2    1    2    0    0 -0.15747226859E+02 -0.71947561206E+02  0.25692181627E+03  0.28265768936E+03  0.91989798142E+02 0.  0.
        -11    1    3    3    0    0 -0.47539611332E+01  0.56541208299E+02  0.27884056197E+03  0.28455503401E+03  0.00000000000E+00 0.  1.
         12    1    3    3    0    0  0.41330617868E+02  0.26051629285E+00  0.43994302514E+03  0.44188024759E+03  0.00000000000E+00 0. -1.
        -13    1    4    4    0    0  0.33236583902E+02 -0.51700190860E+02  0.10391914840E+03  0.12073429359E+03  0.00000000000E+00 0.  1.
         13    1    4    4    0    0 -0.48983810762E+02 -0.20247370346E+02  0.15300266788E+03  0.16192339578E+03  0.00000000000E+00 0. -1.
         21    1    1    2  503  501  0.37715683733E+01  0.22111505089E+02 -0.13333487838E+02  0.26094545085E+02  0.00000000000E+00 0.  1.
          1    1    1    2  501    0 -0.24600998249E+02 -0.69656684742E+01  0.12207650139E+03  0.12472530555E+03  0.00000000000E+00 0. -1.
<scales pt_clust_5="13000.00000" pt_clust_6="13000.00000" pt_clust_7="13000.00000" pt_clust_8="13000.00000" pt_clust_9="22.43086" pt_clust_10="24.90314"></scales>
<clustering>
<clus scale="   22.431">  2  9  1 -1</clus>
<clus scale="   24.903">  2 10  1 -1</clus>
<clus scale="   80.586">  5  6 -1 -1</clus>
<clus scale="   91.990">  7  8 -1 -1</clus>
<clus scale="  105.538">  1  5  2 -1</clus>
<clus scale="   22.431">  2  5  1 -1</clus>
</clustering>
</event>
<event>
10    4  0.7204077E-005  0.2590679E+03  0.7546771E-02  0.1107705E+00
         21   -1    0    0  501  502  0.00000000000E+00  0.00000000000E+00  0.58168981221E+03  0.58168981221E+03  0.00000000000E+00 0.  1.
          2   -1    0    0  503    0 -0.00000000000E+00 -0.00000000000E+00 -0.51168758496E+03  0.51168758496E+03  0.00000000000E+00 0. -1.
         24    2    1    2    0    0  0.51595902743E+02  0.90731424590E+02 -0.35921177538E+03  0.38135154690E+03  0.74172597120E+02 0.  0.
         23    2    1    2    0    0  0.35391203322E+02  0.19517314173E+02 -0.79804270852E+02  0.12661396454E+03  0.89604193792E+02 0.  0.
        -13    1    3    3    0    0  0.51792444769E+02  0.17349248604E+02 -0.14840836820E+03  0.15814075222E+03  0.00000000000E+00 0.  1.
         14    1    3    3    0    0 -0.19654202535E+00  0.73382175986E+02 -0.21080340718E+03  0.22321079468E+03  0.00000000000E+00 0. -1.
        -13    1    4    4    0    0  0.64004849814E+02  0.11645239372E+02 -0.37980177657E+02  0.75330779198E+02  0.00000000000E+00 0. -1.
         13    1    4    4    0    0 -0.28613646491E+02  0.78720748008E+01 -0.41824093195E+02  0.51283185341E+02  0.00000000000E+00 0.  1.
         21    1    1    2  503  502  0.43876696585E+02  0.40805930021E+02  0.25633360082E+03  0.26324361975E+03  0.00000000000E+00 0.  1.
          1    1    1    2  501    0 -0.13086380265E+03 -0.15105466878E+03  0.25268467266E+03  0.32216826598E+03  0.00000000000E+00 0. -1.
<scales pt_clust_5="13000.00000" pt_clust_6="13000.00000" pt_clust_7="13000.00000" pt_clust_8="13000.00000" pt_clust_9="59.91902" pt_clust_10="146.77826"></scales>
<clustering>
<clus scale="   59.919">  1  9  2 -1</clus>
<clus scale="   74.173">  5  6 -1 -1</clus>
<clus scale="   89.604">  7  8 -1 -1</clus>
<clus scale="   97.451">  5  7 -1 -1</clus>
<clus scale="  146.778">  1 10  2 -1</clus>
<clus scale="   59.919">  1  5  2 -1</clus>
</clustering>
</event>
<event>
10    4  0.7204077E-005  0.1226914E+03  0.7546771E-02  0.1241703E+00
          2   -1    0    0  502    0 -0.00000000000E+00  0.00000000000E+00  0.38496567287E+03  0.38496567287E+03  0.00000000000E+00 0. -1.
         21   -1    0    0  503  502  0.00000000000E+00 -0.00000000000E+00 -0.14172311976E+03  0.14172311976E+03  0.00000000000E+00 0. -1.
         23    2    1    2    0    0 -0.20804302575E+02 -0.63174729019E+02  0.13719536755E+03  0.17717537596E+03  0.90247878505E+02 0.  0.
         24    2    1    2    0    0  0.34941627416E+02  0.15479367410E+03 -0.29770647261E+01  0.17781846722E+03  0.80178210893E+02 0.  0.
        -11    1    4    4    0    0 -0.14216009680E+02  0.20643875981E+02 -0.22419500868E+02  0.33628835334E+02  0.00000000000E+00 0.  1.
         12    1    4    4    0    0  0.49157637095E+02  0.13414979812E+03  0.19442436142E+02  0.14418963188E+03  0.00000000000E+00 0. -1.
        -11    1    3    3    0    0  0.16547201183E+02 -0.60409891527E+02  0.43464867194E+02  0.76238832241E+02  0.00000000000E+00 0.  1.
         11    1    3    3    0    0 -0.37351503758E+02 -0.27648374919E+01  0.93730500359E+02  0.10093654371E+03  0.00000000000E+00 0. -1.
         21    1    1    2  503  501 -0.36156488023E+02 -0.22220806205E+02  0.22998357676E+01  0.42501118799E+02  0.00000000000E+00 0.  1.
          1    1    1    2  501    0  0.22019163183E+02 -0.69398138874E+02  0.10672441452E+03  0.12919383066E+03  0.00000000000E+00 0. -1.
<scales pt_clust_5="13000.00000" pt_clust_6="13000.00000" pt_clust_7="13000.00000" pt_clust_8="13000.00000" pt_clust_9="42.43885" pt_clust_10="73.85209"></scales>
<clustering>
<clus scale="   42.439">  2  9  1 -1</clus>
<clus scale="   73.852">  2 10  1 -1</clus>
<clus scale="   80.178">  5  6 -1 -1</clus>
<clus scale="   90.248">  7  8 -1 -1</clus>
<clus scale="  115.486">  2  5  1 -1</clus>
<clus scale="   42.439">  2  5  1 -1</clus>
</clustering>
</event>
<event>
10    4  0.1248628E-004  0.4912694E+03  0.7546771E-02  0.1075135E+00
         -1   -1    0    0    0  501 -0.00000000000E+00  0.00000000000E+00  0.20887505453E+04  0.20887505453E+04  0.00000000000E+00 0.  1.
         21   -1    0    0  503  502  0.00000000000E+00 -0.00000000000E+00 -0.18681468931E+03  0.18681468931E+03  0.00000000000E+00 0.  1.
         24    2    1    2    0    0  0.42236604433E+01 -0.35534749295E+02  0.38946782187E+03  0.39972431316E+03  0.82545651251E+02 0.  0.
         23    2    1    2    0    0 -0.25212610226E+03 -0.40658967536E+03  0.52732860976E+03  0.71799458475E+03  0.92509596866E+02 0.  0.
        -13    1    3    3    0    0  0.21928777694E+02  0.19536600511E+02  0.88447718855E+02  0.93196292959E+02  0.00000000000E+00 0.  1.
         14    1    3    3    0    0 -0.17705117250E+02 -0.55071349807E+02  0.30102010302E+03  0.30652802020E+03  0.00000000000E+00 0. -1.
        -11    1    4    4    0    0 -0.16043050248E+03 -0.32708220920E+03  0.41992509241E+03  0.55592967265E+03  0.00000000000E+00 0.  1.
         11    1    4    4    0    0 -0.91695599782E+02 -0.79507466153E+02  0.10740351736E+03  0.16206491210E+03  0.00000000000E+00 0. -1.
         21    1    1    2  503  501 -0.14849687337E+02  0.20860885170E+02 -0.22784129952E+02  0.34275447798E+02  0.00000000000E+00 0.  1.
         -2    1    1    2    0  502  0.26275212915E+03  0.42126353948E+03  0.10079235543E+04  0.11235708889E+04  0.00000000000E+00 0.  1.
<scales pt_clust_5="13000.00000" pt_clust_6="13000.00000" pt_clust_7="13000.00000" pt_clust_8="13000.00000" pt_clust_9="25.60644" pt_clust_10="482.48086"></scales>
<clustering>
<clus scale="   25.606">  2  9  1 -1</clus>
<clus scale="   82.546">  5  6 -1 -1</clus>
<clus scale="   89.682">  1  5  2 -1</clus>
<clus scale="   92.510">  7  8 -1 -1</clus>
<clus scale="  482.481">  2 10  1 -1</clus>
<clus scale="   25.606">  2  5  1 -1</clus>
</clustering>
</event>
<event>
10    4  0.7204077E-005  0.1431069E+03  0.7546771E-02  0.1215832E+00
          2   -1    0    0  503    0 -0.00000000000E+00  0.00000000000E+00  0.75333957487E+03  0.75333957487E+03  0.00000000000E+00 0. -1.
         21   -1    0    0  501  502  0.00000000000E+00 -0.00000000000E+00 -0.78061659838E+02  0.78061659838E+02  0.00000000000E+00 0. -1.
         24    2    1    2    0    0 -0.49729299366E+02 -0.83875874839E+02  0.56580788810E+03  0.57994601343E+03  0.81796373153E+02 0.  0.
         23    2    1    2    0    0  0.13866449984E+02  0.77414931038E+02  0.93650567283E+02  0.16332160947E+03  0.10825049370E+03 0.  0.
        -11    1    3    3    0    0  0.22204816946E+02 -0.14411009266E+02  0.93940189337E+02  0.97598618107E+02  0.00000000000E+00 0.  1.
         12    1    3    3    0    0 -0.71934116312E+02 -0.69464865573E+02  0.47186769876E+03  0.48234739532E+03  0.00000000000E+00 0. -1.
        -13    1    4    4    0    0 -0.17992605441E+02  0.73685072175E+02  0.10479454273E+03  0.12936429143E+03  0.00000000000E+00 0.  1.
         13    1    4    4    0    0  0.31859055425E+02  0.37298588631E+01 -0.11143975447E+02  0.33957318040E+02  0.00000000000E+00 0. -1.
         21    1    1    2  503  502  0.13130817921E+02 -0.27631782657E+02  0.31822673201E+02  0.44143134480E+02  0.00000000000E+00 0. -1.
          1    1    1    2  501    0  0.22732031461E+02  0.34092726458E+02 -0.16003213550E+02  0.43990477328E+02  0.00000000000E+00 0. -1.
<scales pt_clust_5="13000.00000" pt_clust_6="13000.00000" pt_clust_7="13000.00000" pt_clust_8="13000.00000" pt_clust_9="30.59304" pt_clust_10="36.12460"></scales>
<clustering>
<clus scale="   30.593">  2  9  1 -1</clus>
<clus scale="   36.125">  2 10  1 -1</clus>
<clus scale="   81.796">  5  6 -1 -1</clus>
<clus scale="  108.250">  7  8 -1 -1</clus>
<clus scale="  124.306">  1  5  2 -1</clus>
<clus scale="   30.593">  2  5  1 -1</clus>
</clustering>
</event>
<event>
10    4  0.7204077E-005  0.1456628E+03  0.7546771E-02  0.1219940E+00
          2   -1    0    0  502    0 -0.00000000000E+00  0.00000000000E+00  0.89955157074E+03  0.89955157074E+03  0.00000000000E+00 0. -1.
         21   -1    0    0  503  502  0.00000000000E+00 -0.00000000000E+00 -0.77557933005E+02  0.77557933005E+02  0.00000000000E+00 0. -1.
         23    2    1    2    0    0 -0.69502209533E+01 -0.63514090116E+02  0.15384708880E+02  0.11082804754E+03  0.89240246744E+02 0.  0.
         24    2    1    2    0    0  0.41785192328E+02 -0.82027257560E+02  0.40692133072E+03  0.42450529260E+03  0.78391968787E+02 0.  0.
        -13    1    4    4    0    0  0.26180257125E+02  0.51627221869E+01  0.15928280854E+03  0.16150254691E+03  0.00000000000E+00 0.  1.
         14    1    4    4    0    0  0.15604935204E+02 -0.87189979746E+02  0.24763852218E+03  0.26300274569E+03  0.00000000000E+00 0. -1.
        -11    1    3    3    0    0 -0.45105092231E+01 -0.22172236357E+02  0.51262981937E+02  0.56034329438E+02  0.00000000000E+00 0.  1.
         11    1    3    3    0    0 -0.24397117302E+01 -0.41341853759E+02 -0.35878273057E+02  0.54793718099E+02  0.00000000000E+00 0. -1.
         21    1    1    2  503  501  0.22793863427E+02  0.45816863749E+01  0.14064357098E+02  0.27172747387E+02  0.00000000000E+00 0. -1.
          1    1    1    2  501    0 -0.57628834802E+02  0.14095966130E+03  0.38562324104E+03  0.41460341622E+03  0.00000000000E+00 0. -1.
<scales pt_clust_5="13000.00000" pt_clust_6="13000.00000" pt_clust_7="13000.00000" pt_clust_8="13000.00000" pt_clust_9="23.24978" pt_clust_10="122.76959"></scales>
<clustering>
<clus scale="   23.250">  2  9  1 -1</clus>
<clus scale="   78.392">  5  6 -1 -1</clus>
<clus scale="   89.240">  7  8 -1 -1</clus>
<clus scale="  108.103">  1  7  2 -1</clus>
<clus scale="  122.770">  2 10  1 -1</clus>
<clus scale="   23.250">  2  5  1 -1</clus>
</clustering>
</event>
<event>
10    4  0.7204077E-005  0.9508398E+02  0.7546771E-02  0.1297384E+00
         21   -1    0    0  501  502  0.00000000000E+00  0.00000000000E+00  0.57826807017E+02  0.57826807017E+02  0.00000000000E+00 0.  1.
          2   -1    0    0  503    0 -0.00000000000E+00 -0.00000000000E+00 -0.34734298271E+03  0.34734298271E+03  0.00000000000E+00 0. -1.
         24    2    1    2    0    0  0.24394687219E+02  0.97890047046E+01 -0.12523753139E+03  0.15120229540E+03  0.80540483532E+02 0.  0.
         23    2    1    2    0    0 -0.27645084503E-02 -0.42447904361E+02 -0.53234136208E+02  0.11418267137E+03  0.91662340097E+02 0.  0.
        -11    1    3    3    0    0  0.34633841310E+02  0.26701864956E+02 -0.27892623570E+02  0.51869943182E+02  0.00000000000E+00 0.  1.
         12    1    3    3    0    0 -0.10239154092E+02 -0.16912860251E+02 -0.97344907825E+02  0.99332352221E+02  0.00000000000E+00 0. -1.
        -11    1    4    4    0    0 -0.27474688919E+02  0.17581484199E+02 -0.64004202527E+01  0.33240524924E+02  0.00000000000E+00 0. -1.
         11    1    4    4    0    0  0.27471924410E+02 -0.60029388560E+02 -0.46833715956E+02  0.80942146450E+02  0.00000000000E+00 0.  1.
         21    1    1    2  503  502  0.12090019464E+02 -0.17259366787E+02 -0.42743190403E+02  0.47655373656E+02  0.00000000000E+00 0. -1.
          1    1    1    2  501    0 -0.36481942174E+02  0.49918266444E+02 -0.68301317689E+02  0.92129449296E+02  0.00000000000E+00 0. -1.
<scales pt_clust_5="13000.00000" pt_clust_6="13000.00000" pt_clust_7="13000.00000" pt_clust_8="13000.00000" pt_clust_9="21.07260" pt_clust_10="56.23527"></scales>
<clustering>
<clus scale="   21.073">  2  9  1 -1</clus>
<clus scale="   56.235">  1 10  2 -1</clus>
<clus scale="   80.540">  5  6 -1 -1</clus>
<clus scale="   84.414">  2  5  1 -1</clus>
<clus scale="   91.662">  7  8 -1 -1</clus>
<clus scale="   56.235">  1  5  2 -1</clus>
</clustering>
</event>
<event>
10    4  0.7204077E-005  0.1209207E+03  0.7546771E-02  0.1246201E+00
         -3   -1    0    0    0  501 -0.00000000000E+00  0.00000000000E+00  0.83097544694E+03  0.83097544694E+03  0.00000000000E+00 0.  1.
         21   -1    0    0  503  502  0.00000000000E+00 -0.00000000000E+00 -0.56721955873E+02  0.56721955873E+02  0.00000000000E+00 0.  1.
         23    2    1    2    0    0 -0.38486776151E+02 -0.84050492720E+02  0.50460730359E+03  0.52103996450E+03  0.91150405914E+02 0.  0.
         24    2    1    2    0    0  0.69190647565E+02 -0.22293158464E+01  0.59276050758E+02  0.11886728342E+03  0.76311632890E+02 0.  0.
        -13    1    4    4    0    0  0.74908712360E+02 -0.22747561321E+02  0.58181654459E+02  0.97539077549E+02  0.00000000000E+00 0.  1.
         14    1    4    4    0    0 -0.57180647958E+01  0.20518245474E+02  0.10943962986E+01  0.21328205870E+02  0.00000000000E+00 0. -1.
        -11    1    3    3    0    0 -0.42709087606E+00 -0.88936462672E+02  0.39566233068E+03  0.40553490197E+03  0.00000000000E+00 0.  1.
         11    1    3    3    0    0 -0.38059685275E+02  0.48859699515E+01  0.10894497291E+03  0.11550506252E+03  0.00000000000E+00 0. -1.
         21    1    1    2  503  501 -0.22258969408E+02  0.65522963741E+02  0.48808182420E+02  0.84681516092E+02  0.00000000000E+00 0.  1.
         -4    1    1    2    0  502 -0.84449020055E+01  0.20756844826E+02  0.16156195429E+03  0.16310863880E+03  0.00000000000E+00 0.  1.
<scales pt_clust_5="13000.00000" pt_clust_6="13000.00000" pt_clust_7="13000.00000" pt_clust_8="13000.00000" pt_clust_9="76.37343" pt_clust_10="22.40900"></scales>
<clustering>
<clus scale="   22.409">  2 10  1 -1</clus>
<clus scale="   76.312">  5  6 -1 -1</clus>
<clus scale="   76.373">  2  9  1 -1</clus>
<clus scale="   91.150">  7  8 -1 -1</clus>
<clus scale="  110.168">  2  5  1 -1</clus>
<clus scale="   22.409">  2  5  1 -1</clus>
</clustering>
</event>
<event>
10    4  0.7204077E-005  0.1221913E+03  0.7546771E-02  0.1242846E+00
         21   -1    0    0  501  502  0.00000000000E+00  0.00000000000E+00  0.10671431461E+03  0.10671431461E+03  0.00000000000E+00 0.  1.
          4   -1    0    0  503    0 -0.00000000000E+00 -0.00000000000E+00 -0.36346108343E+03  0.36346108343E+03  0.00000000000E+00 0. -1.
         24    2    1    2    0    0 -0.81258127836E+02 -0.49290778904E+02 -0.88053032929E+02  0.15219250527E+03  0.79854604294E+02 0.  0.
         23    2    1    2    0    0  0.48809852638E+02  0.29944734600E+02  0.21219391953E+02  0.10948457104E+03  0.90870896641E+02 0.  0.
        -11    1    3    3    0    0  0.54087261015E+01 -0.35382919932E+02 -0.19092628979E+02  0.40567645018E+02  0.00000000000E+00 0.  1.
         12    1    3    3    0    0 -0.86666853938E+02 -0.13907858972E+02 -0.68960403950E+02  0.11162486025E+03  0.00000000000E+00 0. -1.
        -11    1    4    4    0    0 -0.21177914705E+02 -0.12602014662E+02 -0.84810981363E+00  0.24658348181E+02  0.00000000000E+00 0. -1.
         11    1    4    4    0    0  0.69987767343E+02  0.42546749262E+02  0.22067501767E+02  0.84826222860E+02  0.00000000000E+00 0.  1.
         21    1    1    2  503  502 -0.13997465161E+02  0.32266365916E+02 -0.55551697489E+02  0.65749817447E+02  0.00000000000E+00 0. -1.
          3    1    1    2  501    0  0.46445740359E+02 -0.12920321612E+02 -0.13436143036E+03  0.14274850429E+03  0.00000000000E+00 0. -1.
<scales pt_clust_5="13000.00000" pt_clust_6="13000.00000" pt_clust_7="13000.00000" pt_clust_8="13000.00000" pt_clust_9="35.17168" pt_clust_10="40.08345"></scales>
<clustering>
<clus scale="   35.172">  2  9  1 -1</clus>
<clus scale="   40.083">  1 10  2 -1</clus>
<clus scale="   79.855">  5  6 -1 -1</clus>
<clus scale="   90.871">  7  8 -1 -1</clus>
<clus scale="  114.236">  2  5  1 -1</clus>
<clus scale="   40.083">  1  5  2 -1</clus>
</clustering>
</event>
<event>
10    4  0.7204077E-005  0.3863671E+03  0.7546771E-02  0.1092577E+00
          2   -1    0    0  503    0 -0.00000000000E+00  0.00000000000E+00  0.20546084358E+04  0.20546084358E+04  0.00000000000E+00 0. -1.
         21   -1    0    0  501  502  0.00000000000E+00 -0.00000000000E+00 -0.37792281586E+03  0.37792281586E+03  0.00000000000E+00 0. -1.
         23    2    1    2    0    0 -0.55904400188E+02 -0.42941536620E+02  0.49160118004E+03  0.50501761467E+03  0.91661297113E+02 0.  0.
         24    2    1    2    0    0 -0.18743358591E+03 -0.26884822889E+03  0.74785672286E+03  0.82059384675E+03  0.81693721220E+02 0.  0.
        -13    1    4    4    0    0 -0.87897366314E+02 -0.69056408290E+02  0.30108595027E+03  0.32116582007E+03  0.00000000000E+00 0.  1.
         14    1    4    4    0    0 -0.99536219596E+02 -0.19979182060E+03  0.44677077259E+03  0.49942802668E+03  0.00000000000E+00 0. -1.
        -13    1    3    3    0    0 -0.74553473266E+02 -0.52067948242E+02  0.44180310186E+03  0.45106459895E+03  0.00000000000E+00 0. -1.
         13    1    3    3    0    0  0.18649073078E+02  0.91264116223E+01  0.49798078177E+02  0.53953015726E+02  0.00000000000E+00 0.  1.
         21    1    1    2  503  502  0.42804614562E+03  0.28452235892E+03 -0.11267325935E+03  0.52618603068E+03  0.00000000000E+00 0. -1.
          1    1    1    2  501    0 -0.18470815952E+03  0.27267406585E+02  0.54990097636E+03  0.58073375953E+03  0.00000000000E+00 0. -1.
<scales pt_clust_5="13000.00000" pt_clust_6="13000.00000" pt_clust_7="13000.00000" pt_clust_8="13000.00000" pt_clust_9="377.63169" pt_clust_10="205.34706"></scales>
<clustering>
<clus scale="   81.694">  5  6 -1 -1</clus>
<clus scale="   91.661">  7  8 -1 -1</clus>
<clus scale="  115.633">  1  7  2 -1</clus>
<clus scale="  205.347">  2 10  1 -1</clus>
<clus scale="  377.632">  2  9  1 -1</clus>
<clus scale="  205.347">  2  5  1 -1</clus>
</clustering>
</event>
<event>
10    4  0.7204077E-005  0.5359135E+03  0.7546771E-02  0.1004808E+00
          2   -1    0    0  503    0 -0.00000000000E+00  0.00000000000E+00  0.19143881643E+04  0.19143881643E+04  0.00000000000E+00 0. -1.
         21   -1    0    0  501  502  0.00000000000E+00 -0.00000000000E+00 -0.27518270917E+03  0.27518270917E+03  0.00000000000E+00 0. -1.
         24    2    1    2    0    0 -0.27192292089E+03  0.11802960668E+03  0.44560243076E+03  0.54164648986E+03  0.83344650228E+02 0.  0.
         23    2    1    2    0    0 -0.21133933600E+03  0.65178369688E+02  0.24290606043E+03  0.34080070995E+03  0.90715130420E+02 0.  0.
        -11    1    3    3    0    0 -0.20962351283E+02 -0.95227634244E+01  0.59600809955E+02  0.63893346616E+02  0.00000000000E+00 0.  1.
         12    1    3    3    0    0 -0.25096056961E+03  0.12755237010E+03  0.38600162081E+03  0.47775314325E+03  0.00000000000E+00 0. -1.
        -11    1    4    4    0    0 -0.14159775473E+02  0.31837558346E+02  0.62083056003E+02  0.71192943510E+02  0.00000000000E+00 0.  1.
         11    1    4    4    0    0 -0.19717956053E+03  0.33340811342E+02  0.18082300443E+03  0.26960776644E+03  0.00000000000E+00 0. -1.
         21    1    1    2  503  502  0.38247453423E+02  0.23388601253E+02 -0.12068530924E+03  0.12874330363E+03  0.00000000000E+00 0. -1.
          1    1    1    2  501    0  0.44501480347E+03 -0.20659657762E+03  0.10713822731E+04  0.11783803700E+04  0.00000000000E+00 0. -1.
<scales pt_clust_5="13000.00000" pt_clust_6="13000.00000" pt_clust_7="13000.00000" pt_clust_8="13000.00000" pt_clust_9="44.83185" pt_clust_10="499.64190"></scales>
<clustering>
<clus scale="   44.832">  2  9  1 -1</clus>
<clus scale="   83.345">  5  6 -1 -1</clus>
<clus scale="   90.715">  7  8 -1 -1</clus>
<clus scale="  114.431">  5  7 -1 -1</clus>
<clus scale="  499.642">  2 10  1 -1</clus>
<clus scale="   44.832">  2  5  1 -1</clus>
</clustering>
</event>
<event>
10    4  0.7204077E-005  0.1409973E+03  0.7546771E-02  0.1234928E+00
         21   -1    0    0  501  502  0.00000000000E+00  0.00000000000E+00  0.27227147767E+03  0.27227147767E+03  0.00000000000E+00 0. -1.
          2   -1    0    0  503    0 -0.00000000000E+00 -0.00000000000E+00 -0.95365241614E+03  0.95365241614E+03  0.00000000000E+00 0. -1.
         24    2    1    2    0    0 -0.22411608551E+02  0.26771996630E+02 -0.46965634566E+03  0.47789540642E+03  0.81165980865E+02 0.  0.
         23    2    1    2    0    0 -0.12436173413E+03  0.12338138728E+02 -0.28299648953E+03  0.32258941676E+03  0.91426736449E+02 0.  0.
        -11    1    3    3    0    0  0.20096071288E+02 -0.14167051884E+02 -0.77045642069E+02  0.80873904334E+02  0.00000000000E+00 0.  1.
         12    1    3    3    0    0 -0.42507679839E+02  0.40939048515E+02 -0.39261070359E+03  0.39702150208E+03  0.00000000000E+00 0. -1.
        -13    1    4    4    0    0 -0.10353245175E+03  0.82207878001E+01 -0.28289468062E+03  0.30135684867E+03  0.00000000000E+00 0.  1.
         13    1    4    4    0    0 -0.20829282375E+02  0.41173509276E+01 -0.10180891673E+00  0.21232568096E+02  0.00000000000E+00 0. -1.
         21    1    1    2  503  502  0.58110188823E+02  0.10619062212E+02  0.22971469074E+03  0.23718852769E+03  0.00000000000E+00 0. -1.
          1    1    1    2  501    0  0.88663153854E+02 -0.49729197570E+02 -0.15844279401E+03  0.18825054294E+03  0.00000000000E+00 0. -1.
<scales pt_clust_5="13000.00000" pt_clust_6="13000.00000" pt_clust_7="13000.00000" pt_clust_8="13000.00000" pt_clust_9="59.07249" pt_clust_10="107.33783"></scales>
<clustering>
<clus scale="   59.072">  1  9  2 -1</clus>
<clus scale="   81.166">  5  6 -1 -1</clus>
<clus scale="   87.351">  2  5  1 -1</clus>
<clus scale="   91.427">  7  8 -1 -1</clus>
<clus scale="  107.338">  1 10  2 -1</clus>
<clus scale="   59.072">  1  5  2 -1</clus>
</clustering>
</event>
<event>
10    4  0.7204077E-005  0.2940207E+03  0.7546771E-02  0.1107154E+00
          2   -1    0    0  502    0 -0.00000000000E+00  0.00000000000E+00  0.18619805334E+04  0.18619805334E+04  0.00000000000E+00 0. -1.
         21   -1    0    0  503  502  0.00000000000E+00 -0.00000000000E+00 -0.17083959997E+03  0.17083959997E+03  0.00000000000E+00 0.  1.
         23    2    1    2    0    0  0.13908993777E+03  0.65279322852E+02  0.42724642057E+01  0.17854561687E+03  0.90845377269E+02 0.  0.
         24    2    1    2    0    0  0.10581461915E+03  0.23288044770E+03  0.63771955017E+03  0.69160248794E+03  0.78725727116E+02 0.  0.
        -11    1    4    4    0    0  0.86399382754E+02  0.22894856035E+03  0.55516641989E+03  0.60670590108E+03  0.00000000000E+00 0.  1.
         12    1    4    4    0    0  0.19415236399E+02  0.39318873537E+01  0.82553130281E+02  0.84896586868E+02  0.00000000000E+00 0. -1.
        -11    1    3    3    0    0  0.12127140715E+03  0.53750543270E+02  0.38631695658E+02  0.13816035250E+03  0.00000000000E+00 0.  1.
         11    1    3    3    0    0  0.17818530628E+02  0.11528779582E+02 -0.34359231452E+02  0.40385264372E+02  0.00000000000E+00 0. -1.
         21    1    1    2  503  501  0.23053341954E+02 -0.66537727427E+02  0.18422685943E+02  0.72788193436E+02  0.00000000000E+00 0.  1.
          1    1    1    2  501    0 -0.26795789888E+03 -0.23162204313E+03  0.10307262331E+04  0.10898838351E+04  0.00000000000E+00 0. -1.
<scales pt_clust_5="13000.00000" pt_clust_6="13000.00000" pt_clust_7="13000.00000" pt_clust_8="13000.00000" pt_clust_9="70.41822" pt_clust_10="283.28518"></scales>
<clustering>
<clus scale="   70.418">  2  9  1 -1</clus>
<clus scale="   78.726">  5  6 -1 -1</clus>
<clus scale="   90.845">  7  8 -1 -1</clus>
<clus scale="  179.737">  1  7  2 -1</clus>
<clus scale="  283.285">  2 10  1 -1</clus>
<clus scale="   70.418">  2  5  1 -1</clus>
</clustering>
</event>
<event>
10    4  0.7204077E-005  0.1210925E+03  0.7546771E-02  0.1245461E+00
         21   -1    0    0  501  502  0.00000000000E+00  0.00000000000E+00  0.15990050016E+03  0.15990050016E+03  0.00000000000E+00 0.  1.
          2   -1    0    0  503    0 -0.00000000000E+00 -0.00000000000E+00 -0.68911508352E+03  0.68911508352E+03  0.00000000000E+00 0. -1.
         24    2    1    2    0    0  0.64094985275E+02 -0.52776106686E+02 -0.42893069291E+03  0.44375377385E+03  0.77732798161E+02 0.  0.
         23    2    1    2    0    0 -0.10634709721E+03 -0.46780832958E+02 -0.12863395864E+03  0.19583916082E+03  0.91148945014E+02 0.  0.
        -13    1    3    3    0    0  0.28195304190E+02 -0.59660661747E+02 -0.17178515691E+03  0.18402312321E+03  0.00000000000E+00 0.  1.
         14    1    3    3    0    0  0.35899681085E+02  0.68845550611E+01 -0.25714553600E+03  0.25973065065E+03  0.00000000000E+00 0. -1.
        -13    1    4    4    0    0 -0.75945534756E+02 -0.67771090220E+02 -0.60707157206E+02  0.11851583799E+03  0.00000000000E+00 0.  1.
         13    1    4    4    0    0 -0.30401562454E+02  0.20990257263E+02 -0.67926801435E+02  0.77323322826E+02  0.00000000000E+00 0. -1.
         21    1    1    2  503  502 -0.47513222169E+02  0.46967828771E+02  0.70541133416E+02  0.97157267994E+02  0.00000000000E+00 0.  1.
          1    1    1    2  501    0  0.89765334104E+02  0.52589110872E+02 -0.42191065229E+02  0.11226538101E+03  0.00000000000E+00 0. -1.
<scales pt_clust_5="13000.00000" pt_clust_6="13000.00000" pt_clust_7="13000.00000" pt_clust_8="13000.00000" pt_clust_9="66.80930" pt_clust_10="100.58245"></scales>
<clustering>
<clus scale="   66.809">  1  9  2 -1</clus>
<clus scale="   77.733">  5  6 -1 -1</clus>
<clus scale="   91.149">  7  8 -1 -1</clus>
<clus scale="  100.582">  1 10  2 -1</clus>
<clus scale="  111.345">  2  5  1 -1</clus>
<clus scale="   66.809">  1  5  2 -1</clus>
</clustering>
</event>
<event>
10    4  0.7204077E-005  0.1669472E+03  0.7546771E-02  0.1189204E+00
         21   -1    0    0  503  502  0.00000000000E+00  0.00000000000E+00  0.13938847438E+03  0.13938847438E+03  0.00000000000E+00 0.  1.
          2   -1    0    0  502    0 -0.00000000000E+00 -0.00000000000E+00 -0.99054891355E+03  0.99054891355E+03  0.00000000000E+00 0. -1.
         24    2    1    2    0    0  0.11983551376E+03 -0.18428261057E+02 -0.18580741598E+02  0.14724760670E+03  0.81464486477E+02 0.  0.
         23    2    1    2    0    0  0.58462827245E+02 -0.12111765695E+03 -0.62666527025E+02  0.17122691646E+03  0.85464462301E+02 0.  0.
        -13    1    3    3    0    0  0.85867678770E+02 -0.19317641657E+02  0.25459881334E+02  0.91622241263E+02  0.00000000000E+00 0.  1.
         14    1    3    3    0    0  0.33967834989E+02  0.88938059977E+00 -0.44040622932E+02  0.55625365437E+02  0.00000000000E+00 0. -1.
        -11    1    4    4    0    0  0.26097832879E+02 -0.34965228750E+02 -0.66019952813E+02  0.79134684380E+02  0.00000000000E+00 0. -1.
         11    1    4    4    0    0  0.32364994367E+02 -0.86152428197E+02  0.33534257877E+01  0.92092232078E+02  0.00000000000E+00 0.  1.
         21    1    1    2  503  501 -0.18833524205E+02 -0.75894075476E+01 -0.13107411652E+02  0.24168263924E+02  0.00000000000E+00 0. -1.
          1    1    1    2  501    0 -0.15946481680E+03  0.14713532555E+03 -0.75680575890E+03  0.78729460085E+03  0.00000000000E+00 0. -1.
<scales pt_clust_5="13000.00000" pt_clust_6="13000.00000" pt_clust_7="13000.00000" pt_clust_8="13000.00000" pt_clust_9="20.30519" pt_clust_10="143.41274"></scales>
<clustering>
<clus scale="   20.305">  1  9  2 -1</clus>
<clus scale="   81.464">  5  6 -1 -1</clus>
<clus scale="   85.464">  7  8 -1 -1</clus>
<clus scale="  139.273">  2  5  1 -1</clus>
<clus scale="  143.413">  1 10  2 -1</clus>
<clus scale="   20.305">  1  5  2 -1</clus>
</clustering>
</event>
<event>
10    4  0.7204077E-005  0.3238919E+03  0.7546771E-02  0.1121688E+00
          2   -1    0    0  502    0 -0.00000000000E+00  0.00000000000E+00  0.15862747540E+04  0.15862747540E+04  0.00000000000E+00 0. -1.
         21   -1    0    0  503  502  0.00000000000E+00 -0.00000000000E+00 -0.99044958467E+02  0.99044958467E+02  0.00000000000E+00 0. -1.
         24    2    1    2    0    0 -0.46750866085E+02  0.85147384540E+01  0.11781618135E+03  0.15017956696E+03  0.80094353689E+02 0.  0.
         23    2    1    2    0    0  0.33423696443E+03  0.65695483117E+02  0.95853427000E+03  0.10213642303E+04  0.91469662710E+02 0.  0.
        -13    1    3    3    0    0 -0.36218589290E+02 -0.17252459662E+02  0.11547428763E+03  0.12224461001E+03  0.00000000000E+00 0.  1.
         14    1    3    3    0    0 -0.10532276795E+02  0.25767198116E+02  0.23418937242E+01  0.27934956944E+02  0.00000000000E+00 0. -1.
        -13    1    4    4    0    0  0.17139656560E+03  0.28175884761E+02  0.35643193293E+03  0.39650269356E+03  0.00000000000E+00 0.  1.
         13    1    4    4    0    0  0.16284039883E+03  0.37519598356E+02  0.60210233706E+03  0.62486153670E+03  0.00000000000E+00 0. -1.
         21    1    1    2  503  501 -0.27908626687E+02  0.18990509155E-01  0.84252927399E+01  0.29152656173E+02  0.00000000000E+00 0. -1.
          1    1    1    2  501    0 -0.25957747166E+03 -0.74229212080E+02  0.40245405145E+03  0.48462325908E+03  0.00000000000E+00 0. -1.
<scales pt_clust_5="13000.00000" pt_clust_6="13000.00000" pt_clust_7="13000.00000" pt_clust_8="13000.00000" pt_clust_9="26.87768" pt_clust_10="321.75720"></scales>
<clustering>
<clus scale="   26.878">  9 10 -1 -1</clus>
<clus scale="   80.094">  5  6 -1 -1</clus>
<clus scale="   91.470">  7  8 -1 -1</clus>
<clus scale="   93.130">  1  5  2 -1</clus>
<clus scale="  321.757">  2  9  1 -1</clus>
<clus scale="  321.757">  2  5  1 -1</clus>
</clustering>
</event>
<event>
10    4  0.7204077E-005  0.2036793E+03  0.7546771E-02  0.1169341E+00
         21   -1    0    0  501  502  0.00000000000E+00  0.00000000000E+00  0.88681417664E+02  0.88681417664E+02  0.00000000000E+00 0. -1.
          2   -1    0    0  503    0 -0.00000000000E+00 -0.00000000000E+00 -0.10961678833E+04  0.10961678833E+04  0.00000000000E+00 0. -1.
         24    2    1    2    0    0 -0.24864360359E+02  0.83725211800E+02 -0.21334561422E+03  0.24402506482E+03  0.80023331878E+02 0.  0.
         23    2    1    2    0    0 -0.65883752751E+02 -0.22075349983E+03 -0.63199098750E+03  0.67889623826E+03  0.91731769218E+02 0.  0.
        -11    1    3    3    0    0  0.27983361282E+02  0.31177087981E+02 -0.56137571885E+02  0.70046458160E+02  0.00000000000E+00 0.  1.
         12    1    3    3    0    0 -0.52847721641E+02  0.52548123818E+02 -0.15720804233E+03  0.17397860665E+03  0.00000000000E+00 0. -1.
        -13    1    4    4    0    0 -0.41790383264E+02 -0.21673387805E+03 -0.53215208936E+03  0.57611271140E+03  0.00000000000E+00 0. -1.
         13    1    4    4    0    0 -0.24093369487E+02 -0.40196217803E+01 -0.99838898141E+02  0.10278352686E+03  0.00000000000E+00 0.  1.
         21    1    1    2  503  502 -0.23475725564E+02  0.30015274653E+01 -0.17527137804E+01  0.23731642663E+02  0.00000000000E+00 0.  1.
          1    1    1    2  501    0  0.11422383867E+03  0.13402676057E+03 -0.16039715014E+03  0.23819635523E+03  0.00000000000E+00 0. -1.
<scales pt_clust_5="13000.00000" pt_clust_6="13000.00000" pt_clust_7="13000.00000" pt_clust_8="13000.00000" pt_clust_9="23.66683" pt_clust_10="181.85309"></scales>
<clustering>
<clus scale="   23.667">  1  9  2 -1</clus>
<clus scale="   80.023">  5  6 -1 -1</clus>
<clus scale="   91.732">  7  8 -1 -1</clus>
<clus scale="  119.931">  2  5  1 -1</clus>
<clus scale="  181.853">  1 10  2 -1</clus>
<clus scale="   23.667">  1  5  2 -1</clus>
</clustering>
</event>
<event>
10    4  0.7204077E-005  0.2780575E+03  0.7546771E-02  0.1096755E+00
         21   -1    0    0  501  502  0.00000000000E+00  0.00000000000E+00  0.27645191300E+03  0.27645191300E+03  0.00000000000E+00 0.  1.
          2   -1    0    0  503    0 -0.00000000000E+00 -0.00000000000E+00 -0.27450929965E+03  0.27450929965E+03  0.00000000000E+00 0. -1.
         24    2    1    2    0    0  0.13120855768E+03  0.88552998533E+02  0.72324391928E+01  0.17649167718E+03  0.77715408885E+02 0.  0.
         23    2    1    2    0    0  0.29625287457E+02  0.34590189013E+02 -0.27062005811E+01  0.10398699673E+03  0.93444278230E+02 0.  0.
        -11    1    3    3    0    0  0.13867418915E+03  0.93403001824E+02  0.48114522457E+01  0.16726566163E+03  0.00000000000E+00 0.  1.
         12    1    3    3    0    0 -0.74656314690E+01 -0.48500032916E+01  0.24209869471E+01  0.92260155515E+01  0.00000000000E+00 0. -1.
        -11    1    4    4    0    0  0.42026151839E+02 -0.21513698839E+01 -0.34045254318E+02  0.54128598471E+02  0.00000000000E+00 0. -1.
         11    1    4    4    0    0 -0.12400864382E+02  0.36741558897E+02  0.31339053737E+02  0.49858398257E+02  0.00000000000E+00 0.  1.
         21    1    1    2  503  502 -0.21290129472E+02  0.17565841867E+02  0.57182913138E+02  0.63495779138E+02  0.00000000000E+00 0.  1.
          1    1    1    2  501    0 -0.13954371567E+03 -0.14070902941E+03 -0.59766538403E+02  0.20698675961E+03  0.00000000000E+00 0. -1.
<scales pt_clust_5="13000.00000" pt_clust_6="13000.00000" pt_clust_7="13000.00000" pt_clust_8="13000.00000" pt_clust_9="27.60124" pt_clust_10="199.24856"></scales>
<clustering>
<clus scale="   27.601">  1  9  2 -1</clus>
<clus scale="   77.715">  5  6 -1 -1</clus>
<clus scale="   93.444">  7  8 -1 -1</clus>
<clus scale="   94.709">  5  7 -1 -1</clus>
<clus scale="  199.249">  1 10  2 -1</clus>
<clus scale="   27.601">  1  5  2 -1</clus>
</clustering>
</event>
<event>
10    4  0.7204077E-005  0.1207678E+03  0.7546771E-02  0.1249049E+00
          2   -1    0    0  502    0 -0.00000000000E+00  0.00000000000E+00  0.86668521430E+03  0.86668521430E+03  0.00000000000E+00 0. -1.
         21   -1    0    0  503  502  0.00000000000E+00 -0.00000000000E+00 -0.14981607313E+03  0.14981607313E+03  0.00000000000E+00 0. -1.
         23    2    1    2    0    0 -0.42483871791E+02  0.63913529631E+02  0.46848584925E+03  0.47799596121E+03  0.55779291451E+02 0.  0.
         24    2    1    2    0    0  0.59362926905E+02 -0.10904847358E+03  0.36513821153E+03  0.39437075553E+03  0.82382356256E+02 0.  0.
        -11    1    4    4    0    0  0.28013063392E+02 -0.11388870036E+03  0.28751480649E+03  0.31051591222E+03  0.00000000000E+00 0.  1.
         12    1    4    4    0    0  0.31349863513E+02  0.48402267839E+01  0.77623405039E+02  0.83854843316E+02  0.00000000000E+00 0. -1.
        -13    1    3    3    0    0 -0.22882418306E+01  0.53062555663E+02  0.25022259317E+03  0.25579721850E+03  0.00000000000E+00 0. -1.
         13    1    3    3    0    0 -0.40195629961E+02  0.10850973968E+02  0.21826325609E+03  0.22219874271E+03  0.00000000000E+00 0.  1.
         21    1    1    2  503  501 -0.27988820763E+02  0.30922217639E+01 -0.86999104288E+02  0.91442769370E+02  0.00000000000E+00 0. -1.
          1    1    1    2  501    0  0.11109765650E+02  0.42042722182E+02 -0.29755815319E+02  0.52691801322E+02  0.00000000000E+00 0. -1.
<scales pt_clust_5="13000.00000" pt_clust_6="13000.00000" pt_clust_7="13000.00000" pt_clust_8="13000.00000" pt_clust_9="28.15912" pt_clust_10="44.85324"></scales>
<clustering>
<clus scale="   28.159">  2  9  1 -1</clus>
<clus scale="   44.853">  2 10  1 -1</clus>
<clus scale="   55.779">  7  8 -1 -1</clus>
<clus scale="   82.382">  5  6 -1 -1</clus>
<clus scale="  104.448">  1  7  2 -1</clus>
<clus scale="   28.159">  2  5  1 -1</clus>
</clustering>
</event>
<event>
10    4  0.7204077E-005  0.9550282E+02  0.7546771E-02  0.1300302E+00
          2   -1    0    0  503    0 -0.00000000000E+00  0.00000000000E+00  0.32360084700E+03  0.32360084700E+03  0.00000000000E+00 0. -1.
         21   -1    0    0  501  502  0.00000000000E+00 -0.00000000000E+00 -0.14678007913E+03  0.14678007913E+03  0.00000000000E+00 0. -1.
         24    2    1    2    0    0  0.24357054445E+02 -0.84984884565E+01  0.17137901653E+03  0.18735540721E+03  0.71174369641E+02 0.  0.
         23    2    1    2    0    0 -0.69794233993E+02  0.11673783914E+02  0.59525965342E+02  0.12847641520E+03  0.89192692425E+02 0.  0.
        -11    1    3    3    0    0  0.26285804893E+02 -0.21662073286E+02  0.30112324347E+02  0.45463623211E+02  0.00000000000E+00 0.  1.
         12    1    3    3    0    0 -0.19287504471E+01  0.13163584829E+02  0.14126669219E+03  0.14189178399E+03  0.00000000000E+00 0. -1.
        -11    1    4    4    0    0 -0.26514777448E+02 -0.26824120598E+02  0.59624258378E+02  0.70552243452E+02  0.00000000000E+00 0.  1.
         11    1    4    4    0    0 -0.43279456545E+02  0.38497904512E+02 -0.98293036102E-01  0.57924171743E+02  0.00000000000E+00 0. -1.
         21    1    1    2  503  502 -0.23401226605E+02  0.27082210809E+02 -0.69146396327E+02  0.77860694024E+02  0.00000000000E+00 0. -1.
          1    1    1    2  501    0  0.68838406152E+02 -0.30257506267E+02  0.15062182327E+02  0.76688409708E+02  0.00000000000E+00 0. -1.
<scales pt_clust_5="13000.00000" pt_clust_6="13000.00000" pt_clust_7="13000.00000" pt_clust_8="13000.00000" pt_clust_9="35.79195" pt_clust_10="61.94211"></scales>
<clustering>
<clus scale="   35.792">  2  9  1 -1</clus>
<clus scale="   61.942">  2 10  1 -1</clus>
<clus scale="   71.174">  5  6 -1 -1</clus>
<clus scale="   78.938">  1  5  2 -1</clus>
<clus scale="   89.193">  7  8 -1 -1</clus>
<clus scale="   35.792">  2  5  1 -1</clus>
</clustering>
</event>
<event>
10    4  0.7446796E-005  0.3357433E+03  0.7546771E-02  0.1102764E+00
          2   -1    0    0  502    0 -0.00000000000E+00  0.00000000000E+00  0.11733836860E+04  0.11733836860E+04  0.00000000000E+00 0. -1.
         21   -1    0    0  503  502  0.00000000000E+00 -0.00000000000E+00 -0.19246469446E+03  0.19246469446E+03  0.00000000000E+00 0. -1.
         24    2    1    2    0    0 -0.87970543554E+02 -0.54573311266E+02  0.64566178046E+02  0.14541163110E+03  0.79111871905E+02 0.  0.
         23    2    1    2    0    0 -0.47186025089E+02  0.33286444699E+03  0.21596369405E+03  0.41107965022E+03  0.96544811568E+02 0.  0.
        -13    1    3    3    0    0 -0.64643898448E+02 -0.14890618696E+02  0.72973780906E+02  0.98619150429E+02  0.00000000000E+00 0.  1.
         14    1    3    3    0    0 -0.23326645107E+02 -0.39682692570E+02 -0.84076028606E+01  0.46792480672E+02  0.00000000000E+00 0. -1.
        -11    1    4    4    0    0 -0.36502630273E+02  0.61440926422E+02  0.14582726274E+02  0.72938915279E+02  0.00000000000E+00 0.  1.
         11    1    4    4    0    0 -0.10683394816E+02  0.27142352057E+03  0.20138096777E+03  0.33814073494E+03  0.00000000000E+00 0. -1.
         21    1    1    2  503  501 -0.22691104276E+02 -0.11590015553E+02 -0.15110349358E+02  0.29623256598E+02  0.00000000000E+00 0.  1.
          1    1    1    2  501    0  0.15784767292E+03 -0.26670112017E+03  0.71549946879E+03  0.77973384253E+03  0.00000000000E+00 0. -1.
<scales pt_clust_5="13000.00000" pt_clust_6="13000.00000" pt_clust_7="13000.00000" pt_clust_8="13000.00000" pt_clust_9="25.47969" pt_clust_10="321.56299"></scales>
<clustering>
<clus scale="   25.480">  2  9  1 -1</clus>
<clus scale="   79.112">  5  6 -1 -1</clus>
<clus scale="   96.545">  7  8 -1 -1</clus>
<clus scale="  135.136">  1  5  2 -1</clus>
<clus scale="  321.563">  2 10  1 -1</clus>
<clus scale="   25.480">  2  5  1 -1</clus>
</clustering>
</event>
<event>
10    4  0.7204077E-005  0.4976583E+03  0.7546771E-02  0.1077924E+00
          4   -1    0    0  502    0 -0.00000000000E+00  0.00000000000E+00  0.10244566966E+04  0.10244566966E+04  0.00000000000E+00 0. -1.
         21   -1    0    0  503  502  0.00000000000E+00 -0.00000000000E+00 -0.39321176962E+03  0.39321176962E+03  0.00000000000E+00 0. -1.
         24    2    1    2    0    0  0.37245046603E+01 -0.10517006847E+01  0.47257149850E+02  0.92906646185E+02  0.79896362146E+02 0.  0.
         23    2    1    2    0    0  0.37358193746E+02  0.11866019221E+03  0.21698013471E+02  0.15941681303E+03  0.97298718545E+02 0.  0.
        -13    1    3    3    0    0  0.15155533066E+02 -0.31329825175E+02 -0.98176539449E+00  0.34816834884E+02  0.00000000000E+00 0.  1.
         14    1    3    3    0    0 -0.11431028406E+02  0.30278124491E+02  0.48238915245E+02  0.58089811302E+02  0.00000000000E+00 0. -1.
        -13    1    4    4    0    0 -0.13496463155E+02  0.41355090205E+02  0.46441210286E+02  0.63633199011E+02  0.00000000000E+00 0.  1.
         13    1    4    4    0    0  0.50854656900E+02  0.77305102008E+02 -0.24743196815E+02  0.95783614014E+02  0.00000000000E+00 0. -1.
         21    1    1    2  503  501 -0.56262033496E+02 -0.54392356937E+03  0.13862375220E+03  0.56412304544E+03  0.00000000000E+00 0. -1.
          3    1    1    2  501    0  0.15179335090E+02  0.42631507784E+03  0.42366601151E+03  0.60122196160E+03  0.00000000000E+00 0. -1.
<scales pt_clust_5="13000.00000" pt_clust_6="13000.00000" pt_clust_7="13000.00000" pt_clust_8="13000.00000" pt_clust_9="497.65830" pt_clust_10="13000.00000"></scales>
<clustering>
<clus scale="   79.896">  5  6 -1 -1</clus>
<clus scale="   79.990">  1  5  2 -1</clus>
<clus scale="   97.299">  7  8 -1 -1</clus>
<clus scale="  157.942">  1  7  2 -1</clus>
<clus scale="  497.658">  2  9  1 -1</clus>
<clus scale="  497.658">  2  5  1 -1</clus>
</clustering>
</event>
<event>
10    4  0.7204077E-005  0.9467234E+02  0.7546771E-02  0.1298260E+00
          2   -1    0    0  503    0 -0.00000000000E+00  0.00000000000E+00  0.11715952127E+04  0.11715952127E+04  0.00000000000E+00 0. -1.
         21   -1    0    0  501  502  0.00000000000E+00 -0.00000000000E+00 -0.44996704249E+02  0.44996704249E+02  0.00000000000E+00 0. -1.
         24    2    1    2    0    0 -0.26891228612E+02  0.81309903024E+01  0.62298898642E+03  0.62877797023E+03  0.80356751191E+02 0.  0.
         23    2    1    2    0    0 -0.14642922663E+02 -0.49864903155E+02  0.18807327211E+03  0.21543428543E+03  0.91320599559E+02 0.  0.
        -13    1    3    3    0    0  0.48865332710E+01  0.28643916234E+02  0.92832585196E+02  0.97274051107E+02  0.00000000000E+00 0.  1.
         14    1    3    3    0    0 -0.31777761883E+02 -0.20512925931E+02  0.53015640123E+03  0.53150391912E+03  0.00000000000E+00 0. -1.
        -13    1    4    4    0    0 -0.39199048413E+02  0.81570937201E+01  0.53318330351E+02  0.66677941824E+02  0.00000000000E+00 0. -1.
         13    1    4    4    0    0  0.24556125750E+02 -0.58021996876E+02  0.13475494176E+03  0.14875634360E+03  0.00000000000E+00 0.  1.
         21    1    1    2  503  502  0.17782485007E+01  0.92071271309E+02  0.62389330072E+02  0.11123268259E+03  0.00000000000E+00 0. -1.
          1    1    1    2  501    0  0.39755902774E+02 -0.50337358456E+02  0.25314691987E+03  0.26114697874E+03  0.00000000000E+00 0. -1.
<scales pt_clust_5="13000.00000" pt_clust_6="13000.00000" pt_clust_7="13000.00000" pt_clust_8="13000.00000" pt_clust_9="67.10323" pt_clust_10="64.14348"></scales>
<clustering>
<clus scale="   64.143">  2 10  1 -1</clus>
<clus scale="   67.103">  2  9  1 -1</clus>
<clus scale="   80.357">  5  6 -1 -1</clus>
<clus scale="   84.146">  1  5  2 -1</clus>
<clus scale="   91.321">  7  8 -1 -1</clus>
<clus scale="   64.143">  2  5  1 -1</clus>
</clustering>
</event>
<event>
10    4  0.7204077E-005  0.2126076E+03  0.7546771E-02  0.1140342E+00
         21   -1    0    0  501  502  0.00000000000E+00  0.00000000000E+00  0.14610223484E+03  0.14610223484E+03  0.00000000000E+00 0. -1.
          2   -1    0    0  503    0 -0.00000000000E+00 -0.00000000000E+00 -0.27716836150E+04  0.27716836150E+04  0.00000000000E+00 0. -1.
         24    2    1    2    0    0  0.11875819166E+03 -0.15683357921E+03 -0.15196610994E+04  0.15344608796E+04  0.80622913620E+02 0.  0.
         23    2    1    2    0    0 -0.21129668403E+03 -0.19113773841E+02  0.14238281032E+02  0.23125002273E+03  0.90896750956E+02 0.  0.
        -13    1    3    3    0    0  0.60668053912E+02 -0.25800826262E+02 -0.36127775483E+03  0.36724366780E+03  0.00000000000E+00 0.  1.
         14    1    3    3    0    0  0.58090137745E+02 -0.13103275295E+03 -0.11583833446E+04  0.11672172118E+04  0.00000000000E+00 0. -1.
        -13    1    4    4    0    0 -0.25669072372E+02  0.29242757463E+02  0.46538219860E+01  0.39187985398E+02  0.00000000000E+00 0.  1.
         13    1    4    4    0    0 -0.18562761166E+03 -0.48356531304E+02  0.95844590460E+01  0.19206203733E+03  0.00000000000E+00 0. -1.
         21    1    1    2  503  502 -0.16863315432E+02  0.52529323252E+02 -0.70411488834E+02  0.89450986403E+02  0.00000000000E+00 0.  1.
          1    1    1    2  501    0  0.10940180781E+03  0.12341802980E+03 -0.10497470730E+04  0.10626239612E+04  0.00000000000E+00 0. -1.
<scales pt_clust_5="13000.00000" pt_clust_6="13000.00000" pt_clust_7="13000.00000" pt_clust_8="13000.00000" pt_clust_9="55.16975" pt_clust_10="166.26738"></scales>
<clustering>
<clus scale="   55.170">  1  9  2 -1</clus>
<clus scale="   80.623">  5  6 -1 -1</clus>
<clus scale="   90.897">  7  8 -1 -1</clus>
<clus scale="  166.267">  1 10  2 -1</clus>
<clus scale="  208.422">  2  5  1 -1</clus>
<clus scale="   55.170">  1  5  2 -1</clus>
</clustering>
</event>
<event>
10    4  0.7204077E-005  0.3331305E+03  0.7546771E-02  0.1109094E+00
         21   -1    0    0  501  502  0.00000000000E+00  0.00000000000E+00  0.36052034658E+03  0.36052034658E+03  0.00000000000E+00 0.  1.
          2   -1    0    0  503    0 -0.00000000000E+00 -0.00000000000E+00 -0.63037636662E+03  0.63037636662E+03  0.00000000000E+00 0. -1.
         23    2    1    2    0    0  0.47106257236E+02  0.55680627005E+02 -0.10352487702E+01  0.11599803983E+03  0.90195020987E+02 0.  0.
         24    2    1    2    0    0 -0.36441399822E+03  0.12570217395E+01 -0.34244771406E+03  0.50642511637E+03  0.79980118975E+02 0.  0.
        -11    1    4    4    0    0 -0.84525679556E+02 -0.28729049132E+02 -0.10775051510E+03  0.13992899011E+03  0.00000000000E+00 0.  1.
         12    1    4    4    0    0 -0.27988831866E+03  0.29986070872E+02 -0.23469719896E+03  0.36649612626E+03  0.00000000000E+00 0. -1.
        -11    1    3    3    0    0  0.46052541546E+02  0.78138385989E+02  0.94500644575E+01  0.91190721381E+02  0.00000000000E+00 0.  1.
         11    1    3    3    0    0  0.10537156902E+01 -0.22457758984E+02 -0.10485313228E+02  0.24807318453E+02  0.00000000000E+00 0. -1.
         21    1    1    2  503  502  0.12892618888E+02  0.22810934637E+02 -0.27453092385E+02  0.37950370780E+02  0.00000000000E+00 0. -1.
          1    1    1    2  501    0  0.30441512209E+03 -0.79748583381E+02  0.10108003518E+03  0.33052318621E+03  0.00000000000E+00 0. -1.
<scales pt_clust_5="13000.00000" pt_clust_6="13000.00000" pt_clust_7="13000.00000" pt_clust_8="13000.00000" pt_clust_9="26.20226" pt_clust_10="323.38698"></scales>
<clustering>
<clus scale="   26.202">  2  9  1 -1</clus>
<clus scale="   79.980">  5  6 -1 -1</clus>
<clus scale="   90.195">  7  8 -1 -1</clus>
<clus scale="  117.595">  2  7  1 -1</clus>
<clus scale="  323.387">  1 10  2 -1</clus>
<clus scale="  323.387">  1  5  2 -1</clus>
</clustering>
</event>
<event>
10    4  0.7204077E-005  0.1747963E+03  0.7546771E-02  0.1199503E+00
         21   -1    0    0  503  502  0.00000000000E+00  0.00000000000E+00  0.20448369527E+03  0.20448369527E+03  0.00000000000E+00 0.  1.
          2   -1    0    0  502    0 -0.00000000000E+00 -0.00000000000E+00 -0.11087668516E+04  0.11087668516E+04  0.00000000000E+00 0. -1.
         24    2    1    2    0    0 -0.51345317084E+02 -0.24618583534E+02 -0.33202164099E+03  0.34640914086E+03  0.80737268581E+02 0.  0.
         23    2    1    2    0    0 -0.12082257069E+03 -0.75017704412E+02 -0.28217185363E+03  0.32880496409E+03  0.90917544314E+02 0.  0.
        -11    1    3    3    0    0 -0.35558834451E+02 -0.43404571773E+02 -0.30411754449E+03  0.30925049463E+03  0.00000000000E+00 0.  1.
         12    1    3    3    0    0 -0.15786482632E+02  0.18785988239E+02 -0.27904096503E+02  0.37158646230E+02  0.00000000000E+00 0. -1.
        -13    1    4    4    0    0 -0.85583912921E+01 -0.47258304801E+02 -0.49454015658E+02  0.68936877641E+02  0.00000000000E+00 0.  1.
         13    1    4    4    0    0 -0.11226417940E+03 -0.27759399611E+02 -0.23271783798E+03  0.25986808645E+03  0.00000000000E+00 0. -1.
         21    1    1    2  503  501  0.19557966896E+02  0.12688655869E+02  0.15645937133E+03  0.15818675966E+03  0.00000000000E+00 0.  1.
          1    1    1    2  501    0  0.15260992088E+03  0.86947632077E+02 -0.44654903307E+03  0.47984968231E+03  0.00000000000E+00 0. -1.
<scales pt_clust_5="13000.00000" pt_clust_6="13000.00000" pt_clust_7="13000.00000" pt_clust_8="13000.00000" pt_clust_9="23.31343" pt_clust_10="149.29085"></scales>
<clustering>
<clus scale="   23.313">  1  9  2 -1</clus>
<clus scale="   80.737">  5  6 -1 -1</clus>
<clus scale="   90.918">  7  8 -1 -1</clus>
<clus scale="   96.809">  2  5  1 -1</clus>
<clus scale="  149.291">  1 10  2 -1</clus>
<clus scale="   23.313">  1  5  2 -1</clus>
</clustering>
</event>
<event>
10    4  0.7346088E-005  0.1950107E+03  0.7546771E-02  0.1187233E+00
          2   -1    0    0  502    0 -0.00000000000E+00  0.00000000000E+00  0.50528673329E+03  0.50528673329E+03  0.00000000000E+00 0. -1.
         21   -1    0    0  503  502  0.00000000000E+00 -0.00000000000E+00 -0.20084564643E+03  0.20084564643E+03  0.00000000000E+00 0. -1.
         24    2    1    2    0    0  0.18633727763E+01  0.50703048109E+02  0.10474650932E+03  0.13966447574E+03  0.77201446375E+02 0.  0.
         23    2    1    2    0    0 -0.16217459770E+03  0.27616556235E+02 -0.76040209637E+02  0.20318039661E+03  0.91852521832E+02 0.  0.
        -11    1    3    3    0    0  0.21721453453E+02 -0.26338154338E+01  0.17011915842E+01  0.21946584623E+02  0.00000000000E+00 0.  1.
         12    1    3    3    0    0 -0.19858080676E+02  0.53336863543E+02  0.10304531774E+03  0.11771789112E+03  0.00000000000E+00 0. -1.
        -11    1    4    4    0    0 -0.25893451412E+02  0.42319056168E+02 -0.83656059327E+01  0.50312589911E+02  0.00000000000E+00 0.  1.
         11    1    4    4    0    0 -0.13628114629E+03 -0.14702499933E+02 -0.67674603704E+02  0.15286780670E+03  0.00000000000E+00 0. -1.
         21    1    1    2  503  501 -0.11432603696E+02 -0.20967342165E+02 -0.92797514840E+01  0.25621234403E+02  0.00000000000E+00 0. -1.
          1    1    1    2  501    0  0.17174382862E+03 -0.57352262179E+02  0.28501453866E+03  0.33766627296E+03  0.00000000000E+00 0. -1.
<scales pt_clust_5="13000.00000" pt_clust_6="13000.00000" pt_clust_7="13000.00000" pt_clust_8="13000.00000" pt_clust_9="23.88166" pt_clust_10="172.02412"></scales>
<clustering>
<clus scale="   23.882">  2  9  1 -1</clus>
<clus scale="   77.201">  5  6 -1 -1</clus>
<clus scale="   91.285">  1  5  2 -1</clus>
<clus scale="   91.853">  7  8 -1 -1</clus>
<clus scale="  172.024">  2 10  1 -1</clus>
<clus scale="   23.882">  2  5  1 -1</clus>
</clustering>
</event>
<event>
10    4  0.7204077E-005  0.1192092E+03  0.7546771E-02  0.1247910E+00
         -3   -1    0    0    0  501 -0.00000000000E+00  0.00000000000E+00  0.68723157240E+02  0.68723157240E+02  0.00000000000E+00 0.  1.
         21   -1    0    0  501  502  0.00000000000E+00 -0.00000000000E+00 -0.60133312243E+03  0.60133312243E+03  0.00000000000E+00 0.  1.
         24    2    1    2    0    0  0.62416381474E+01  0.76054538936E+02 -0.88645489840E+02  0.14214489830E+03  0.80770652490E+02 0.  0.
         23    2    1    2    0    0  0.25639224162E+02 -0.77151171304E+02 -0.42113467316E+03  0.43858295481E+03  0.91601977412E+02 0.  0.
        -11    1    3    3    0    0 -0.31969423677E+02  0.39862120044E+02 -0.69234013056E+02  0.86048714276E+02  0.00000000000E+00 0.  1.
         12    1    3    3    0    0  0.38211061824E+02  0.36192418891E+02 -0.19411476784E+02  0.56096184022E+02  0.00000000000E+00 0. -1.
        -11    1    4    4    0    0 -0.25760940441E+02 -0.60781367227E+02 -0.27491505195E+03  0.28273005932E+03  0.00000000000E+00 0.  1.
         11    1    4    4    0    0  0.51400164603E+02 -0.16369804077E+02 -0.14621962121E+03  0.15585289549E+03  0.00000000000E+00 0. -1.
         21    1    1    2  503  502  0.15431412097E+02 -0.12823767582E+02 -0.33331963167E+02  0.38904977354E+02  0.00000000000E+00 0. -1.
         -4    1    1    2    0  503 -0.47312274406E+02  0.13920399951E+02  0.10502160979E+02  0.50423449203E+02  0.00000000000E+00 0.  1.
<scales pt_clust_5="13000.00000" pt_clust_6="13000.00000" pt_clust_7="13000.00000" pt_clust_8="13000.00000" pt_clust_9="20.06433" pt_clust_10="48.66783"></scales>
<clustering>
<clus scale="   20.064">  2  9  1 -1</clus>
<clus scale="   48.668">  2 10  1 -1</clus>
<clus scale="   80.771">  5  6 -1 -1</clus>
<clus scale="   91.602">  7  8 -1 -1</clus>
<clus scale="  111.103">  1  5  2 -1</clus>
<clus scale="   20.064">  2  5  1 -1</clus>
</clustering>
</event>
<event>
10    4  0.7204077E-005  0.2713260E+03  0.7546771E-02  0.1127646E+00
          2   -1    0    0  502    0 -0.00000000000E+00  0.00000000000E+00  0.12635122077E+04  0.12635122077E+04  0.00000000000E+00 0. -1.
         21   -1    0    0  503  502  0.00000000000E+00 -0.00000000000E+00 -0.26082194012E+03  0.26082194012E+03  0.00000000000E+00 0.  1.
         23    2    1    2    0    0 -0.24873774310E+01 -0.10179878299E+03  0.27165355843E+03  0.30402034381E+03  0.90903984372E+02 0.  0.
         24    2    1    2    0    0 -0.14190285691E+03  0.28408631785E+03  0.40527129920E+03  0.52108083326E+03  0.80243080999E+02 0.  0.
        -13    1    4    4    0    0 -0.69472119903E+02  0.17454000778E+03  0.29430409129E+03  0.34914966405E+03  0.00000000000E+00 0.  1.
         14    1    4    4    0    0 -0.72430737003E+02  0.10954631007E+03  0.11096720791E+03  0.17193116921E+03  0.00000000000E+00 0. -1.
        -13    1    3    3    0    0 -0.29017522914E+02 -0.32928059832E+02  0.18529033229E+03  0.19041738628E+03  0.00000000000E+00 0.  1.
         13    1    3    3    0    0  0.26530145483E+02 -0.68870723160E+02  0.86363226149E+02  0.11360295753E+03  0.00000000000E+00 0. -1.
         21    1    1    2  503  501  0.62859537597E+02  0.56762922427E+00 -0.16103522710E+03  0.17286985867E+03  0.00000000000E+00 0.  1.
          1    1    1    2  501    0  0.81530696741E+02 -0.18285516408E+03  0.48680063709E+03  0.52636311213E+03  0.00000000000E+00 0. -1.
<scales pt_clust_5="13000.00000" pt_clust_6="13000.00000" pt_clust_7="13000.00000" pt_clust_8="13000.00000" pt_clust_9="62.86210" pt_clust_10="259.18894"></scales>
<clustering>
<clus scale="   62.862">  2  9  1 -1</clus>
<clus scale="   80.243">  5  6 -1 -1</clus>
<clus scale="   90.904">  7  8 -1 -1</clus>
<clus scale="  136.661">  1  7  2 -1</clus>
<clus scale="  259.189">  2 10  1 -1</clus>
<clus scale="   62.862">  2  5  1 -1</clus>
</clustering>
</event>
<event>
10    4  0.7204077E-005  0.1234780E+03  0.7546771E-02  0.1239096E+00
          2   -1    0    0  503    0 -0.00000000000E+00  0.00000000000E+00  0.31993169913E+03  0.31993169913E+03  0.00000000000E+00 0. -1.
         21   -1    0    0  501  502  0.00000000000E+00 -0.00000000000E+00 -0.16415930524E+03  0.16415930524E+03  0.00000000000E+00 0.  1.
         23    2    1    2    0    0 -0.81851820490E+02  0.21484053069E+02  0.19654321130E+03  0.23262425637E+03  0.91233358417E+02 0.  0.
         24    2    1    2    0    0  0.70694476919E+02 -0.25476487103E+02 -0.75169382848E+02  0.13653686115E+03  0.85703663125E+02 0.  0.
        -13    1    4    4    0    0  0.33437025342E+02 -0.56385263351E+02 -0.42021918647E+02  0.77866387059E+02  0.00000000000E+00 0.  1.
         14    1    4    4    0    0  0.37257451577E+02  0.30908776248E+02 -0.33147464200E+02  0.58670474091E+02  0.00000000000E+00 0. -1.
        -11    1    3    3    0    0 -0.50129285439E+01 -0.22742032881E+02  0.86101630964E+01  0.24828701551E+02  0.00000000000E+00 0. -1.
         11    1    3    3    0    0 -0.76838891946E+02  0.44226085950E+02  0.18793304821E+03  0.20779555482E+03  0.00000000000E+00 0.  1.
         21    1    1    2  503  502 -0.31569084390E+01  0.52358742987E+02 -0.23756713001E+01  0.52507598042E+02  0.00000000000E+00 0. -1.
          1    1    1    2  501    0  0.14314252010E+02 -0.48366308953E+02  0.36774236737E+02  0.62422288807E+02  0.00000000000E+00 0. -1.
<scales pt_clust_5="13000.00000" pt_clust_6="13000.00000" pt_clust_7="13000.00000" pt_clust_8="13000.00000" pt_clust_9="43.59209" pt_clust_10="50.44007"></scales>
<clustering>
<clus scale="   50.440">  2 10  1 -1</clus>
<clus scale="   43.592">  2  9  1 -1</clus>
<clus scale="   85.704">  5  6 -1 -1</clus>
<clus scale="   91.233">  7  8 -1 -1</clus>
<clus scale="  119.450">  2  5  1 -1</clus>
<clus scale="   50.440">  2  5  1 -1</clus>
</clustering>
</event>
<event>
10    4  0.7204077E-005  0.9387490E+02  0.7546771E-02  0.1303696E+00
         21   -1    0    0  503  502  0.00000000000E+00  0.00000000000E+00  0.84420553885E+02  0.84420553885E+02  0.00000000000E+00 0. -1.
         -3   -1    0    0    0  501 -0.00000000000E+00 -0.00000000000E+00 -0.48646908319E+03  0.48646908319E+03  0.00000000000E+00 0.  1.
         24    2    1    2    0    0  0.27969087623E+02  0.14313026180E+01 -0.22657912256E+03  0.24020069564E+03  0.74658937272E+02 0.  0.
         23    2    1    2    0    0  0.14847582891E+02 -0.29050433776E+02 -0.73123483497E+01  0.96986061094E+02  0.91040909419E+02 0.  0.
        -13    1    3    3    0    0  0.16423084148E+02  0.37640380889E+02 -0.13308453710E+03  0.13927673884E+03  0.00000000000E+00 0.  1.
         14    1    3    3    0    0  0.11546003475E+02 -0.36209078271E+02 -0.93494585463E+02  0.10092395680E+03  0.00000000000E+00 0. -1.
        -11    1    4    4    0    0 -0.18786336640E+02 -0.27923313945E+02  0.31165100400E+02  0.45868304840E+02  0.00000000000E+00 0. -1.
         11    1    4    4    0    0  0.33633919531E+02 -0.11271198310E+01 -0.38477448749E+02  0.51117756254E+02  0.00000000000E+00 0.  1.
         21    1    1    2  503  501  0.35716211412E+02  0.21970157525E+02  0.62037708911E+01  0.42388941395E+02  0.00000000000E+00 0. -1.
         -4    1    1    2    0  502 -0.78532881927E+02  0.56489736325E+01 -0.17436082929E+03  0.19131393895E+03  0.00000000000E+00 0.  1.
<scales pt_clust_5="13000.00000" pt_clust_6="13000.00000" pt_clust_7="13000.00000" pt_clust_8="13000.00000" pt_clust_9="41.93251" pt_clust_10="74.01610"></scales>
<clustering>
<clus scale="   41.933">  1  9  2 -1</clus>
<clus scale="   74.016">  1 10  2 -1</clus>
<clus scale="   74.659">  5  6 -1 -1</clus>
<clus scale="   78.090">  2  5  1 -1</clus>
<clus scale="   91.041">  7  8 -1 -1</clus>
<clus scale="   41.933">  1  5  2 -1</clus>
</clustering>
</event>
<event>
10    4  0.7204077E-005  0.1554501E+03  0.7546771E-02  0.1200963E+00
         21   -1    0    0  501  502  0.00000000000E+00  0.00000000000E+00  0.12162934951E+03  0.12162934951E+03  0.00000000000E+00 0.  1.
          2   -1    0    0  503    0 -0.00000000000E+00 -0.00000000000E+00 -0.17428569865E+04  0.17428569865E+04  0.00000000000E+00 0. -1.
         24    2    1    2    0    0  0.91888944702E+02 -0.32519918142E+02 -0.55172115419E+03  0.56604989363E+03  0.80716335759E+02 0.  0.
         23    2    1    2    0    0 -0.14982600579E+03 -0.53046548548E+02 -0.38110593616E+03  0.42825519666E+03  0.11357381110E+03 0.  0.
        -11    1    3    3    0    0  0.35327090062E+02  0.17749527105E+02 -0.91893632817E+02  0.10003743678E+03  0.00000000000E+00 0.  1.
         12    1    3    3    0    0  0.56561854641E+02 -0.50269445247E+02 -0.45982752137E+03  0.46601245685E+03  0.00000000000E+00 0. -1.
        -11    1    4    4    0    0 -0.49043466327E+02 -0.48785537368E+01 -0.25446116830E+02  0.55466807531E+02  0.00000000000E+00 0.  1.
         11    1    4    4    0    0 -0.10078253946E+03 -0.48167994811E+02 -0.35565981933E+03  0.37278838913E+03  0.00000000000E+00 0. -1.
         21    1    1    2  503  502  0.19403800661E+02 -0.25874466523E+02  0.83386361429E+02  0.89438698393E+02  0.00000000000E+00 0.  1.
          1    1    1    2  501    0  0.38533260424E+02  0.11144093321E+03 -0.77178690808E+03  0.78074254735E+03  0.00000000000E+00 0. -1.
<scales pt_clust_5="13000.00000" pt_clust_6="13000.00000" pt_clust_7="13000.00000" pt_clust_8="13000.00000" pt_clust_9="32.34185" pt_clust_10="115.66196"></scales>
<clustering>
<clus scale="   32.342">  1  9  2 -1</clus>
<clus scale="   80.716">  5  6 -1 -1</clus>
<clus scale="  113.574">  7  8 -1 -1</clus>
<clus scale="  115.662">  1 10  2 -1</clus>
<clus scale="  133.345">  2  5  1 -1</clus>
<clus scale="   32.342">  1  5  2 -1</clus>
</clustering>
</event>
<event>
10    4  0.7204077E-005  0.8950710E+02  0.7546771E-02  0.1311850E+00
          2   -1    0    0  503    0 -0.00000000000E+00  0.00000000000E+00  0.26848375960E+03  0.26848375960E+03  0.00000000000E+00 0. -1.
         21   -1    0    0  501  502  0.00000000000E+00 -0.00000000000E+00 -0.16696413735E+03  0.16696413735E+03  0.00000000000E+00 0. -1.
         24    2    1    2    0    0 -0.19286659673E+01  0.41454634275E-01  0.15997453802E+03  0.17781944209E+03  0.77615589292E+02 0.  0.
         23    2    1    2    0    0  0.37318646968E+01  0.10407058570E+02 -0.27015211051E+02  0.94112804154E+02  0.89471585408E+02 0.  0.
        -11    1    3    3    0    0  0.96825524678E+01 -0.26670213609E+02  0.19672891561E+02  0.34526435938E+02  0.00000000000E+00 0.  1.
         12    1    3    3    0    0 -0.11611218435E+02  0.26711668244E+02  0.14030164646E+03  0.14329300616E+03  0.00000000000E+00 0. -1.
        -11    1    4    4    0    0  0.24896900596E+02 -0.28081066520E+02  0.74751073614E+01  0.38265901091E+02  0.00000000000E+00 0.  1.
         11    1    4    4    0    0 -0.21165035899E+02  0.38488125090E+02 -0.34490318413E+02  0.55846903064E+02  0.00000000000E+00 0. -1.
         21    1    1    2  503  502  0.41187823062E+02  0.27181235151E+02 -0.76304944182E+02  0.90871892351E+02  0.00000000000E+00 0. -1.
          1    1    1    2  501    0 -0.42991021791E+02 -0.37629748355E+02  0.44865239460E+02  0.72643758354E+02  0.00000000000E+00 0. -1.
<scales pt_clust_5="13000.00000" pt_clust_6="13000.00000" pt_clust_7="13000.00000" pt_clust_8="13000.00000" pt_clust_9="49.34832" pt_clust_10="49.00083"></scales>
<clustering>
<clus scale="   49.348">  2  9  1 -1</clus>
<clus scale="   49.001">  2 10  1 -1</clus>
<clus scale="   77.616">  5  6 -1 -1</clus>
<clus scale="   77.657">  1  5  2 -1</clus>
<clus scale="   89.472">  7  8 -1 -1</clus>
<clus scale="   49.348">  2  5  1 -1</clus>
</clustering>
</event>
<event>
10    4  0.7204077E-005  0.1246249E+03  0.7546771E-02  0.1250859E+00
          4   -1    0    0  502    0 -0.00000000000E+00  0.00000000000E+00  0.13928716478E+03  0.13928716478E+03  0.00000000000E+00 0. -1.
         21   -1    0    0  503  502  0.00000000000E+00 -0.00000000000E+00 -0.47916133668E+03  0.47916133668E+03  0.00000000000E+00 0. -1.
         23    2    1    2    0    0  0.14904049953E+01  0.22626216344E+02 -0.22838821922E+03  0.24692316764E+03  0.91080761231E+02 0.  0.
         24    2    1    2    0    0  0.51257397934E+02 -0.89337679960E+02  0.68886964635E+02  0.14734950328E+03  0.79736568256E+02 0.  0.
        -11    1    4    4    0    0  0.20868438595E+02  0.10148314923E+02  0.11866274536E+01  0.23235492461E+02  0.00000000000E+00 0.  1.
         12    1    4    4    0    0  0.30388959339E+02 -0.99485994883E+02  0.67700337181E+02  0.12411401082E+03  0.00000000000E+00 0. -1.
        -11    1    3    3    0    0 -0.39111929366E+02  0.17961782868E+02 -0.61241538167E+02  0.74852485995E+02  0.00000000000E+00 0.  1.
         11    1    3    3    0    0  0.40602334362E+02  0.46644334755E+01 -0.16714668105E+03  0.17207068164E+03  0.00000000000E+00 0. -1.
         21    1    1    2  503  501 -0.78469034831E+01 -0.21296849689E+02 -0.80706424519E+02  0.83837084036E+02  0.00000000000E+00 0. -1.
          3    1    1    2  501    0 -0.44900899446E+02  0.88008313305E+02 -0.99666492800E+02  0.14033874650E+03  0.00000000000E+00 0. -1.
<scales pt_clust_5="13000.00000" pt_clust_6="13000.00000" pt_clust_7="13000.00000" pt_clust_8="13000.00000" pt_clust_9="22.69647" pt_clust_10="95.77814"></scales>
<clustering>
<clus scale="   22.696">  2  9  1 -1</clus>
<clus scale="   79.737">  5  6 -1 -1</clus>
<clus scale="   91.081">  7  8 -1 -1</clus>
<clus scale="   91.671">  1  7  2 -1</clus>
<clus scale="   95.778">  2 10  1 -1</clus>
<clus scale="   22.696">  2  5  1 -1</clus>
</clustering>
</event>
<event>
10    4  0.7204077E-005  0.1121051E+03  0.7546771E-02  0.1262392E+00
         21   -1    0    0  501  502  0.00000000000E+00  0.00000000000E+00  0.21504976274E+03  0.21504976274E+03  0.00000000000E+00 0.  1.
          2   -1    0    0  503    0 -0.00000000000E+00 -0.00000000000E+00 -0.15616438719E+03  0.15616438719E+03  0.00000000000E+00 0. -1.
         23    2    1    2    0    0 -0.55611567926E+02  0.49103811914E+02 -0.19539283119E+01  0.12033857132E+03  0.94729737038E+02 0.  0.
         24    2    1    2    0    0 -0.31270133719E+02 -0.67777910420E+02  0.38442817440E+02  0.11623274538E+03  0.80377450079E+02 0.  0.
        -13    1    4    4    0    0 -0.32410698040E+02 -0.19687469468E+02  0.53724334856E+02  0.65759820234E+02  0.00000000000E+00 0.  1.
         14    1    4    4    0    0  0.11405643211E+01 -0.48090440952E+02 -0.15281517415E+02  0.50472925142E+02  0.00000000000E+00 0. -1.
        -13    1    3    3    0    0 -0.79629867089E+02  0.51854502615E+02 -0.81731455824E+01  0.95376126377E+02  0.00000000000E+00 0. -1.
         13    1    3    3    0    0  0.24018299162E+02 -0.27506907010E+01  0.62192172705E+01  0.24962444941E+02  0.00000000000E+00 0.  1.
         21    1    1    2  503  502  0.67463438081E+02  0.55942991231E+02  0.28542264409E+02  0.92171549858E+02  0.00000000000E+00 0. -1.
          1    1    1    2  501    0  0.19418263564E+02 -0.37268892725E+02 -0.61457779813E+01  0.42471283378E+02  0.00000000000E+00 0. -1.
<scales pt_clust_5="13000.00000" pt_clust_6="13000.00000" pt_clust_7="13000.00000" pt_clust_8="13000.00000" pt_clust_9="85.85915" pt_clust_10="42.02429"></scales>
<clustering>
<clus scale="   42.024">  1 10  2 -1</clus>
<clus scale="   80.377">  5  6 -1 -1</clus>
<clus scale="   85.859">  1  9  2 -1</clus>
<clus scale="   94.730">  7  8 -1 -1</clus>
<clus scale="  100.271">  1  5  2 -1</clus>
<clus scale="   42.024">  1  5  2 -1</clus>
</clustering>
</event>
<event>
10    4  0.7204077E-005  0.1005490E+03  0.7546771E-02  0.1283680E+00
         21   -1    0    0  503  502  0.00000000000E+00  0.00000000000E+00  0.16804928271E+03  0.16804928271E+03  0.00000000000E+00 0.  1.
          2   -1    0    0  502    0 -0.00000000000E+00 -0.00000000000E+00 -0.36648030320E+03  0.36648030320E+03  0.00000000000E+00 0. -1.
         23    2    1    2    0    0  0.46428921739E+02 -0.17412762821E+02 -0.12148202358E+03  0.15946095388E+03  0.90614925245E+02 0.  0.
         24    2    1    2    0    0  0.58965302858E+01  0.62595587884E+02 -0.51920039742E+02  0.11515369346E+03  0.81312396954E+02 0.  0.
        -11    1    4    4    0    0 -0.20608838240E+02 -0.26548206877E+01  0.84116777423E+01  0.22417149884E+02  0.00000000000E+00 0.  1.
         12    1    4    4    0    0  0.26505368526E+02  0.65250408572E+02 -0.60331717485E+02  0.92736543575E+02  0.00000000000E+00 0. -1.
        -13    1    3    3    0    0 -0.17443753853E+02 -0.26894938142E+02 -0.69599940008E+02  0.76627500907E+02  0.00000000000E+00 0. -1.
         13    1    3    3    0    0  0.63872675592E+02  0.94821753200E+01 -0.51882083570E+02  0.82833452974E+02  0.00000000000E+00 0.  1.
         21    1    1    2  503  501 -0.20972654337E+02  0.11619817673E+02  0.10868133856E+03  0.11129467976E+03  0.00000000000E+00 0.  1.
          1    1    1    2  501    0 -0.31352797688E+02 -0.56802642736E+02 -0.13371029573E+03  0.14862025881E+03  0.00000000000E+00 0. -1.
<scales pt_clust_5="13000.00000" pt_clust_6="13000.00000" pt_clust_7="13000.00000" pt_clust_8="13000.00000" pt_clust_9="23.97650" pt_clust_10="64.94907"></scales>
<clustering>
<clus scale="   23.976">  1  9  2 -1</clus>
<clus scale="   64.949">  1 10  2 -1</clus>
<clus scale="   81.312">  5  6 -1 -1</clus>
<clus scale="   90.615">  7  8 -1 -1</clus>
<clus scale="   92.254">  1  5  2 -1</clus>
<clus scale="   23.976">  1  5  2 -1</clus>
</clustering>
</event>
<event>
10    4  0.7204077E-005  0.1123140E+03  0.7546771E-02  0.1262742E+00
          2   -1    0    0  502    0 -0.00000000000E+00  0.00000000000E+00  0.27597064428E+03  0.27597064428E+03  0.00000000000E+00 0. -1.
         21   -1    0    0  503  502  0.00000000000E+00 -0.00000000000E+00 -0.16012241247E+03  0.16012241247E+03  0.00000000000E+00 0. -1.
         24    2    1    2    0    0 -0.21678854101E+02  0.43575587354E+02  0.13294040175E+03  0.16398981777E+03  0.82768988073E+02 0.  0.
         23    2    1    2    0    0  0.30500944249E+02 -0.66861500752E+02  0.20606544511E+02  0.12443035302E+03  0.98272657400E+02 0.  0.
        -13    1    3    3    0    0 -0.42653306518E+02  0.42674039149E+01  0.99315053558E+02  0.10817113828E+03  0.00000000000E+00 0.  1.
         14    1    3    3    0    0  0.20974452417E+02  0.39308183439E+02  0.33625348196E+02  0.55818679497E+02  0.00000000000E+00 0. -1.
        -13    1    4    4    0    0  0.66451545078E+01 -0.87787002102E+02  0.28872201770E+01  0.88085480397E+02  0.00000000000E+00 0. -1.
         13    1    4    4    0    0  0.23855789741E+02  0.20925501350E+02  0.17719324334E+02  0.36344872620E+02  0.00000000000E+00 0.  1.
         21    1    1    2  503  501 -0.43682816151E+02 -0.38356086898E+02 -0.48914239680E+02  0.75973552453E+02  0.00000000000E+00 0. -1.
          1    1    1    2  501    0  0.34860726003E+02  0.61642000296E+02  0.11215525223E+02  0.71699333497E+02  0.00000000000E+00 0. -1.
<scales pt_clust_5="13000.00000" pt_clust_6="13000.00000" pt_clust_7="13000.00000" pt_clust_8="13000.00000" pt_clust_9="58.13242" pt_clust_10="54.14758"></scales>
<clustering>
<clus scale="   58.132">  2  9  1 -1</clus>
<clus scale="   54.148">  2 10  1 -1</clus>
<clus scale="   82.769">  5  6 -1 -1</clus>
<clus scale="   98.273">  7  8 -1 -1</clus>
<clus scale="   99.033">  1  5  2 -1</clus>
<clus scale="   58.132">  2  5  1 -1</clus>
</clustering>
</event>
<event>
10    4  0.7204077E-005  0.1261004E+03  0.7546771E-02  0.1254221E+00
         21   -1    0    0  501  502  0.00000000000E+00  0.00000000000E+00  0.63104706417E+02  0.63104706417E+02  0.00000000000E+00 0.  1.
          2   -1    0    0  503    0 -0.00000000000E+00 -0.00000000000E+00 -0.57399235590E+03  0.57399235590E+03  0.00000000000E+00 0. -1.
         24    2    1    2    0    0  0.59314358987E+01  0.55978182327E+01 -0.15668482978E+03  0.17720192300E+03  0.82364240605E+02 0.  0.
         23    2    1    2    0    0 -0.89987083324E+02 -0.20595498161E+02 -0.20438315173E+03  0.24201640655E+03  0.90981419075E+02 0.  0.
        -11    1    3    3    0    0  0.41104928764E+02 -0.12822211799E+02 -0.82371763920E+02  0.92946929887E+02  0.00000000000E+00 0.  1.
         12    1    3    3    0    0 -0.35173492866E+02  0.18420030032E+02 -0.74313065859E+02  0.84254993111E+02  0.00000000000E+00 0. -1.
        -11    1    4    4    0    0 -0.16541583844E+02  0.14758008198E+02 -0.20487613575E+00  0.22169004855E+02  0.00000000000E+00 0.  1.
         11    1    4    4    0    0 -0.73445499480E+02 -0.35353506359E+02 -0.20417827559E+03  0.21984740169E+03  0.00000000000E+00 0. -1.
         21    1    1    2  503  502  0.83506273789E+01 -0.22330354462E+02  0.18103429195E+02  0.29935127470E+02  0.00000000000E+00 0.  1.
          1    1    1    2  501    0  0.75705020046E+02  0.37328034391E+02 -0.16792309717E+03  0.18794360531E+03  0.00000000000E+00 0. -1.
<scales pt_clust_5="13000.00000" pt_clust_6="13000.00000" pt_clust_7="13000.00000" pt_clust_8="13000.00000" pt_clust_9="23.84067" pt_clust_10="87.31383"></scales>
<clustering>
<clus scale="   23.841">  1  9  2 -1</clus>
<clus scale="   82.364">  5  6 -1 -1</clus>
<clus scale="   82.764">  2  5  1 -1</clus>
<clus scale="   87.314">  1 10  2 -1</clus>
<clus scale="   90.981">  7  8 -1 -1</clus>
<clus scale="   23.841">  1  5  2 -1</clus>
</clustering>
</event>
<event>
10    4  0.7204077E-005  0.5534030E+03  0.7546771E-02  0.1000709E+00
         21   -1    0    0  503  502  0.00000000000E+00  0.00000000000E+00  0.42507509639E+03  0.42507509639E+03  0.00000000000E+00 0. -1.
          2   -1    0    0  502    0 -0.00000000000E+00 -0.00000000000E+00 -0.87258011163E+03  0.87258011163E+03  0.00000000000E+00 0. -1.
         24    2    1    2    0    0 -0.10209238954E+03  0.93589111579E+02 -0.16038813955E+03  0.22786336512E+03  0.83759059480E+02 0.  0.
         23    2    1    2    0    0 -0.32541765945E+03  0.17419397359E+03 -0.28173238799E+03  0.47282386496E+03  0.89157587035E+02 0.  0.
        -11    1    3    3    0    0 -0.85044425632E+02  0.29113448373E+02 -0.11986488749E+03  0.14982569359E+03  0.00000000000E+00 0.  1.
         12    1    3    3    0    0 -0.17047963906E+02  0.64475663207E+02 -0.40523252064E+02  0.78037671526E+02  0.00000000000E+00 0. -1.
        -13    1    4    4    0    0 -0.27847229605E+03  0.17794779194E+03 -0.22865434789E+03  0.40186446364E+03  0.00000000000E+00 0. -1.
         13    1    4    4    0    0 -0.46945363398E+02 -0.37538183533E+01 -0.53078040092E+02  0.70959401328E+02  0.00000000000E+00 0.  1.
         21    1    1    2  503  501 -0.23920816240E+02  0.18710175428E+02  0.50978711485E+02  0.59338900722E+02  0.00000000000E+00 0. -1.
          1    1    1    2  501    0  0.45143086522E+03 -0.28649326060E+03 -0.56363199194E+02  0.53762907721E+03  0.00000000000E+00 0. -1.
<scales pt_clust_5="13000.00000" pt_clust_6="13000.00000" pt_clust_7="13000.00000" pt_clust_8="13000.00000" pt_clust_9="30.36900" pt_clust_10="515.01020"></scales>
<clustering>
<clus scale="   30.369">  1  9  2 -1</clus>
<clus scale="   83.759">  5  6 -1 -1</clus>
<clus scale="   89.158">  7  8 -1 -1</clus>
<clus scale="  101.722">  5  7 -1 -1</clus>
<clus scale="  515.010">  1 10  2 -1</clus>
<clus scale="   30.369">  1  5  2 -1</clus>
</clustering>
</event>
<event>
10    4  0.7204077E-005  0.2077925E+03  0.7546771E-02  0.1163209E+00
         21   -1    0    0  501  502  0.00000000000E+00  0.00000000000E+00  0.60341287452E+03  0.60341287452E+03  0.00000000000E+00 0. -1.
          2   -1    0    0  503    0 -0.00000000000E+00 -0.00000000000E+00 -0.20064308040E+03  0.20064308040E+03  0.00000000000E+00 0. -1.
         24    2    1    2    0    0  0.71850970740E+02  0.58696766165E+02  0.94517896000E+01  0.12477324372E+03  0.82892422261E+02 0.  0.
         23    2    1    2    0    0 -0.74830362936E+02  0.13830088595E+03  0.81977476244E+02  0.19959401912E+03  0.91601023936E+02 0.  0.
        -11    1    3    3    0    0  0.73478452969E+02  0.44978696710E+02 -0.23283202960E+02  0.89242779812E+02  0.00000000000E+00 0.  1.
         12    1    3    3    0    0 -0.16274822286E+01  0.13718069455E+02  0.32734992560E+02  0.35530463913E+02  0.00000000000E+00 0. -1.
        -11    1    4    4    0    0 -0.26025358543E+02  0.11022897634E+03  0.18526541502E+02  0.11476488685E+03  0.00000000000E+00 0. -1.
         11    1    4    4    0    0 -0.48805004393E+02  0.28071909606E+02  0.63450934743E+02  0.84829132274E+02  0.00000000000E+00 0.  1.
         21    1    1    2  503  502  0.22585737008E+02  0.38498565350E+02  0.22297174973E+03  0.22739537425E+03  0.00000000000E+00 0. -1.
          1    1    1    2  501    0 -0.19606344812E+02 -0.23549621746E+03  0.88368778547E+02  0.25229331782E+03  0.00000000000E+00 0. -1.
<scales pt_clust_5="13000.00000" pt_clust_6="13000.00000" pt_clust_7="13000.00000" pt_clust_8="13000.00000" pt_clust_9="44.63468" pt_clust_10="186.51271"></scales>
<clustering>
<clus scale="   44.635">  1  9  2 -1</clus>
<clus scale="   82.892">  5  6 -1 -1</clus>
<clus scale="   91.601">  7  8 -1 -1</clus>
<clus scale="  130.075">  2  5  1 -1</clus>
<clus scale="  186.513">  1 10  2 -1</clus>
<clus scale="   44.635">  1  5  2 -1</clus>
</clustering>
</event>
<event>
10    4  0.7204077E-005  0.1706321E+03  0.7546771E-02  0.1178644E+00
         21   -1    0    0  501  502  0.00000000000E+00  0.00000000000E+00  0.10138457092E+04  0.10138457092E+04  0.00000000000E+00 0.  1.
         -1   -1    0    0    0  501 -0.00000000000E+00 -0.00000000000E+00 -0.67255536507E+02  0.67255536507E+02  0.00000000000E+00 0.  1.
         23    2    1    2    0    0 -0.44017527490E+02 -0.12934015464E+03  0.24814662674E+03  0.29748049197E+03  0.90837637640E+02 0.  0.
         24    2    1    2    0    0 -0.52519019874E+02  0.16865412359E+03  0.42529813465E+03  0.46742280180E+03  0.80019444229E+02 0.  0.
        -11    1    4    4    0    0 -0.59383435137E+02  0.10142359208E+03  0.33223481894E+03  0.35241043162E+03  0.00000000000E+00 0.  1.
         12    1    4    4    0    0  0.68644152630E+01  0.67230531506E+02  0.93063315716E+02  0.11501237018E+03  0.00000000000E+00 0. -1.
        -11    1    3    3    0    0 -0.49556600231E+02 -0.69889645348E+02  0.73412086299E+02  0.11282620958E+03  0.00000000000E+00 0. -1.
         11    1    3    3    0    0  0.55390727414E+01 -0.59450509290E+02  0.17473454044E+03  0.18465428239E+03  0.00000000000E+00 0.  1.
         21    1    1    2  503  502 -0.26152439666E+02  0.71757109198E+01  0.61045710017E+02  0.66798350572E+02  0.00000000000E+00 0.  1.
         -2    1    1    2    0  503  0.12268898703E+03 -0.46489679871E+02  0.21209970127E+03  0.24939960135E+03  0.00000000000E+00 0.  1.
<scales pt_clust_5="13000.00000" pt_clust_6="13000.00000" pt_clust_7="13000.00000" pt_clust_8="13000.00000" pt_clust_9="27.11901" pt_clust_10="124.64503"></scales>
<clustering>
<clus scale="   27.119">  1  9  2 -1</clus>
<clus scale="   80.019">  5  6 -1 -1</clus>
<clus scale="   90.838">  7  8 -1 -1</clus>
<clus scale="  124.645">  1 10  2 -1</clus>
<clus scale="  165.127">  1  5  2 -1</clus>
<clus scale="   27.119">  1  5  2 -1</clus>
</clustering>
</event>
<event>
10    4  0.7204077E-005  0.1776933E+03  0.7546771E-02  0.1179361E+00
         21   -1    0    0  501  502  0.00000000000E+00  0.00000000000E+00  0.50959055209E+03  0.50959055209E+03  0.00000000000E+00 0. -1.
          2   -1    0    0  503    0 -0.00000000000E+00 -0.00000000000E+00 -0.96730473811E+03  0.96730473811E+03  0.00000000000E+00 0. -1.
         23    2    1    2    0    0  0.17335061366E+02  0.11052571508E+03 -0.20512293468E+03  0.25054757593E+03  0.90455687647E+02 0.  0.
         24    2    1    2    0    0  0.12339136564E+03 -0.15795933135E+03 -0.41424199212E+03  0.46465039470E+03  0.64241589178E+02 0.  0.
        -13    1    4    4    0    0  0.35741934016E+02 -0.88116548626E+02 -0.14969761116E+03  0.17734538837E+03  0.00000000000E+00 0.  1.
         14    1    4    4    0    0  0.87649431624E+02 -0.69842782727E+02 -0.26454438096E+03  0.28730500633E+03  0.00000000000E+00 0. -1.
        -13    1    3    3    0    0  0.54293041134E+02  0.56400472067E+02 -0.11474677221E+03  0.13890849253E+03  0.00000000000E+00 0.  1.
         13    1    3    3    0    0 -0.36957979769E+02  0.54125243009E+02 -0.90376162469E+02  0.11163908340E+03  0.00000000000E+00 0. -1.
         21    1    1    2  503  502  0.11891201841E+03  0.12643398760E+03  0.37713748184E+03  0.41516057321E+03  0.00000000000E+00 0. -1.
          1    1    1    2  501    0 -0.25963844542E+03 -0.79000371325E+02 -0.21548674106E+03  0.34653674637E+03  0.00000000000E+00 0. -1.
<scales pt_clust_5="13000.00000" pt_clust_6="13000.00000" pt_clust_7="13000.00000" pt_clust_8="13000.00000" pt_clust_9="177.69327" pt_clust_10="13000.00000"></scales>
<clustering>
<clus scale="   64.242">  5  6 -1 -1</clus>
<clus scale="   90.456">  7  8 -1 -1</clus>
<clus scale="  143.870">  2  7  1 -1</clus>
<clus scale="  174.688">  2  5  1 -1</clus>
<clus scale="  177.693">  1  9  2 -1</clus>
<clus scale="  177.693">  1  5  2 -1</clus>
</clustering>
</event>
<event>
10    4  0.7204077E-005  0.1473008E+03  0.7546771E-02  0.1229546E+00
         21   -1    0    0  501  502  0.00000000000E+00  0.00000000000E+00  0.11485506141E+03  0.11485506141E+03  0.00000000000E+00 0. -1.
          2   -1    0    0  503    0 -0.00000000000E+00 -0.00000000000E+00 -0.52341900075E+03  0.52341900075E+03  0.00000000000E+00 0. -1.
         24    2    1    2    0    0  0.10601311310E+02  0.31832505999E+02 -0.18798336760E+03  0.20704612492E+03  0.80029089151E+02 0.  0.
         23    2    1    2    0    0  0.12513506480E+02  0.10249835340E+03 -0.22470881991E+03  0.26332591598E+03  0.90465374519E+02 0.  0.
        -13    1    3    3    0    0  0.36348574844E+02  0.10854955838E+02 -0.15737134657E+03  0.16187893526E+03  0.00000000000E+00 0.  1.
         14    1    3    3    0    0 -0.25747263534E+02  0.20977550162E+02 -0.30612021028E+02  0.45167189659E+02  0.00000000000E+00 0. -1.
        -13    1    4    4    0    0  0.31051331192E+02  0.80436327589E-01 -0.73169499407E+02  0.79485641988E+02  0.00000000000E+00 0.  1.
         13    1    4    4    0    0 -0.18537824712E+02  0.10241791708E+03 -0.15153932050E+03  0.18384027399E+03  0.00000000000E+00 0. -1.
         21    1    1    2  503  502  0.72964062855E+01 -0.27556271127E+02  0.41860121105E+02  0.50644401092E+02  0.00000000000E+00 0. -1.
          1    1    1    2  501    0 -0.30411224075E+02 -0.10677458828E+03 -0.37731872942E+02  0.11725762017E+03  0.00000000000E+00 0. -1.
<scales pt_clust_5="13000.00000" pt_clust_6="13000.00000" pt_clust_7="13000.00000" pt_clust_8="13000.00000" pt_clust_9="28.50589" pt_clust_10="116.24782"></scales>
<clustering>
<clus scale="   28.506">  1  9  2 -1</clus>
<clus scale="   80.029">  5  6 -1 -1</clus>
<clus scale="   85.579">  2  5  1 -1</clus>
<clus scale="   90.465">  7  8 -1 -1</clus>
<clus scale="  116.248">  1 10  2 -1</clus>
<clus scale="   28.506">  1  5  2 -1</clus>
</clustering>
</event>
<event>
10    4  0.7204077E-005  0.1180619E+03  0.7546771E-02  0.1251933E+00
          2   -1    0    0  502    0 -0.00000000000E+00  0.00000000000E+00  0.84043478014E+03  0.84043478014E+03  0.00000000000E+00 0. -1.
         21   -1    0    0  503  502  0.00000000000E+00 -0.00000000000E+00 -0.80614720607E+02  0.80614720607E+02  0.00000000000E+00 0. -1.
         24    2    1    2    0    0 -0.46911658342E+02 -0.54148402264E+02  0.57343699665E+03  0.58266463955E+03  0.74399864906E+02 0.  0.
         23    2    1    2    0    0  0.70166608368E+02  0.95432382618E+02  0.27927492264E+02  0.15213713722E+03  0.91296610648E+02 0.  0.
        -13    1    3    3    0    0 -0.57396188057E+02 -0.10480759810E+02  0.31675593152E+03  0.32208459895E+03  0.00000000000E+00 0.  1.
         14    1    3    3    0    0  0.10484529715E+02 -0.43667642454E+02  0.25668106513E+03  0.26058004060E+03  0.00000000000E+00 0. -1.
        -11    1    4    4    0    0  0.71423193572E+02  0.20896613845E+02  0.20691577723E+02  0.77240419722E+02  0.00000000000E+00 0.  1.
         11    1    4    4    0    0 -0.12565852034E+01  0.74535768773E+02  0.72359145409E+01  0.74896717500E+02  0.00000000000E+00 0. -1.
         21    1    1    2  503  501  0.88979431376E+01 -0.19161799310E+02 -0.18988914081E+01  0.21212112895E+02  0.00000000000E+00 0. -1.
          1    1    1    2  501    0 -0.32152893164E+02 -0.22122181044E+02  0.16035446202E+03  0.16503561108E+03  0.00000000000E+00 0. -1.
<scales pt_clust_5="13000.00000" pt_clust_6="13000.00000" pt_clust_7="13000.00000" pt_clust_8="13000.00000" pt_clust_9="21.12695" pt_clust_10="39.15424"></scales>
<clustering>
<clus scale="   21.127">  2  9  1 -1</clus>
<clus scale="   39.154">  2 10  1 -1</clus>
<clus scale="   74.400">  5  6 -1 -1</clus>
<clus scale="   91.297">  7  8 -1 -1</clus>
<clus scale="  105.541">  1  5  2 -1</clus>
<clus scale="   21.127">  2  5  1 -1</clus>
</clustering>
</event>
<event>
10    4  0.7204077E-005  0.2416053E+03  0.7546771E-02  0.1119124E+00
          2   -1    0    0  503    0 -0.00000000000E+00  0.00000000000E+00  0.84935434675E+03  0.84935434675E+03  0.00000000000E+00 0. -1.
         21   -1    0    0  501  502  0.00000000000E+00 -0.00000000000E+00 -0.23185034048E+03  0.23185034048E+03  0.00000000000E+00 0.  1.
         24    2    1    2    0    0  0.50730702362E+02 -0.22919328476E+03  0.68501726400E+03  0.72894921221E+03  0.83756409104E+02 0.  0.
         23    2    1    2    0    0 -0.93461899235E+02  0.15972411835E+03  0.14421806487E+02  0.20643671174E+03  0.90339398166E+02 0.  0.
        -11    1    3    3    0    0 -0.10817555257E+02 -0.49662029343E+02  0.23703414523E+03  0.24242219920E+03  0.00000000000E+00 0.  1.
         12    1    3    3    0    0  0.61548257619E+02 -0.17953125542E+03  0.44798311877E+03  0.48652701301E+03  0.00000000000E+00 0. -1.
        -13    1    4    4    0    0 -0.15443474902E+01  0.22188124471E+02  0.33188290167E+02  0.39951977184E+02  0.00000000000E+00 0. -1.
         13    1    4    4    0    0 -0.91917551744E+02  0.13753599388E+03 -0.18766483680E+02  0.16648473456E+03  0.00000000000E+00 0.  1.
         21    1    1    2  503  502 -0.15794286102E+02  0.20415959347E+02 -0.61606354877E+02  0.66795312940E+02  0.00000000000E+00 0.  1.
          1    1    1    2  501    0  0.58525482975E+02  0.49053207065E+02 -0.20328709338E+02  0.79023450343E+02  0.00000000000E+00 0. -1.
<scales pt_clust_5="13000.00000" pt_clust_6="13000.00000" pt_clust_7="13000.00000" pt_clust_8="13000.00000" pt_clust_9="25.81222" pt_clust_10="77.04309"></scales>
<clustering>
<clus scale="   25.812">  2  9  1 -1</clus>
<clus scale="   77.043">  2 10  1 -1</clus>
<clus scale="   83.756">  5  6 -1 -1</clus>
<clus scale="   90.339">  7  8 -1 -1</clus>
<clus scale="  239.222">  1  5  2 -1</clus>
<clus scale="   25.812">  2  5  1 -1</clus>
</clustering>
</event>
<event>
10    4  0.7204077E-005  0.1912454E+03  0.7546771E-02  0.1175939E+00
         21   -1    0    0  501  502  0.00000000000E+00  0.00000000000E+00  0.89425175809E+02  0.89425175809E+02  0.00000000000E+00 0. -1.
          2   -1    0    0  503    0 -0.00000000000E+00 -0.00000000000E+00 -0.14695720688E+04  0.14695720688E+04  0.00000000000E+00 0. -1.
         24    2    1    2    0    0  0.32575606630E+02  0.73063742854E+02 -0.22746035198E+03  0.25538654519E+03  0.84170036674E+02 0.  0.
         23    2    1    2    0    0  0.16633764375E+03 -0.11104365657E+02 -0.15399052504E+03  0.23980113249E+03  0.77459555096E+02 0.  0.
        -11    1    3    3    0    0  0.21344139558E+02 -0.14049311178E+02 -0.77415442724E+02  0.81523654299E+02  0.00000000000E+00 0.  1.
         12    1    3    3    0    0  0.11231467073E+02  0.87113054031E+02 -0.15004490926E+03  0.17386289089E+03  0.00000000000E+00 0. -1.
        -13    1    4    4    0    0  0.10249001675E+03 -0.36197708583E+02 -0.62284001721E+02  0.12527479599E+03  0.00000000000E+00 0. -1.
         13    1    4    4    0    0  0.63847627004E+02  0.25093342925E+02 -0.91706523317E+02  0.11452633650E+03  0.00000000000E+00 0.  1.
         21    1    1    2  503  502 -0.79421562754E+01  0.68420699421E+02 -0.44520832518E+02  0.82015696569E+02  0.00000000000E+00 0. -1.
          1    1    1    2  501    0 -0.19097109411E+03 -0.13038007662E+03 -0.95417518346E+03  0.98179387037E+03  0.00000000000E+00 0. -1.
<scales pt_clust_5="13000.00000" pt_clust_6="13000.00000" pt_clust_7="13000.00000" pt_clust_8="13000.00000" pt_clust_9="68.88011" pt_clust_10="174.85671"></scales>
<clustering>
<clus scale="   68.880">  1  9  2 -1</clus>
<clus scale="   77.460">  7  8 -1 -1</clus>
<clus scale="   84.170">  5  6 -1 -1</clus>
<clus scale="  124.669">  2  5  1 -1</clus>
<clus scale="  174.857">  1 10  2 -1</clus>
<clus scale="   68.880">  1  5  2 -1</clus>
</clustering>
</event>
<event>
10    4  0.7204077E-005  0.3602785E+03  0.7546771E-02  0.1097445E+00
         21   -1    0    0  501  502  0.00000000000E+00  0.00000000000E+00  0.10084415148E+04  0.10084415148E+04  0.00000000000E+00 0. -1.
          2   -1    0    0  503    0 -0.00000000000E+00 -0.00000000000E+00 -0.60861686121E+03  0.60861686121E+03  0.00000000000E+00 0. -1.
         24    2    1    2    0    0 -0.91928482244E+02  0.21095186146E+01 -0.31469379031E+03  0.33881212297E+03  0.85476178507E+02 0.  0.
         23    2    1    2    0    0 -0.19581594166E+03 -0.87094566425E+02  0.28211724690E+03  0.36578474254E+03  0.90988957388E+02 0.  0.
        -13    1    3    3    0    0 -0.45576681569E+02 -0.39976251463E+02 -0.18726943077E+03  0.19683793914E+03  0.00000000000E+00 0.  1.
         14    1    3    3    0    0 -0.46351800675E+02  0.42085770077E+02 -0.12742435954E+03  0.14197418383E+03  0.00000000000E+00 0. -1.
        -13    1    4    4    0    0 -0.13760365006E+03 -0.10084810157E+03  0.23056805623E+03  0.28682177855E+03  0.00000000000E+00 0. -1.
         13    1    4    4    0    0 -0.58212291603E+02  0.13753535143E+02  0.51549190669E+02  0.78962963984E+02  0.00000000000E+00 0.  1.
         21    1    1    2  503  502 -0.25092988447E+03 -0.90149820494E+01  0.87207064274E+02  0.26580471945E+03  0.00000000000E+00 0. -1.
          1    1    1    2  501    0  0.53867430838E+03  0.94000029859E+02  0.34519413269E+03  0.64665679101E+03  0.00000000000E+00 0. -1.
<scales pt_clust_5="13000.00000" pt_clust_6="13000.00000" pt_clust_7="13000.00000" pt_clust_8="13000.00000" pt_clust_9="360.27850" pt_clust_10="13000.00000"></scales>
<clustering>
<clus scale="   85.476">  5  6 -1 -1</clus>
<clus scale="   90.989">  7  8 -1 -1</clus>
<clus scale="  125.545">  2  5  1 -1</clus>
<clus scale="  244.302">  2  7  1 -1</clus>
<clus scale="  360.279">  1  9  2 -1</clus>
<clus scale="  360.279">  1  5  2 -1</clus>
</clustering>
</event>
<event>
10    4  0.7204077E-005  0.9876620E+02  0.7546771E-02  0.1288896E+00
          2   -1    0    0  502    0 -0.00000000000E+00  0.00000000000E+00  0.10732631341E+04  0.10732631341E+04  0.00000000000E+00 0. -1.
         21   -1    0    0  503  502  0.00000000000E+00 -0.00000000000E+00 -0.31025706686E+02  0.31025706686E+02  0.00000000000E+00 0.  1.
         23    2    1    2    0    0  0.41695749772E+01 -0.24348782270E+02  0.47380288060E+03  0.48310120552E+03  0.91034919402E+02 0.  0.
         24    2    1    2    0    0  0.67726760677E+02  0.64362770249E+02  0.28648746984E+03  0.31164343081E+03  0.79480043297E+02 0.  0.
        -13    1    4    4    0    0  0.44085537443E+02  0.17983233311E+02  0.48256197677E+02  0.67790795144E+02  0.00000000000E+00 0.  1.
         14    1    4    4    0    0  0.23641223234E+02  0.46379536938E+02  0.23823127216E+03  0.24385263566E+03  0.00000000000E+00 0. -1.
        -13    1    3    3    0    0  0.20648402917E+02 -0.55365679270E+02  0.28555489214E+03  0.29160471774E+03  0.00000000000E+00 0. -1.
         13    1    3    3    0    0 -0.16478827940E+02  0.31016897001E+02  0.18824798847E+03  0.19149648778E+03  0.00000000000E+00 0.  1.
         21    1    1    2  503  501  0.20676356508E+02  0.10039509224E+01  0.20319489909E+02  0.29006918245E+02  0.00000000000E+00 0.  1.
          1    1    1    2  501    0 -0.92572692163E+02 -0.41017938902E+02  0.26162758702E+03  0.28053728618E+03  0.00000000000E+00 0. -1.
<scales pt_clust_5="13000.00000" pt_clust_6="13000.00000" pt_clust_7="13000.00000" pt_clust_8="13000.00000" pt_clust_9="20.70072" pt_clust_10="94.44727"></scales>
<clustering>
<clus scale="   20.701">  2  9  1 -1</clus>
<clus scale="   79.480">  5  6 -1 -1</clus>
<clus scale="   91.035">  7  8 -1 -1</clus>
<clus scale="   94.447">  2 10  1 -1</clus>
<clus scale="   88.230">  2  5  1 -1</clus>
<clus scale="   20.701">  2  5  1 -1</clus>
</clustering>
</event>
<event>
10    4  0.7204077E-005  0.5257499E+03  0.7546771E-02  0.1007268E+00
         21   -1    0    0  501  502  0.00000000000E+00  0.00000000000E+00  0.46151046345E+03  0.46151046345E+03  0.00000000000E+00 0. -1.
          2   -1    0    0  503    0 -0.00000000000E+00 -0.00000000000E+00 -0.12474881408E+04  0.12474881408E+04  0.00000000000E+00 0. -1.
         24    2    1    2    0    0  0.37507984399E+03  0.76223038077E+02 -0.43317840743E+03  0.58349033368E+03  0.79514752938E+02 0.  0.
         23    2    1    2    0    0  0.14332668881E+03 -0.92693421248E+02 -0.21853956858E+03  0.29192458462E+03  0.91245876640E+02 0.  0.
        -11    1    3    3    0    0  0.14994502422E+03  0.48306736778E+02 -0.12657872353E+03  0.20208717020E+03  0.00000000000E+00 0.  1.
         12    1    3    3    0    0  0.22513481977E+03  0.27916301299E+02 -0.30659968390E+03  0.38140316349E+03  0.00000000000E+00 0. -1.
        -11    1    4    4    0    0  0.14848275425E+03 -0.71221806579E+02 -0.16105257952E+03  0.23034236999E+03  0.00000000000E+00 0. -1.
         11    1    4    4    0    0 -0.51560654469E+01 -0.21471614669E+02 -0.57486989061E+02  0.61582214630E+02  0.00000000000E+00 0.  1.
         21    1    1    2  503  502 -0.12320201275E+03 -0.55538584867E+02  0.24584798045E+03  0.28054322278E+03  0.00000000000E+00 0. -1.
          1    1    1    2  501    0 -0.39520452005E+03  0.72008968038E+02 -0.38010768180E+03  0.55304046318E+03  0.00000000000E+00 0. -1.
<scales pt_clust_5="13000.00000" pt_clust_6="13000.00000" pt_clust_7="13000.00000" pt_clust_8="13000.00000" pt_clust_9="135.14167" pt_clust_10="451.45850"></scales>
<clustering>
<clus scale="   79.515">  5  6 -1 -1</clus>
<clus scale="   91.246">  7  8 -1 -1</clus>
<clus scale="  135.142">  1  9  2 -1</clus>
<clus scale="  162.886">  5  7 -1 -1</clus>
<clus scale="  451.458">  1 10  2 -1</clus>
<clus scale="  135.142">  1  5  2 -1</clus>
</clustering>
</event>
<event>
10    4  0.7204077E-005  0.1750731E+03  0.7546771E-02  0.1205190E+00
         21   -1    0    0  503  502  0.00000000000E+00  0.00000000000E+00  0.14447912755E+03  0.14447912755E+03  0.00000000000E+00 0.  1.
         -3   -1    0    0    0  501 -0.00000000000E+00 -0.00000000000E+00 -0.10442390215E+04  0.10442390215E+04  0.00000000000E+00 0.  1.
         24    2    1    2    0    0  0.48389383300E+02 -0.22049126774E+01 -0.96208927676E+01  0.94330569456E+02  0.80369774793E+02 0.  0.
         23    2    1    2    0    0  0.12353123037E+02  0.15253557131E+03 -0.70691691956E+03  0.72907461315E+03  0.91643658883E+02 0.  0.
        -13    1    3    3    0    0  0.55166345818E+02  0.28443919865E+02 -0.23591002836E+01  0.62112379140E+02  0.00000000000E+00 0.  1.
         14    1    3    3    0    0 -0.67769625179E+01 -0.30648832543E+02 -0.72617924840E+01  0.32218190317E+02  0.00000000000E+00 0. -1.
        -11    1    4    4    0    0  0.46665343779E+02  0.10660016943E+03 -0.54559736948E+03  0.55786892727E+03  0.00000000000E+00 0.  1.
         11    1    4    4    0    0 -0.34312220741E+02  0.45935401887E+02 -0.16131955008E+03  0.17120568588E+03  0.00000000000E+00 0. -1.
         21    1    1    2  503  501 -0.35950859255E+02 -0.73685130418E+01  0.66812670059E+02  0.76227896114E+02  0.00000000000E+00 0. -1.
         -4    1    1    2    0  502 -0.24791647082E+02 -0.14296214559E+03 -0.25003475164E+03  0.28908507029E+03  0.00000000000E+00 0.  1.
<scales pt_clust_5="13000.00000" pt_clust_6="13000.00000" pt_clust_7="13000.00000" pt_clust_8="13000.00000" pt_clust_9="36.69822" pt_clust_10="149.17118"></scales>
<clustering>
<clus scale="   36.698">  1  9  2 -1</clus>
<clus scale="   80.370">  5  6 -1 -1</clus>
<clus scale="   85.198">  2  5  1 -1</clus>
<clus scale="   91.644">  7  8 -1 -1</clus>
<clus scale="  149.171">  1 10  2 -1</clus>
<clus scale="   36.698">  1  5  2 -1</clus>
</clustering>
</event>
<event>
10    4  0.7204077E-005  0.1069094E+03  0.7546771E-02  0.1269955E+00
          4   -1    0    0  503    0 -0.00000000000E+00  0.00000000000E+00  0.10149655469E+03  0.10149655469E+03  0.00000000000E+00 0. -1.
         21   -1    0    0  501  502  0.00000000000E+00 -0.00000000000E+00 -0.42854603768E+03  0.42854603768E+03  0.00000000000E+00 0. -1.
         23    2    1    2    0    0  0.12519700267E+02  0.66922177105E+02  0.39826676397E+01  0.11344720976E+03  0.90659180883E+02 0.  0.
         24    2    1    2    0    0 -0.69161160948E+02 -0.52996814193E+01 -0.10332782618E+03  0.14911613588E+03  0.82143956020E+02 0.  0.
        -11    1    4    4    0    0 -0.35810241670E+02  0.12386749410E+02  0.12712606787E+01  0.37913336349E+02  0.00000000000E+00 0.  1.
         12    1    4    4    0    0 -0.33350919278E+02 -0.17686430829E+02 -0.10459908686E+03  0.11120279953E+03  0.00000000000E+00 0. -1.
        -13    1    3    3    0    0 -0.30011658357E+02  0.52130898966E+02  0.23221962427E+02  0.64479375023E+02  0.00000000000E+00 0. -1.
         13    1    3    3    0    0  0.42531358623E+02  0.14791278139E+02 -0.19239294788E+02  0.48967834741E+02  0.00000000000E+00 0.  1.
         21    1    1    2  503  502  0.16718279808E+02 -0.89884154227E+02 -0.14906833761E+03  0.17487147091E+03  0.00000000000E+00 0. -1.
          3    1    1    2  501    0  0.39923180873E+02  0.28261658541E+02 -0.78635986838E+02  0.92607775810E+02  0.00000000000E+00 0. -1.
<scales pt_clust_5="13000.00000" pt_clust_6="13000.00000" pt_clust_7="13000.00000" pt_clust_8="13000.00000" pt_clust_9="84.39944" pt_clust_10="48.91402"></scales>
<clustering>
<clus scale="   48.914">  2 10  1 -1</clus>
<clus scale="   82.144">  5  6 -1 -1</clus>
<clus scale="   84.399">  2  9  1 -1</clus>
<clus scale="   90.659">  7  8 -1 -1</clus>
<clus scale="   99.791">  2  5  1 -1</clus>
<clus scale="   48.914">  2  5  1 -1</clus>
</clustering>
</event>
<event>
10    4  0.7204077E-005  0.1459386E+03  0.7546771E-02  0.1229252E+00
         -1   -1    0    0    0  501 -0.00000000000E+00  0.00000000000E+00  0.58747250081E+03  0.58747250081E+03  0.00000000000E+00 0.  1.
         21   -1    0    0  501  502  0.00000000000E+00 -0.00000000000E+00 -0.10064028112E+03  0.10064028112E+03  0.00000000000E+00 0.  1.
         24    2    1    2    0    0 -0.11976699489E+02 -0.85377872091E+01  0.85477763462E+02  0.12262811318E+03  0.86688355352E+02 0.  0.
         23    2    1    2    0    0  0.10274330623E+03  0.42411333008E+02  0.66815190847E+02  0.16505079400E+03  0.10209107076E+03 0.  0.
        -13    1    3    3    0    0  0.24108688910E+02 -0.35477808145E+02  0.41951913943E+02  0.59998890283E+02  0.00000000000E+00 0.  1.
         14    1    3    3    0    0 -0.36085388398E+02  0.26940020936E+02  0.43525849520E+02  0.62629222894E+02  0.00000000000E+00 0. -1.
        -13    1    4    4    0    0  0.11312824286E+03  0.13281857342E+02  0.31647889578E+02  0.11822011666E+03  0.00000000000E+00 0.  1.
         13    1    4    4    0    0 -0.10384936635E+02  0.29129475666E+02  0.35167301270E+02  0.46830677339E+02  0.00000000000E+00 0. -1.
         21    1    1    2  503  502  0.18708718990E+01 -0.20962171030E+02 -0.22816501437E+02  0.31040385207E+02  0.00000000000E+00 0.  1.
         -2    1    1    2    0  503 -0.92637478640E+02 -0.12911374769E+02  0.35735576682E+03  0.36939348955E+03  0.00000000000E+00 0.  1.
<scales pt_clust_5="13000.00000" pt_clust_6="13000.00000" pt_clust_7="13000.00000" pt_clust_8="13000.00000" pt_clust_9="21.04549" pt_clust_10="104.28563"></scales>
<clustering>
<clus scale="   21.045">  2  9  1 -1</clus>
<clus scale="   86.688">  5  6 -1 -1</clus>
<clus scale="   88.534">  1  5  2 -1</clus>
<clus scale="  102.091">  7  8 -1 -1</clus>
<clus scale="  104.286">  2 10  1 -1</clus>
<clus scale="   21.045">  2  5  1 -1</clus>
</clustering>
</event>
<event>
10    4  0.7204077E-005  0.9236317E+02  0.7546771E-02  0.1300581E+00
          2   -1    0    0  503    0 -0.00000000000E+00  0.00000000000E+00  0.10025238984E+03  0.10025238984E+03  0.00000000000E+00 0. -1.
         21   -1    0    0  501  502  0.00000000000E+00 -0.00000000000E+00 -0.38806885590E+03  0.38806885590E+03  0.00000000000E+00 0. -1.
         23    2    1    2    0    0  0.91078830511E+01  0.33122216980E+02 -0.55877874992E+02  0.10846998862E+03  0.86390779169E+02 0.  0.
         24    2    1    2    0    0 -0.69107677800E+02  0.27179838954E+02 -0.12737155353E+03  0.16795130452E+03  0.80433284567E+02 0.  0.
        -13    1    4    4    0    0  0.14983130536E+02  0.14094692046E+02 -0.97326295791E+01  0.22756946698E+02  0.00000000000E+00 0.  1.
         14    1    4    4    0    0 -0.84090808336E+02  0.13085146909E+02 -0.11763892395E+03  0.14519435782E+03  0.00000000000E+00 0. -1.
        -13    1    3    3    0    0  0.46131332728E+02  0.68351677306E+01 -0.20659241954E+02  0.51006113901E+02  0.00000000000E+00 0. -1.
         13    1    3    3    0    0 -0.37023449677E+02  0.26287049250E+02 -0.35218633038E+02  0.57463874715E+02  0.00000000000E+00 0.  1.
         21    1    1    2  503  502 -0.80878117952E+00 -0.95218652141E+02 -0.10504179256E+03  0.14177808020E+03  0.00000000000E+00 0. -1.
          1    1    1    2  501    0  0.60808575928E+02  0.34916596206E+02  0.47475501720E+00  0.70121872404E+02  0.00000000000E+00 0. -1.
<scales pt_clust_5="13000.00000" pt_clust_6="13000.00000" pt_clust_7="13000.00000" pt_clust_8="13000.00000" pt_clust_9="85.49826" pt_clust_10="70.12030"></scales>
<clustering>
<clus scale="   70.120">  2 10  1 -1</clus>
<clus scale="   80.433">  5  6 -1 -1</clus>
<clus scale="   85.498">  2  9  1 -1</clus>
<clus scale="   86.391">  7  8 -1 -1</clus>
<clus scale="   86.816">  2  5  1 -1</clus>
<clus scale="   70.120">  2  5  1 -1</clus>
</clustering>
</event>
<event>
10    4  0.7204077E-005  0.2682630E+03  0.7546771E-02  0.1123291E+00
         -1   -1    0    0    0  501 -0.00000000000E+00  0.00000000000E+00  0.68231901221E+03  0.68231901221E+03  0.00000000000E+00 0.  1.
         21   -1    0    0  501  502  0.00000000000E+00 -0.00000000000E+00 -0.37790855589E+03  0.37790855589E+03  0.00000000000E+00 0.  1.
         23    2    1    2    0    0 -0.92816956738E+02 -0.88206771074E+02  0.94878890317E+02  0.18386827092E+03  0.91706680793E+02 0.  0.
         24    2    1    2    0    0 -0.56646718578E+02  0.13162474210E+03  0.20322714056E+03  0.26172516045E+03  0.81638627459E+02 0.  0.
        -11    1    4    4    0    0 -0.70260596132E+02  0.73515314247E+02  0.15304283278E+03  0.18374754818E+03  0.00000000000E+00 0.  1.
         12    1    4    4    0    0  0.13613877555E+02  0.58109427856E+02  0.50184307785E+02  0.77977612273E+02  0.00000000000E+00 0. -1.
        -11    1    3    3    0    0 -0.30540272440E+02 -0.25347963526E+02 -0.15317967310E+02  0.42542538924E+02  0.00000000000E+00 0.  1.
         11    1    3    3    0    0 -0.62276684298E+02 -0.62858807548E+02  0.11019685763E+03  0.14132573200E+03  0.00000000000E+00 0. -1.
         21    1    1    2  503  502 -0.12907720939E+03  0.19384305464E+03 -0.65153418598E+02  0.24182850074E+03  0.00000000000E+00 0.  1.
         -2    1    1    2    0  503  0.27854088470E+03 -0.23726102567E+03  0.71457844040E+02  0.37280563599E+03  0.00000000000E+00 0.  1.
<scales pt_clust_5="13000.00000" pt_clust_6="13000.00000" pt_clust_7="13000.00000" pt_clust_8="13000.00000" pt_clust_9="13000.00000" pt_clust_10="268.26296"></scales>
<clustering>
<clus scale="   81.639">  5  6 -1 -1</clus>
<clus scale="   91.707">  7  8 -1 -1</clus>
<clus scale="  157.498">  1  7  2 -1</clus>
<clus scale="  157.368">  1  5  2 -1</clus>
<clus scale="  268.263">  1 10  2 -1</clus>
<clus scale="  268.263">  2  5  1 -1</clus>
</clustering>
</event>
<event>
10    4  0.7204077E-005  0.4770397E+03  0.7546771E-02  0.1019952E+00
          2   -1    0    0  503    0 -0.00000000000E+00  0.00000000000E+00  0.39955014532E+03  0.39955014532E+03  0.00000000000E+00 0. -1.
         21   -1    0    0  501  502  0.00000000000E+00 -0.00000000000E+00 -0.54979092348E+03  0.54979092348E+03  0.00000000000E+00 0.  1.
         24    2    1    2    0    0  0.59107399297E+02  0.47199120584E+02 -0.64370950910E+01  0.11120266395E+03  0.81259797196E+02 0.  0.
         23    2    1    2    0    0  0.31978940357E+03  0.13662329427E+03 -0.15199923711E+02  0.35921974972E+03  0.88750232323E+02 0.  0.
        -13    1    3    3    0    0  0.10879201298E+02  0.25855283930E+02  0.34481673285E+02  0.44450405178E+02  0.00000000000E+00 0.  1.
         14    1    3    3    0    0  0.48228197999E+02  0.21343836654E+02 -0.40918768376E+02  0.66752258769E+02  0.00000000000E+00 0. -1.
        -13    1    4    4    0    0  0.12506038572E+03  0.12237287913E+02 -0.24253740560E+02  0.12797693239E+03  0.00000000000E+00 0.  1.
         13    1    4    4    0    0  0.19472901785E+03  0.12438600635E+03  0.90538168491E+01  0.23124281734E+03  0.00000000000E+00 0. -1.
         21    1    1    2  503  502  0.91412148444E+01  0.20062963643E+02 -0.12981249226E+02  0.25585096256E+02  0.00000000000E+00 0. -1.
          1    1    1    2  501    0 -0.38803801771E+03 -0.20388537849E+03 -0.11562251013E+03  0.45333355888E+03  0.00000000000E+00 0. -1.
<scales pt_clust_5="13000.00000" pt_clust_6="13000.00000" pt_clust_7="13000.00000" pt_clust_8="13000.00000" pt_clust_9="22.04732" pt_clust_10="429.05862"></scales>
<clustering>
<clus scale="   22.047">  2  9  1 -1</clus>
<clus scale="   81.260">  5  6 -1 -1</clus>
<clus scale="   88.750">  7  8 -1 -1</clus>
<clus scale="   91.201">  5  7 -1 -1</clus>
<clus scale="  429.059">  2 10  1 -1</clus>
<clus scale="   22.047">  2  5  1 -1</clus>
</clustering>
</event>
<event>
10    4  0.7204077E-005  0.1544546E+03  0.7546771E-02  0.1218135E+00
          2   -1    0    0  503    0 -0.00000000000E+00  0.00000000000E+00  0.99057524986E+03  0.99057524986E+03  0.00000000000E+00 0. -1.
         21   -1    0    0  501  502  0.00000000000E+00 -0.00000000000E+00 -0.16103104705E+03  0.16103104705E+03  0.00000000000E+00 0. -1.
         24    2    1    2    0    0  0.42911271501E+02  0.23370516497E+02  0.61019763605E+03  0.61739075274E+03  0.80265984476E+02 0.  0.
         23    2    1    2    0    0  0.87922735537E+02 -0.35444674059E+02  0.31870555349E+03  0.34415090681E+03  0.88768713438E+02 0.  0.
        -13    1    3    3    0    0 -0.13133417989E+02 -0.19309728053E+02  0.13639010436E+03  0.13837489958E+03  0.00000000000E+00 0.  1.
         14    1    3    3    0    0  0.56044689490E+02  0.42680244550E+02  0.47380753169E+03  0.47901585316E+03  0.00000000000E+00 0. -1.
        -13    1    4    4    0    0  0.39883493535E+02  0.21314312182E+02  0.19185136052E+03  0.19710894829E+03  0.00000000000E+00 0.  1.
         13    1    4    4    0    0  0.48039242002E+02 -0.56758986241E+02  0.12685419297E+03  0.14704195852E+03  0.00000000000E+00 0. -1.
         21    1    1    2  503  502  0.11979888332E+01  0.28534652124E+02 -0.22896871264E+02  0.36605030567E+02  0.00000000000E+00 0.  1.
          1    1    1    2  501    0 -0.13203199587E+03 -0.16460494562E+02 -0.76462115465E+02  0.15345960679E+03  0.00000000000E+00 0. -1.
<scales pt_clust_5="13000.00000" pt_clust_6="13000.00000" pt_clust_7="13000.00000" pt_clust_8="13000.00000" pt_clust_9="28.55979" pt_clust_10="126.39750"></scales>
<clustering>
<clus scale="   28.560">  2  9  1 -1</clus>
<clus scale="   80.266">  5  6 -1 -1</clus>
<clus scale="   88.769">  7  8 -1 -1</clus>
<clus scale="   94.181">  1  5  2 -1</clus>
<clus scale="  126.398">  2 10  1 -1</clus>
<clus scale="   28.560">  2  5  1 -1</clus>
</clustering>
</event>
<event>
10    4  0.7204077E-005  0.4138154E+03  0.7546771E-02  0.1039098E+00
          2   -1    0    0  503    0 -0.00000000000E+00  0.00000000000E+00  0.16301806791E+04  0.16301806791E+04  0.00000000000E+00 0. -1.
         21   -1    0    0  501  502  0.00000000000E+00 -0.00000000000E+00 -0.29649291879E+03  0.29649291879E+03  0.00000000000E+00 0. -1.
         24    2    1    2    0    0  0.10724252800E+03 -0.27217317923E+03  0.11739959124E+04  0.12126053372E+04  0.81031489418E+02 0.  0.
         23    2    1    2    0    0  0.32012684911E+02 -0.10248102477E+02  0.21872755906E+03  0.23944250534E+03  0.91439229401E+02 0.  0.
        -11    1    3    3    0    0  0.51815891095E+02 -0.44323661199E+02  0.30477178903E+03  0.31230644710E+03  0.00000000000E+00 0.  1.
         12    1    3    3    0    0  0.55426636904E+02 -0.22784951803E+03  0.86922412337E+03  0.90029889014E+03  0.00000000000E+00 0. -1.
        -11    1    4    4    0    0 -0.17029239134E+02  0.17459751316E+02  0.14298917903E+03  0.14505427681E+03  0.00000000000E+00 0.  1.
         11    1    4    4    0    0  0.49041924045E+02 -0.27707853793E+02  0.75738380024E+02  0.94388228527E+02  0.00000000000E+00 0. -1.
         21    1    1    2  503  502  0.10729895019E+03  0.19532294205E+02  0.19877002029E+01  0.10908036570E+03  0.00000000000E+00 0. -1.
          1    1    1    2  501    0 -0.24655416310E+03  0.26288898750E+03 -0.61023411389E+02  0.36554538956E+03  0.00000000000E+00 0. -1.
<scales pt_clust_5="13000.00000" pt_clust_6="13000.00000" pt_clust_7="13000.00000" pt_clust_8="13000.00000" pt_clust_9="109.06225" pt_clust_10="318.79886"></scales>
<clustering>
<clus scale="   81.031">  5  6 -1 -1</clus>
<clus scale="   91.439">  7  8 -1 -1</clus>
<clus scale="   96.340">  5  7 -1 -1</clus>
<clus scale="  109.062">  2  9  1 -1</clus>
<clus scale="  318.799">  2 10  1 -1</clus>
<clus scale="  109.062">  2  5  1 -1</clus>
</clustering>
</event>
<event>
10    4  0.7204077E-005  0.1108517E+03  0.7546771E-02  0.1260794E+00
         21   -1    0    0  501  502  0.00000000000E+00  0.00000000000E+00  0.40849985590E+02  0.40849985590E+02  0.00000000000E+00 0. -1.
          2   -1    0    0  503    0 -0.00000000000E+00 -0.00000000000E+00 -0.12844252574E+04  0.12844252574E+04  0.00000000000E+00 0. -1.
         24    2    1    2    0    0 -0.46365445846E+02  0.19077446904E+02 -0.38916208672E+03  0.40154973664E+03  0.85330871939E+02 0.  0.
         23    2    1    2    0    0  0.44085056254E+02 -0.95619060526E+02 -0.40313996545E+03  0.42629353633E+03  0.90099114616E+02 0.  0.
        -13    1    3    3    0    0  0.24855131020E+02 -0.85794206134E+00 -0.10754625234E+03  0.11038437387E+03  0.00000000000E+00 0.  1.
         14    1    3    3    0    0 -0.71220576865E+02  0.19935388965E+02 -0.28161583438E+03  0.29116536277E+03  0.00000000000E+00 0. -1.
        -11    1    4    4    0    0 -0.59727036250E+01 -0.47647414949E+02 -0.63301299487E+02  0.79454413701E+02  0.00000000000E+00 0. -1.
         11    1    4    4    0    0  0.50057759879E+02 -0.47971645577E+02 -0.33983866596E+03  0.34683912263E+03  0.00000000000E+00 0.  1.
         21    1    1    2  503  502  0.49466396506E+02  0.35628536678E+02 -0.23835317705E+02  0.65455629088E+02  0.00000000000E+00 0. -1.
          1    1    1    2  501    0 -0.47186006915E+02  0.40913076944E+02 -0.42743790196E+03  0.43197634096E+03  0.00000000000E+00 0. -1.
<scales pt_clust_5="13000.00000" pt_clust_6="13000.00000" pt_clust_7="13000.00000" pt_clust_8="13000.00000" pt_clust_9="60.96160" pt_clust_10="61.23369"></scales>
<clustering>
<clus scale="   60.962">  1  9  2 -1</clus>
<clus scale="   61.234">  1 10  2 -1</clus>
<clus scale="   85.331">  5  6 -1 -1</clus>
<clus scale="   90.099">  7  8 -1 -1</clus>
<clus scale="  107.012">  2  5  1 -1</clus>
<clus scale="   60.962">  1  5  2 -1</clus>
</clustering>
</event>
<event>
10    4  0.7204077E-005  0.1074772E+03  0.7546771E-02  0.1268692E+00
          4   -1    0    0  503    0 -0.00000000000E+00  0.00000000000E+00  0.12735336790E+03  0.12735336790E+03  0.00000000000E+00 0. -1.
         21   -1    0    0  501  502  0.00000000000E+00 -0.00000000000E+00 -0.37960708512E+03  0.37960708512E+03  0.00000000000E+00 0. -1.
         23    2    1    2    0    0  0.63303994126E+02  0.36191841916E+02 -0.15094004211E+02  0.11674549306E+03  0.89913492281E+02 0.  0.
         24    2    1    2    0    0  0.29319417487E+02 -0.76540154572E+02 -0.14826556215E+02  0.11662420687E+03  0.81629378019E+02 0.  0.
        -13    1    4    4    0    0 -0.20854280586E+02 -0.38679348061E+02  0.15808775614E+02  0.46700218111E+02  0.00000000000E+00 0.  1.
         14    1    4    4    0    0  0.50173698073E+02 -0.37860806511E+02 -0.30635331829E+02  0.69923988761E+02  0.00000000000E+00 0. -1.
        -11    1    3    3    0    0 -0.14886072938E+02  0.26956840326E+02 -0.21796211524E+02  0.37727195028E+02  0.00000000000E+00 0.  1.
         11    1    3    3    0    0  0.78190067063E+02  0.92350015900E+01  0.67022073134E+01  0.79018298037E+02  0.00000000000E+00 0. -1.
         21    1    1    2  503  502  0.17054686533E+02  0.28957442171E+02 -0.11461639844E+03  0.11944167858E+03  0.00000000000E+00 0. -1.
          3    1    1    2  501    0 -0.10967809815E+03  0.11390870485E+02 -0.10771675835E+03  0.15414907451E+03  0.00000000000E+00 0. -1.
<scales pt_clust_5="13000.00000" pt_clust_6="13000.00000" pt_clust_7="13000.00000" pt_clust_8="13000.00000" pt_clust_9="33.60648" pt_clust_10="104.41916"></scales>
<clustering>
<clus scale="   33.606">  2  9  1 -1</clus>
<clus scale="   81.629">  5  6 -1 -1</clus>
<clus scale="   89.913">  7  8 -1 -1</clus>
<clus scale="  104.419">  2 10  1 -1</clus>
<clus scale="  100.649">  2  5  1 -1</clus>
<clus scale="   33.606">  2  5  1 -1</clus>
</clustering>
</event>
<event>
10    4  0.7204077E-005  0.4661072E+03  0.7546771E-02  0.1064375E+00
          2   -1    0    0  502    0 -0.00000000000E+00  0.00000000000E+00  0.10986760480E+04  0.10986760480E+04  0.00000000000E+00 0. -1.
         21   -1    0    0  503  502  0.00000000000E+00 -0.00000000000E+00 -0.85017810631E+03  0.85017810631E+03  0.00000000000E+00 0. -1.
         23    2    1    2    0    0 -0.50454109787E+02 -0.92982585275E+02  0.72031049349E+03  0.73400727441E+03  0.93424266097E+02 0.  0.
         24    2    1    2    0    0 -0.40933241629E+03 -0.12407203774E+02  0.11339990471E+03  0.43298841112E+03  0.83141205423E+02 0.  0.
        -13    1    4    4    0    0 -0.13613053888E+03 -0.39244803376E+02  0.20341383830E+02  0.14312739117E+03  0.00000000000E+00 0.  1.
         14    1    4    4    0    0 -0.27320187742E+03  0.26837599603E+02  0.93058520881E+02  0.28986101995E+03  0.00000000000E+00 0. -1.
        -13    1    3    3    0    0  0.18204756750E+02 -0.62325935912E+02  0.37795229725E+03  0.38348907996E+03  0.00000000000E+00 0.  1.
         13    1    3    3    0    0 -0.68658866537E+02 -0.30656649363E+02  0.34235819624E+03  0.35051819445E+03  0.00000000000E+00 0. -1.
         21    1    1    2  503  501 -0.21706014142E+02  0.16114796064E+02 -0.17883466338E+02  0.32413825297E+02  0.00000000000E+00 0.  1.
          1    1    1    2  501    0  0.48149254022E+03  0.89274992984E+02 -0.56732899013E+03  0.74944464352E+03  0.00000000000E+00 0. -1.
<scales pt_clust_5="13000.00000" pt_clust_6="13000.00000" pt_clust_7="13000.00000" pt_clust_8="13000.00000" pt_clust_9="27.03401" pt_clust_10="458.63219"></scales>
<clustering>
<clus scale="   27.034">  2  9  1 -1</clus>
<clus scale="   83.141">  5  6 -1 -1</clus>
<clus scale="   93.424">  7  8 -1 -1</clus>
<clus scale="  141.113">  1  7  2 -1</clus>
<clus scale="  458.632">  2 10  1 -1</clus>
<clus scale="   27.034">  2  5  1 -1</clus>
</clustering>
</event>
<event>
10    4  0.7204077E-005  0.1867529E+03  0.7546771E-02  0.1162452E+00
         21   -1    0    0  501  502  0.00000000000E+00  0.00000000000E+00  0.16368474481E+03  0.16368474481E+03  0.00000000000E+00 0. -1.
          2   -1    0    0  503    0 -0.00000000000E+00 -0.00000000000E+00 -0.15572611568E+04  0.15572611568E+04  0.00000000000E+00 0. -1.
         24    2    1    2    0    0  0.10237196233E+03  0.10977214658E+03 -0.10061608672E+04  0.10204431797E+04  0.80091506373E+02 0.  0.
         23    2    1    2    0    0 -0.19587986733E+03 -0.15094238099E+03 -0.36864110733E+03  0.45286848709E+03  0.89672045685E+02 0.  0.
        -13    1    3    3    0    0  0.61551794086E+02  0.31003319845E+02 -0.25822038627E+03  0.26725941907E+03  0.00000000000E+00 0.  1.
         14    1    3    3    0    0  0.40820168240E+02  0.78768826736E+02 -0.74794048093E+03  0.75318376058E+03  0.00000000000E+00 0. -1.
        -13    1    4    4    0    0 -0.11274992662E+02 -0.27840668844E+02 -0.10999337679E+02  0.31987712182E+02  0.00000000000E+00 0.  1.
         13    1    4    4    0    0 -0.18460487466E+03 -0.12310171215E+03 -0.35764176965E+03  0.42088077490E+03  0.00000000000E+00 0. -1.
         21    1    1    2  503  502  0.14804265716E+03 -0.23208648006E+01 -0.67323997523E+02  0.16264850259E+03  0.00000000000E+00 0. -1.
          1    1    1    2  501    0 -0.54534752158E+02  0.43491099211E+02  0.48549560084E+02  0.84985732261E+02  0.00000000000E+00 0. -1.
<scales pt_clust_5="13000.00000" pt_clust_6="13000.00000" pt_clust_7="13000.00000" pt_clust_8="13000.00000" pt_clust_9="122.71375" pt_clust_10="69.75324"></scales>
<clustering>
<clus scale="   69.753">  1 10  2 -1</clus>
<clus scale="   80.092">  5  6 -1 -1</clus>
<clus scale="   89.672">  7  8 -1 -1</clus>
<clus scale="  122.714">  1  9  2 -1</clus>
<clus scale="  182.346">  2  5  1 -1</clus>
<clus scale="   69.753">  1  5  2 -1</clus>
</clustering>
</event>
<event>
10    4  0.7204077E-005  0.1603394E+03  0.7546771E-02  0.1198890E+00
         -3   -1    0    0    0  501 -0.00000000000E+00  0.00000000000E+00  0.87477706259E+03  0.87477706259E+03  0.00000000000E+00 0.  1.
         21   -1    0    0  503  502  0.00000000000E+00 -0.00000000000E+00 -0.10132998682E+03  0.10132998682E+03  0.00000000000E+00 0.  1.
         24    2    1    2    0    0  0.28062382631E+02 -0.86436922213E+02  0.17522601594E+03  0.21324340998E+03  0.80683061383E+02 0.  0.
         23    2    1    2    0    0 -0.69730994351E+02 -0.75697488912E+02  0.54776765976E+02  0.15486068751E+03  0.10192554658E+03 0.  0.
        -11    1    3    3    0    0 -0.20342183868E+02 -0.60432984405E+02  0.11657433357E+03  0.13287409565E+03  0.00000000000E+00 0.  1.
         12    1    3    3    0    0  0.48404566499E+02 -0.26003937809E+02  0.58651682377E+02  0.80369314326E+02  0.00000000000E+00 0. -1.
        -13    1    4    4    0    0 -0.95470076497E+02 -0.55685778651E+02  0.31909724155E+02  0.11503769793E+03  0.00000000000E+00 0.  1.
         13    1    4    4    0    0  0.25739082146E+02 -0.20011710260E+02  0.22867041821E+02  0.39822989578E+02  0.00000000000E+00 0. -1.
         21    1    1    2  503  501  0.15608488021E+02 -0.29776094406E+02  0.28221829730E+01  0.33737300027E+02  0.00000000000E+00 0. -1.
         -4    1    1    2    0  502  0.26060123700E+02  0.19191050553E+03  0.54062211088E+03  0.57426565190E+03  0.00000000000E+00 0.  1.
<scales pt_clust_5="13000.00000" pt_clust_6="13000.00000" pt_clust_7="13000.00000" pt_clust_8="13000.00000" pt_clust_9="33.61905" pt_clust_10="123.77372"></scales>
<clustering>
<clus scale="   33.619">  2  9  1 -1</clus>
<clus scale="   80.683">  5  6 -1 -1</clus>
<clus scale="  101.926">  7  8 -1 -1</clus>
<clus scale="  127.112">  1  5  2 -1</clus>
<clus scale="  123.774">  2 10  1 -1</clus>
<clus scale="   33.619">  2  5  1 -1</clus>
</clustering>
</event>
<event>
10    4  0.8255187E-005  0.2483308E+03  0.7546771E-02  0.1132797E+00
         21   -1    0    0  503  502  0.00000000000E+00  0.00000000000E+00  0.10715064054E+03  0.10715064054E+03  0.00000000000E+00 0.  1.
          2   -1    0    0  502    0 -0.00000000000E+00 -0.00000000000E+00 -0.16166783134E+04  0.16166783134E+04  0.00000000000E+00 0. -1.
         24    2    1    2    0    0  0.12435551367E+03 -0.43799802916E+02 -0.63289768887E+03  0.65165840875E+03  0.81954137167E+02 0.  0.
         23    2    1    2    0    0 -0.27091439061E+03 -0.96871245551E+02 -0.20915439411E+03  0.36746728977E+03  0.92238837921E+02 0.  0.
        -13    1    3    3    0    0  0.52747568897E+02  0.22409765469E+02 -0.25732025370E+03  0.26362514405E+03  0.00000000000E+00 0.  1.
         14    1    3    3    0    0  0.71607944773E+02 -0.66209568385E+02 -0.37557743517E+03  0.38803326469E+03  0.00000000000E+00 0. -1.
        -13    1    4    4    0    0 -0.22593982449E+02 -0.64135703469E+01  0.86197874781E+01  0.25018446468E+02  0.00000000000E+00 0. -1.
         13    1    4    4    0    0 -0.24832040816E+03 -0.90457675204E+02 -0.21777418158E+03  0.34244884330E+03  0.00000000000E+00 0.  1.
         21    1    1    2  503  501  0.30569465454E+02  0.18577853745E+02 -0.34461723929E+02  0.49671312486E+02  0.00000000000E+00 0. -1.
          1    1    1    2  501    0  0.11598941148E+03  0.12209319472E+03 -0.63301386592E+03  0.65503194290E+03  0.00000000000E+00 0. -1.
<scales pt_clust_5="13000.00000" pt_clust_6="13000.00000" pt_clust_7="13000.00000" pt_clust_8="13000.00000" pt_clust_9="35.77190" pt_clust_10="230.56508"></scales>
<clustering>
<clus scale="   35.772">  1  9  2 -1</clus>
<clus scale="   81.954">  5  6 -1 -1</clus>
<clus scale="   92.239">  7  8 -1 -1</clus>
<clus scale="  157.078">  2  5  1 -1</clus>
<clus scale="  230.565">  1 10  2 -1</clus>
<clus scale="   35.772">  1  5  2 -1</clus>
</clustering>
</event>
<event>
10    4  0.7204077E-005  0.3653970E+03  0.7546771E-02  0.1067722E+00
         21   -1    0    0  503  502  0.00000000000E+00  0.00000000000E+00  0.17507696316E+03  0.17507696316E+03  0.00000000000E+00 0. -1.
          2   -1    0    0  502    0 -0.00000000000E+00 -0.00000000000E+00 -0.25705334152E+04  0.25705334152E+04  0.00000000000E+00 0. -1.
         23    2    1    2    0    0 -0.25269073408E+03  0.26062132406E+02 -0.20450521659E+03  0.33874253702E+03  0.91609393286E+02 0.  0.
         24    2    1    2    0    0  0.30141344719E+03 -0.37015058814E+03 -0.17940791920E+04  0.18582116887E+04  0.79806069777E+02 0.  0.
        -13    1    4    4    0    0  0.20405001659E+03 -0.21150076055E+03 -0.97970686699E+03  0.10228365100E+04  0.00000000000E+00 0.  1.
         14    1    4    4    0    0  0.97363430591E+02 -0.15864982759E+03 -0.81437232498E+03  0.83537517865E+03  0.00000000000E+00 0. -1.
        -13    1    3    3    0    0 -0.27110437605E+02  0.20174736411E+02  0.60339358168E+00  0.33798815070E+02  0.00000000000E+00 0.  1.
         13    1    3    3    0    0 -0.22558029648E+03  0.58873959956E+01 -0.20510861017E+03  0.30494372195E+03  0.00000000000E+00 0. -1.
         21    1    1    2  503  501  0.97947983865E+01  0.17793261280E+02  0.10968417331E+02  0.23083422648E+02  0.00000000000E+00 0. -1.
          1    1    1    2  501    0 -0.58517511490E+02  0.32629519445E+03 -0.40784046078E+03  0.52557273000E+03  0.00000000000E+00 0. -1.
<scales pt_clust_5="13000.00000" pt_clust_6="13000.00000" pt_clust_7="13000.00000" pt_clust_8="13000.00000" pt_clust_9="20.31104" pt_clust_10="356.57532"></scales>
<clustering>
<clus scale="   20.311">  1  9  2 -1</clus>
<clus scale="   79.806">  5  6 -1 -1</clus>
<clus scale="   91.609">  7  8 -1 -1</clus>
<clus scale="  267.002">  2  7  1 -1</clus>
<clus scale="  356.575">  1 10  2 -1</clus>
<clus scale="   20.311">  1  5  2 -1</clus>
</clustering>
</event>
<event>
10    4  0.7204077E-005  0.2621115E+03  0.7546771E-02  0.1129522E+00
         21   -1    0    0  503  502  0.00000000000E+00  0.00000000000E+00  0.42985519916E+03  0.42985519916E+03  0.00000000000E+00 0. -1.
          2   -1    0    0  502    0 -0.00000000000E+00 -0.00000000000E+00 -0.11005092712E+04  0.11005092712E+04  0.00000000000E+00 0. -1.
         24    2    1    2    0    0 -0.11855293847E+03 -0.63189060695E+01 -0.55602027841E+03  0.57463837160E+03  0.83402519873E+02 0.  0.
         23    2    1    2    0    0 -0.12049295625E+03  0.12512862356E+03 -0.45358098780E+03  0.49172609123E+03  0.76701442979E+02 0.  0.
        -11    1    3    3    0    0 -0.82058318031E+02 -0.26051274500E+02 -0.22297563136E+03  0.23901959886E+03  0.00000000000E+00 0.  1.
         12    1    3    3    0    0 -0.36494620436E+02  0.19732368431E+02 -0.33304464705E+03  0.33561877274E+03  0.00000000000E+00 0. -1.
        -11    1    4    4    0    0 -0.43960276400E+02  0.69347276992E+02 -0.12330649503E+03  0.14814196719E+03  0.00000000000E+00 0.  1.
         11    1    4    4    0    0 -0.76532679850E+02  0.55781346572E+02 -0.33027449278E+03  0.34358412404E+03  0.00000000000E+00 0. -1.
         21    1    1    2  503  501  0.13709246727E+02 -0.24042020745E+02  0.15660270637E+03  0.15902946220E+03  0.00000000000E+00 0. -1.
          1    1    1    2  501    0  0.22533664799E+03 -0.94767696749E+02  0.18234448782E+03  0.30497054532E+03  0.00000000000E+00 0. -1.
<scales pt_clust_5="13000.00000" pt_clust_6="13000.00000" pt_clust_7="13000.00000" pt_clust_8="13000.00000" pt_clust_9="27.67602" pt_clust_10="250.63788"></scales>
<clustering>
<clus scale="   27.676">  1  9  2 -1</clus>
<clus scale="   76.701">  7  8 -1 -1</clus>
<clus scale="   83.403">  5  6 -1 -1</clus>
<clus scale="  144.744">  2  5  1 -1</clus>
<clus scale="  250.638">  1 10  2 -1</clus>
<clus scale="   27.676">  1  5  2 -1</clus>
</clustering>
</event>
<event>
10    4  0.7204077E-005  0.9776706E+02  0.7546771E-02  0.1289901E+00
         21   -1    0    0  503  502  0.00000000000E+00  0.00000000000E+00  0.10598710869E+03  0.10598710869E+03  0.00000000000E+00 0.  1.
         -3   -1    0    0    0  501 -0.00000000000E+00 -0.00000000000E+00 -0.32278739650E+03  0.32278739650E+03  0.00000000000E+00 0.  1.
         24    2    1    2    0    0  0.22753800352E+02  0.20161160578E+02 -0.12729800580E+03  0.15444572037E+03  0.82002990398E+02 0.  0.
         23    2    1    2    0    0 -0.54892366894E+02 -0.65443394923E+00 -0.53724692887E+02  0.11922541922E+03  0.91185293423E+02 0.  0.
        -13    1    3    3    0    0 -0.10199575677E+02  0.21035514922E+02 -0.11786016968E+03  0.12015633079E+03  0.00000000000E+00 0.  1.
         14    1    3    3    0    0  0.32953376030E+02 -0.87435434320E+00 -0.94378361194E+01  0.34289389582E+02  0.00000000000E+00 0. -1.
        -11    1    4    4    0    0 -0.33501405795E+02 -0.11580119646E+01  0.22290587582E+02  0.40256123468E+02  0.00000000000E+00 0.  1.
         11    1    4    4    0    0 -0.21390961099E+02  0.50357801536E+00 -0.76015280469E+02  0.78969295757E+02  0.00000000000E+00 0. -1.
         21    1    1    2  503  501 -0.22886341671E+02  0.69415050375E+01  0.46712306183E+02  0.52478649718E+02  0.00000000000E+00 0.  1.
         -4    1    1    2    0  502  0.55024908213E+02 -0.26448231667E+02 -0.82489895306E+02  0.10262471588E+03  0.00000000000E+00 0.  1.
<scales pt_clust_5="13000.00000" pt_clust_6="13000.00000" pt_clust_7="13000.00000" pt_clust_8="13000.00000" pt_clust_9="23.91588" pt_clust_10="56.83561"></scales>
<clustering>
<clus scale="   23.916">  1  9  2 -1</clus>
<clus scale="   56.836">  1 10  2 -1</clus>
<clus scale="   82.003">  5  6 -1 -1</clus>
<clus scale="   89.264">  2  5  1 -1</clus>
<clus scale="   91.185">  7  8 -1 -1</clus>
<clus scale="   23.916">  1  5  2 -1</clus>
</clustering>
</event>
<event>
10    4  0.7204077E-005  0.1078877E+03  0.7546771E-02  0.1269388E+00
         -3   -1    0    0    0  501 -0.00000000000E+00  0.00000000000E+00  0.90087709704E+02  0.90087709704E+02  0.00000000000E+00 0.  1.
         21   -1    0    0  501  502  0.00000000000E+00 -0.00000000000E+00 -0.29649085846E+03  0.29649085846E+03  0.00000000000E+00 0. -1.
         24    2    1    2    0    0  0.49803019387E+02 -0.21160046308E+02 -0.16253462247E+02  0.97149809320E+02  0.79030513830E+02 0.  0.
         23    2    1    2    0    0 -0.38467266191E+02  0.69788445351E+02 -0.11776272884E+03  0.16871856641E+03  0.90817050568E+02 0.  0.
        -13    1    3    3    0    0  0.22095062191E+02 -0.49078263503E+02  0.18398973246E+01  0.53853996545E+02  0.00000000000E+00 0.  1.
         14    1    3    3    0    0  0.27707957196E+02  0.27918217195E+02 -0.18093359571E+02  0.43295812776E+02  0.00000000000E+00 0. -1.
        -11    1    4    4    0    0  0.13345824400E+02  0.55929908374E+02 -0.27534144792E+02  0.63752606292E+02  0.00000000000E+00 0.  1.
         11    1    4    4    0    0 -0.51813090590E+02  0.13858536978E+02 -0.90228584046E+02  0.10496596011E+03  0.00000000000E+00 0. -1.
         21    1    1    2  503  502  0.33373628047E+02 -0.84678643537E+01 -0.38757993753E+02  0.51842895902E+02  0.00000000000E+00 0.  1.
         -4    1    1    2    0  503 -0.44709381244E+02 -0.40160534690E+02 -0.33628963916E+02  0.68867296534E+02  0.00000000000E+00 0.  1.
<scales pt_clust_5="13000.00000" pt_clust_6="13000.00000" pt_clust_7="13000.00000" pt_clust_8="13000.00000" pt_clust_9="34.43115" pt_clust_10="56.48949"></scales>
<clustering>
<clus scale="   34.431">  2  9  1 -1</clus>
<clus scale="   56.489">  2 10  1 -1</clus>
<clus scale="   79.031">  5  6 -1 -1</clus>
<clus scale="   90.817">  7  8 -1 -1</clus>
<clus scale="   98.172">  1  5  2 -1</clus>
<clus scale="   34.431">  2  5  1 -1</clus>
</clustering>
</event>
<event>
10    4  0.7204077E-005  0.1118881E+03  0.7546771E-02  0.1260303E+00
         21   -1    0    0  501  502  0.00000000000E+00  0.00000000000E+00  0.10110618747E+03  0.10110618747E+03  0.00000000000E+00 0.  1.
          2   -1    0    0  503    0 -0.00000000000E+00 -0.00000000000E+00 -0.45217827201E+03  0.45217827201E+03  0.00000000000E+00 0. -1.
         24    2    1    2    0    0 -0.69179566401E+02  0.39544867374E+02 -0.21412033240E+03  0.24224339221E+03  0.80527854690E+02 0.  0.
         23    2    1    2    0    0  0.22620343330E+02 -0.21134403389E+02 -0.88447484886E+01  0.94866538593E+02  0.89236134104E+02 0.  0.
        -13    1    3    3    0    0 -0.46105845831E+02  0.63535506648E+02 -0.13120395385E+03  0.15289534699E+03  0.00000000000E+00 0.  1.
         14    1    3    3    0    0 -0.23073720571E+02 -0.23990639274E+02 -0.82916378547E+02  0.89348045223E+02  0.00000000000E+00 0. -1.
        -13    1    4    4    0    0  0.37260809053E+02 -0.54785952226E+01 -0.41349893162E+02  0.55930283044E+02  0.00000000000E+00 0. -1.
         13    1    4    4    0    0 -0.14640465723E+02 -0.15655808166E+02  0.32505144673E+02  0.38936255549E+02  0.00000000000E+00 0.  1.
         21    1    1    2  503  502  0.67194780810E+02  0.22287368230E+02  0.92873214435E+01  0.71401118271E+02  0.00000000000E+00 0.  1.
          1    1    1    2  501    0 -0.20635557739E+02 -0.40697832215E+02 -0.13739432510E+03  0.14477341041E+03  0.00000000000E+00 0. -1.
<scales pt_clust_5="13000.00000" pt_clust_6="13000.00000" pt_clust_7="13000.00000" pt_clust_8="13000.00000" pt_clust_9="58.89984" pt_clust_10="45.63049"></scales>
<clustering>
<clus scale="   45.630">  1 10  2 -1</clus>
<clus scale="   58.900">  1  9  2 -1</clus>
<clus scale="   80.528">  5  6 -1 -1</clus>
<clus scale="   89.236">  7  8 -1 -1</clus>
<clus scale="  105.074">  2  5  1 -1</clus>
<clus scale="   45.630">  1  5  2 -1</clus>
</clustering>
</event>
<event>
10    4  0.7204077E-005  0.1479391E+03  0.7546771E-02  0.1213884E+00
          2   -1    0    0  502    0 -0.00000000000E+00  0.00000000000E+00  0.13461771322E+04  0.13461771322E+04  0.00000000000E+00 0. -1.
         21   -1    0    0  503  502  0.00000000000E+00 -0.00000000000E+00 -0.70457273400E+02  0.70457273400E+02  0.00000000000E+00 0. -1.
         23    2    1    2    0    0  0.23190107978E+02  0.73166610170E+02  0.43355905767E+03  0.44894802933E+03  0.87691177440E+02 0.  0.
         24    2    1    2    0    0 -0.55325277492E+02  0.89721911240E+02  0.34484140170E+03  0.37098156199E+03  0.87182677882E+02 0.  0.
        -13    1    4    4    0    0 -0.23533015596E+02 -0.22676710405E+01  0.17327612429E+02  0.29311965261E+02  0.00000000000E+00 0.  1.
         14    1    4    4    0    0 -0.31792261896E+02  0.91989582280E+02  0.32751378928E+03  0.34166959673E+03  0.00000000000E+00 0. -1.
        -13    1    3    3    0    0  0.51467109190E+02  0.64427914630E+02  0.36626827719E+03  0.37543610693E+03  0.00000000000E+00 0. -1.
         13    1    3    3    0    0 -0.28277001212E+02  0.87386955403E+01  0.67290780479E+02  0.73511922399E+02  0.00000000000E+00 0.  1.
         21    1    1    2  503  501  0.26768393919E+02 -0.48396931966E+01 -0.33313365981E+02  0.43008718839E+02  0.00000000000E+00 0. -1.
          1    1    1    2  501    0  0.53667755959E+01 -0.15804882821E+03  0.53063276540E+03  0.55369609543E+03  0.00000000000E+00 0. -1.
<scales pt_clust_5="13000.00000" pt_clust_6="13000.00000" pt_clust_7="13000.00000" pt_clust_8="13000.00000" pt_clust_9="27.20238" pt_clust_10="119.52057"></scales>
<clustering>
<clus scale="   27.202">  2  9  1 -1</clus>
<clus scale="   87.183">  5  6 -1 -1</clus>
<clus scale="   87.691">  7  8 -1 -1</clus>
<clus scale="  117.260">  1  7  2 -1</clus>
<clus scale="  119.521">  2 10  1 -1</clus>
<clus scale="   27.202">  2  5  1 -1</clus>
</clustering>
</event>
<event>
10    4  0.7204077E-005  0.1483971E+03  0.7546771E-02  0.1213039E+00
          2   -1    0    0  503    0 -0.00000000000E+00  0.00000000000E+00  0.11510569571E+04  0.11510569571E+04  0.00000000000E+00 0. -1.
         21   -1    0    0  501  502  0.00000000000E+00 -0.00000000000E+00 -0.26505490652E+03  0.26505490652E+03  0.00000000000E+00 0. -1.
         24    2    1    2    0    0  0.87281336312E+02  0.28382022220E+01  0.80631159240E+02  0.14834072477E+03  0.88755279989E+02 0.  0.
         23    2    1    2    0    0  0.83785064137E+02 -0.83570646672E+02  0.16239299227E+03  0.22192489054E+03  0.94208190435E+02 0.  0.
        -11    1    3    3    0    0  0.35340087730E+02  0.26631899725E+02 -0.59077848091E+01  0.44643944775E+02  0.00000000000E+00 0.  1.
         12    1    3    3    0    0  0.51941248582E+02 -0.23793697503E+02  0.86538944049E+02  0.10369678000E+03  0.00000000000E+00 0. -1.
        -11    1    4    4    0    0  0.34498273121E+01 -0.24187528384E+02  0.10266243977E+03  0.10552968482E+03  0.00000000000E+00 0.  1.
         11    1    4    4    0    0  0.80335236825E+02 -0.59383118288E+02  0.59730552496E+02  0.11639520572E+03  0.00000000000E+00 0. -1.
         21    1    1    2  503  502 -0.21052417476E+02  0.18710812007E+02 -0.19259887203E+03  0.19464743583E+03  0.00000000000E+00 0. -1.
          1    1    1    2  501    0 -0.15001398297E+03  0.62021632443E+02  0.83557677111E+03  0.85119881249E+03  0.00000000000E+00 0. -1.
<scales pt_clust_5="13000.00000" pt_clust_6="13000.00000" pt_clust_7="13000.00000" pt_clust_8="13000.00000" pt_clust_9="28.16556" pt_clust_10="114.65829"></scales>
<clustering>
<clus scale="   28.166">  2  9  1 -1</clus>
<clus scale="   88.755">  5  6 -1 -1</clus>
<clus scale="   94.208">  7  8 -1 -1</clus>
<clus scale="  118.281">  1  5  2 -1</clus>
<clus scale="  114.658">  2 10  1 -1</clus>
<clus scale="   28.166">  2  5  1 -1</clus>
</clustering>
</event>
<event>
10    4  0.7204077E-005  0.3458469E+03  0.7546771E-02  0.1065114E+00
         21   -1    0    0  501  502  0.00000000000E+00  0.00000000000E+00  0.17170499402E+03  0.17170499402E+03  0.00000000000E+00 0. -1.
          2   -1    0    0  503    0 -0.00000000000E+00 -0.00000000000E+00 -0.14730570832E+04  0.14730570832E+04  0.00000000000E+00 0. -1.
         23    2    1    2    0    0  0.33378175480E+03  0.81433395110E+02 -0.11378948279E+04  0.11934386839E+04  0.10700278129E+03 0.  0.
         24    2    1    2    0    0 -0.24958452993E+03 -0.13037065445E+03 -0.10766144966E+03  0.31186465942E+03  0.79872604368E+02 0.  0.
        -13    1    4    4    0    0 -0.11937510914E+03 -0.43614396854E+02 -0.87054281562E+02  0.15404895401E+03  0.00000000000E+00 0.  1.
         14    1    4    4    0    0 -0.13020942079E+03 -0.86756257597E+02 -0.20607168102E+02  0.15781570541E+03  0.00000000000E+00 0. -1.
        -13    1    3    3    0    0  0.29304940320E+03  0.10657017404E+03 -0.99816755186E+03  0.10457407022E+04  0.00000000000E+00 0. -1.
         13    1    3    3    0    0  0.40732351596E+02 -0.25136778930E+02 -0.13972727601E+03  0.14769798164E+03  0.00000000000E+00 0.  1.
         21    1    1    2  503  502 -0.24681325633E+02  0.29928384646E+02  0.18001341114E+02  0.42765924805E+02  0.00000000000E+00 0. -1.
          1    1    1    2  501    0 -0.59515899232E+02  0.19008874695E+02 -0.73797152753E+02  0.96692809107E+02  0.00000000000E+00 0. -1.
<scales pt_clust_5="13000.00000" pt_clust_6="13000.00000" pt_clust_7="13000.00000" pt_clust_8="13000.00000" pt_clust_9="38.79273" pt_clust_10="65.14221"></scales>
<clustering>
<clus scale="   38.793">  1  9  2 -1</clus>
<clus scale="   65.142">  1 10  2 -1</clus>
<clus scale="   79.873">  5  6 -1 -1</clus>
<clus scale="  107.003">  7  8 -1 -1</clus>
<clus scale="  338.438">  1  5  2 -1</clus>
<clus scale="   38.793">  1  5  2 -1</clus>
</clustering>
</event>
<event>
10    4  0.7204077E-005  0.2094123E+03  0.7546771E-02  0.1143446E+00
         21   -1    0    0  501  502  0.00000000000E+00  0.00000000000E+00  0.16728233992E+03  0.16728233992E+03  0.00000000000E+00 0. -1.
          2   -1    0    0  503    0 -0.00000000000E+00 -0.00000000000E+00 -0.16820538442E+04  0.16820538442E+04  0.00000000000E+00 0. -1.
         24    2    1    2    0    0 -0.70000767584E+02  0.24183367797E+03 -0.11909715616E+04  0.12193657148E+04  0.71104504291E+02 0.  0.
         23    2    1    2    0    0  0.30521673453E+02 -0.94908714922E+02 -0.19748318362E+03  0.23848058676E+03  0.89073821781E+02 0.  0.
        -11    1    3    3    0    0  0.35943054756E+01  0.19897985557E+02 -0.39284112657E+02  0.44182466753E+02  0.00000000000E+00 0.  1.
         12    1    3    3    0    0 -0.73595073060E+02  0.22193569241E+03 -0.11516874490E+04  0.11751832480E+04  0.00000000000E+00 0. -1.
        -13    1    4    4    0    0  0.60881572462E+02 -0.61850709854E+02 -0.10961375969E+03  0.13981148911E+03  0.00000000000E+00 0.  1.
         13    1    4    4    0    0 -0.30359899009E+02 -0.33058005068E+02 -0.87869423937E+02  0.98669097644E+02  0.00000000000E+00 0. -1.
         21    1    1    2  503  502 -0.22513803981E+01 -0.43213049526E+02  0.11644459575E+03  0.12422471671E+03  0.00000000000E+00 0. -1.
          1    1    1    2  501    0  0.41730474529E+02 -0.10371191352E+03 -0.24276135483E+03  0.26726516591E+03  0.00000000000E+00 0. -1.
<scales pt_clust_5="13000.00000" pt_clust_6="13000.00000" pt_clust_7="13000.00000" pt_clust_8="13000.00000" pt_clust_9="43.27166" pt_clust_10="122.12803"></scales>
<clustering>
<clus scale="   43.272">  1  9  2 -1</clus>
<clus scale="   71.105">  5  6 -1 -1</clus>
<clus scale="   89.074">  7  8 -1 -1</clus>
<clus scale="  122.128">  1 10  2 -1</clus>
<clus scale="  202.423">  2  5  1 -1</clus>
<clus scale="   43.272">  1  5  2 -1</clus>
</clustering>
</event>
<event>
10    4  0.7204077E-005  0.1251884E+03  0.7546771E-02  0.1243498E+00
         21   -1    0    0  503  502  0.00000000000E+00  0.00000000000E+00  0.12367096402E+03  0.12367096402E+03  0.00000000000E+00 0.  1.
         -1   -1    0    0    0  501 -0.00000000000E+00 -0.00000000000E+00 -0.47230224899E+03  0.47230224899E+03  0.00000000000E+00 0.  1.
         24    2    1    2    0    0 -0.25215573484E+02  0.62935731636E+02 -0.24447543912E+03  0.26613695791E+03  0.80398436354E+02 0.  0.
         23    2    1    2    0    0 -0.35803400818E+02  0.21268786516E+02  0.26598447268E+02  0.10783083002E+03  0.95842400402E+02 0.  0.
        -11    1    3    3    0    0 -0.29487954085E+02  0.80996920546E+02 -0.19153110586E+03  0.21003381891E+03  0.00000000000E+00 0.  1.
         12    1    3    3    0    0  0.42723806014E+01 -0.18061188910E+02 -0.52944333266E+02  0.56103139001E+02  0.00000000000E+00 0. -1.
        -11    1    4    4    0    0  0.28627055831E+02  0.29038892715E+00  0.28016322132E+02  0.40056297346E+02  0.00000000000E+00 0. -1.
         11    1    4    4    0    0 -0.64430456649E+02  0.20978397589E+02 -0.14178748641E+01  0.67774532670E+02  0.00000000000E+00 0.  1.
         21    1    1    2  503  501 -0.44812050125E+02 -0.25469816841E+02 -0.13044366933E+02  0.53169417103E+02  0.00000000000E+00 0.  1.
         -2    1    1    2    0  502  0.10583102443E+03 -0.58734701311E+02 -0.11770992618E+03  0.16883600798E+03  0.00000000000E+00 0.  1.
<scales pt_clust_5="13000.00000" pt_clust_6="13000.00000" pt_clust_7="13000.00000" pt_clust_8="13000.00000" pt_clust_9="51.54446" pt_clust_10="80.53811"></scales>
<clustering>
<clus scale="   51.544">  1  9  2 -1</clus>
<clus scale="   80.398">  5  6 -1 -1</clus>
<clus scale="   95.842">  7  8 -1 -1</clus>
<clus scale="  104.837">  2  5  1 -1</clus>
<clus scale="   80.538">  1 10  2 -1</clus>
<clus scale="   51.544">  1  5  2 -1</clus>
</clustering>
</event>
<event>
10    4  0.7204077E-005  0.9797844E+02  0.7546771E-02  0.1288439E+00
         21   -1    0    0  501  502  0.00000000000E+00  0.00000000000E+00  0.13326749648E+03  0.13326749648E+03  0.00000000000E+00 0. -1.
          4   -1    0    0  503    0 -0.00000000000E+00 -0.00000000000E+00 -0.24204995695E+03  0.24204995695E+03  0.00000000000E+00 0. -1.
         24    2    1    2    0    0  0.30887101264E+02 -0.63987481902E+01 -0.69700583770E+02  0.11332508765E+03  0.83602913288E+02 0.  0.
         23    2    1    2    0    0 -0.46391757094E+02 -0.62119201346E+02  0.11889064864E+02  0.12013594038E+03  0.90996175775E+02 0.  0.
        -13    1    3    3    0    0 -0.31239481788E+01  0.35066941409E+02 -0.21734171942E+02  0.41374190771E+02  0.00000000000E+00 0.  1.
         14    1    3    3    0    0  0.34011049443E+02 -0.41465689599E+02 -0.47966411828E+02  0.71950896880E+02  0.00000000000E+00 0. -1.
        -11    1    4    4    0    0 -0.21896462796E+02  0.19038077079E+02  0.19596030112E+02  0.35012966998E+02  0.00000000000E+00 0.  1.
         11    1    4    4    0    0 -0.24495294297E+02 -0.81157278425E+02 -0.77069652473E+01  0.85122973382E+02  0.00000000000E+00 0. -1.
         21    1    1    2  503  502 -0.25897381102E+02  0.43291077462E+02  0.21358627880E+02  0.54781225988E+02  0.00000000000E+00 0.  1.
          3    1    1    2  501    0  0.41402036932E+02  0.25226872074E+02 -0.72329569446E+02  0.87075199414E+02  0.00000000000E+00 0. -1.
<scales pt_clust_5="13000.00000" pt_clust_6="13000.00000" pt_clust_7="13000.00000" pt_clust_8="13000.00000" pt_clust_9="52.64753" pt_clust_10="48.48222"></scales>
<clustering>
<clus scale="   48.482">  1 10  2 -1</clus>
<clus scale="   52.648">  1  9  2 -1</clus>
<clus scale="   83.603">  5  6 -1 -1</clus>
<clus scale="   90.996">  7  8 -1 -1</clus>
<clus scale="   91.153">  2  5  1 -1</clus>
<clus scale="   48.482">  1  5  2 -1</clus>
</clustering>
</event>
<event>
10    4  0.7204077E-005  0.2143029E+03  0.7546771E-02  0.1139105E+00
         21   -1    0    0  501  502  0.00000000000E+00  0.00000000000E+00  0.17631864638E+03  0.17631864638E+03  0.00000000000E+00 0. -1.
          2   -1    0    0  503    0 -0.00000000000E+00 -0.00000000000E+00 -0.49191999639E+03  0.49191999639E+03  0.00000000000E+00 0. -1.
         24    2    1    2    0    0  0.20163301313E+03 -0.20511205081E+02 -0.23925085220E+03  0.32327180804E+03  0.78658185067E+02 0.  0.
         23    2    1    2    0    0 -0.17535552689E+03  0.44997314202E+02 -0.63600535620E+02  0.21205388645E+03  0.90263522706E+02 0.  0.
        -13    1    3    3    0    0  0.81448604389E+02  0.50675166739E+01 -0.15215876541E+03  0.17266106907E+03  0.00000000000E+00 0.  1.
         14    1    3    3    0    0  0.12018440874E+03 -0.25578721755E+02 -0.87092086791E+02  0.15061073897E+03  0.00000000000E+00 0. -1.
        -13    1    4    4    0    0 -0.15906265481E+03  0.67325045583E+02 -0.44215796240E+02  0.17829365259E+03  0.00000000000E+00 0. -1.
         13    1    4    4    0    0 -0.16292872078E+02 -0.22327731380E+02 -0.19384739381E+02  0.33760233856E+02  0.00000000000E+00 0.  1.
         21    1    1    2  503  502 -0.46057085912E+02  0.74136711272E+01  0.44490229923E+02  0.64463929765E+02  0.00000000000E+00 0. -1.
          1    1    1    2  501    0  0.19779599664E+02 -0.31899780249E+02 -0.57240192115E+02  0.68449018518E+02  0.00000000000E+00 0. -1.
<scales pt_clust_5="13000.00000" pt_clust_6="13000.00000" pt_clust_7="13000.00000" pt_clust_8="13000.00000" pt_clust_9="39.84129" pt_clust_10="37.53438"></scales>
<clustering>
<clus scale="   37.534">  1 10  2 -1</clus>
<clus scale="   39.841">  1  9  2 -1</clus>
<clus scale="   78.658">  5  6 -1 -1</clus>
<clus scale="   90.264">  7  8 -1 -1</clus>
<clus scale="  209.679">  2  5  1 -1</clus>
<clus scale="   37.534">  1  5  2 -1</clus>
</clustering>
</event>
<event>
10    4  0.7204077E-005  0.1568184E+03  0.7546771E-02  0.1195863E+00
          2   -1    0    0  503    0 -0.00000000000E+00  0.00000000000E+00  0.11005217668E+04  0.11005217668E+04  0.00000000000E+00 0. -1.
         21   -1    0    0  501  502  0.00000000000E+00 -0.00000000000E+00 -0.88857394274E+02  0.88857394274E+02  0.00000000000E+00 0.  1.
         24    2    1    2    0    0  0.12451077074E+02  0.10921713373E+03  0.83016371162E+03  0.84465224367E+03  0.11037306293E+03 0.  0.
         23    2    1    2    0    0 -0.43749537357E+02 -0.11288085670E+03  0.15082399226E+03  0.21461617926E+03  0.93038260578E+02 0.  0.
        -13    1    3    3    0    0 -0.19723111518E+02  0.84041877454E+02  0.28075529588E+03  0.29372704074E+03  0.00000000000E+00 0.  1.
         14    1    3    3    0    0  0.32174188593E+02  0.25175256278E+02  0.54940841574E+03  0.55092520293E+03  0.00000000000E+00 0. -1.
        -11    1    4    4    0    0 -0.12726049514E+02 -0.78521504642E+02  0.29635976691E+02  0.84887396838E+02  0.00000000000E+00 0.  1.
         11    1    4    4    0    0 -0.31023487843E+02 -0.34359352058E+02  0.12118801557E+03  0.12972878242E+03  0.00000000000E+00 0. -1.
         21    1    1    2  503  502  0.48900429489E+02 -0.93835504886E+01 -0.35008368155E+02  0.60867798258E+02  0.00000000000E+00 0.  1.
          1    1    1    2  501    0 -0.17601969207E+02  0.13047273456E+02  0.65685036792E+02  0.69242939878E+02  0.00000000000E+00 0. -1.
<scales pt_clust_5="13000.00000" pt_clust_6="13000.00000" pt_clust_7="13000.00000" pt_clust_8="13000.00000" pt_clust_9="39.27198" pt_clust_10="21.91030"></scales>
<clustering>
<clus scale="   21.910">  2 10  1 -1</clus>
<clus scale="   39.272">  2  9  1 -1</clus>
<clus scale="   93.038">  7  8 -1 -1</clus>
<clus scale="  110.373">  5  6 -1 -1</clus>
<clus scale="  145.141">  2  7  1 -1</clus>
<clus scale="   21.910">  2  5  1 -1</clus>
</clustering>
</event>
<event>
10    4  0.7204077E-005  0.9671810E+02  0.7546771E-02  0.1291341E+00
         21   -1    0    0  501  502  0.00000000000E+00  0.00000000000E+00  0.15421784548E+03  0.15421784548E+03  0.00000000000E+00 0.  1.
          2   -1    0    0  503    0 -0.00000000000E+00 -0.00000000000E+00 -0.59260850441E+03  0.59260850441E+03  0.00000000000E+00 0. -1.
         24    2    1    2    0    0  0.24088598769E+02  0.33345538399E+02 -0.39313823117E+03  0.40375511450E+03  0.82269910396E+02 0.  0.
         23    2    1    2    0    0 -0.32761334382E+02 -0.15985343738E+01 -0.16625261161E+03  0.19179060226E+03  0.89821177384E+02 0.  0.
        -11    1    3    3    0    0  0.44792327604E+02 -0.62972923506E+01 -0.23975694779E+03  0.24398648020E+03  0.00000000000E+00 0.  1.
         12    1    3    3    0    0 -0.20703728835E+02  0.39642830749E+02 -0.15338128337E+03  0.15976863430E+03  0.00000000000E+00 0. -1.
        -11    1    4    4    0    0  0.25750887752E+02 -0.12211041446E+02 -0.22788894499E+02  0.36490429782E+02  0.00000000000E+00 0.  1.
         11    1    4    4    0    0 -0.58512222133E+02  0.10612507072E+02 -0.14346371711E+03  0.15530017248E+03  0.00000000000E+00 0. -1.
         21    1    1    2  503  502  0.17927504779E+02 -0.58958948842E+02  0.75420143747E+02  0.97394821007E+02  0.00000000000E+00 0.  1.
          1    1    1    2  501    0 -0.92547691671E+01  0.27211944817E+02  0.45580040100E+02  0.53885812126E+02  0.00000000000E+00 0. -1.
<scales pt_clust_5="13000.00000" pt_clust_6="13000.00000" pt_clust_7="13000.00000" pt_clust_8="13000.00000" pt_clust_9="37.87514" pt_clust_10="28.74266"></scales>
<clustering>
<clus scale="   28.743">  1 10  2 -1</clus>
<clus scale="   37.875">  1  9  2 -1</clus>
<clus scale="   82.270">  5  6 -1 -1</clus>
<clus scale="   89.749">  2  5  1 -1</clus>
<clus scale="   89.821">  7  8 -1 -1</clus>
<clus scale="   28.743">  1  5  2 -1</clus>
</clustering>
</event>
<event>
10    4  0.7204077E-005  0.3227744E+03  0.7546771E-02  0.1104108E+00
         -3   -1    0    0    0  501 -0.00000000000E+00  0.00000000000E+00  0.77012240281E+03  0.77012240281E+03  0.00000000000E+00 0.  1.
         21   -1    0    0  503  502  0.00000000000E+00 -0.00000000000E+00 -0.52609430021E+03  0.52609430021E+03  0.00000000000E+00 0.  1.
         24    2    1    2    0    0  0.11654242594E+03 -0.40897007299E+02  0.51563860413E+03  0.53621380839E+03  0.79921061012E+02 0.  0.
         23    2    1    2    0    0 -0.20711753292E+03 -0.24270077384E+03 -0.49222439352E+02  0.33549969560E+03  0.91300926321E+02 0.  0.
        -11    1    3    3    0    0  0.57761407586E+02 -0.38982820772E+02  0.40464468989E+03  0.41060122452E+03  0.00000000000E+00 0.  1.
         12    1    3    3    0    0  0.58781018358E+02 -0.19141865265E+01  0.11099391424E+03  0.12561258387E+03  0.00000000000E+00 0. -1.
        -13    1    4    4    0    0 -0.19489694873E+03 -0.22166913718E+03 -0.17715339797E+02  0.29569555334E+03  0.00000000000E+00 0.  1.
         13    1    4    4    0    0 -0.12220584192E+02 -0.21031636656E+02 -0.31507099555E+02  0.39804142257E+02  0.00000000000E+00 0. -1.
         21    1    1    2  503  501 -0.17160385950E+02 -0.15897359356E+02 -0.65703842221E+02  0.69743815232E+02  0.00000000000E+00 0.  1.
         -4    1    1    2    0  502  0.10773549293E+03  0.29949514049E+03 -0.15668421995E+03  0.35475938380E+03  0.00000000000E+00 0.  1.
<scales pt_clust_5="13000.00000" pt_clust_6="13000.00000" pt_clust_7="13000.00000" pt_clust_8="13000.00000" pt_clust_9="23.39241" pt_clust_10="309.59238"></scales>
<clustering>
<clus scale="   23.392">  2  9  1 -1</clus>
<clus scale="   79.921">  5  6 -1 -1</clus>
<clus scale="   91.301">  7  8 -1 -1</clus>
<clus scale="  146.907">  1  5  2 -1</clus>
<clus scale="  309.592">  2 10  1 -1</clus>
<clus scale="   23.392">  2  5  1 -1</clus>
</clustering>
</event>
<event>
10    4  0.7204077E-005  0.1491589E+03  0.7546771E-02  0.1204439E+00
         21   -1    0    0  503  502  0.00000000000E+00  0.00000000000E+00  0.15108430147E+03  0.15108430147E+03  0.00000000000E+00 0.  1.
          2   -1    0    0  502    0 -0.00000000000E+00 -0.00000000000E+00 -0.50804685710E+03  0.50804685710E+03  0.00000000000E+00 0. -1.
         23    2    1    2    0    0 -0.37764631145E+02 -0.12878071896E+03 -0.35799783381E+03  0.39336487748E+03  0.92535597889E+02 0.  0.
         24    2    1    2    0    0 -0.17178374591E+02  0.73181924230E+02 -0.47823224212E+01  0.10766492477E+03  0.76929674578E+02 0.  0.
        -13    1    4    4    0    0 -0.56664266489E+01  0.88305679793E+02 -0.25096468085E+01  0.88522877279E+02  0.00000000000E+00 0.  1.
         14    1    4    4    0    0 -0.11511947943E+02 -0.15123755563E+02 -0.22726756127E+01  0.19142047492E+02  0.00000000000E+00 0. -1.
        -13    1    3    3    0    0 -0.63076956880E+02 -0.76699604384E+02 -0.17253760496E+03  0.19907475211E+03  0.00000000000E+00 0. -1.
         13    1    3    3    0    0  0.25312325735E+02 -0.52081114576E+02 -0.18546022885E+03  0.19429012537E+03  0.00000000000E+00 0.  1.
         21    1    1    2  503  501 -0.51370291934E+01  0.30055247466E+02  0.63847160787E+02  0.70754271318E+02  0.00000000000E+00 0.  1.
          1    1    1    2  501    0  0.60080034930E+02  0.25543547264E+02 -0.58029560183E+02  0.87347085006E+02  0.00000000000E+00 0. -1.
<scales pt_clust_5="13000.00000" pt_clust_6="13000.00000" pt_clust_7="13000.00000" pt_clust_8="13000.00000" pt_clust_9="30.49110" pt_clust_10="66.71720"></scales>
<clustering>
<clus scale="   30.491">  1  9  2 -1</clus>
<clus scale="   66.717">  1 10  2 -1</clus>
<clus scale="   76.930">  5  6 -1 -1</clus>
<clus scale="   92.536">  7  8 -1 -1</clus>
<clus scale="  140.013">  1  5  2 -1</clus>
<clus scale="   30.491">  1  5  2 -1</clus>
</clustering>
</event>
<event>
10    4  0.7204077E-005  0.2040699E+03  0.7546771E-02  0.1175648E+00
         21   -1    0    0  501  502  0.00000000000E+00  0.00000000000E+00  0.15640139669E+03  0.15640139669E+03  0.00000000000E+00 0. -1.
          2   -1    0    0  503    0 -0.00000000000E+00 -0.00000000000E+00 -0.10088750718E+04  0.10088750718E+04  0.00000000000E+00 0. -1.
         23    2    1    2    0    0  0.14654714629E+03  0.13110006660E+03 -0.75783630177E+03  0.78811107556E+03  0.90221469651E+02 0.  0.
         24    2    1    2    0    0 -0.51079793332E+02 -0.22365669568E+02 -0.79840282410E+02  0.12679844489E+03  0.81203488035E+02 0.  0.
        -13    1    4    4    0    0 -0.50822271851E+02 -0.36804856584E+02 -0.20936401738E+02  0.66150084671E+02  0.00000000000E+00 0.  1.
         14    1    4    4    0    0 -0.25752148132E+00  0.14439187016E+02 -0.58903880672E+02  0.60648360219E+02  0.00000000000E+00 0. -1.
        -13    1    3    3    0    0  0.73143675017E+02  0.11346846343E+02 -0.31264895597E+03  0.32129132853E+03  0.00000000000E+00 0.  1.
         13    1    3    3    0    0  0.73403471275E+02  0.11975322026E+03 -0.44518734580E+03  0.46681974703E+03  0.00000000000E+00 0. -1.
         21    1    1    2  503  502 -0.66368425614E+02 -0.53176608761E+02  0.92769528220E+02  0.12585191697E+03  0.00000000000E+00 0. -1.
          1    1    1    2  501    0 -0.29098927346E+02 -0.55557788273E+02 -0.10756661918E+03  0.12451503111E+03  0.00000000000E+00 0. -1.
<scales pt_clust_5="13000.00000" pt_clust_6="13000.00000" pt_clust_7="13000.00000" pt_clust_8="13000.00000" pt_clust_9="183.04260" pt_clust_10="62.71698"></scales>
<clustering>
<clus scale="   62.717">  1 10  2 -1</clus>
<clus scale="   81.203">  5  6 -1 -1</clus>
<clus scale="   90.221">  7  8 -1 -1</clus>
<clus scale="  103.290">  1  5  2 -1</clus>
<clus scale="  183.043">  1  9  2 -1</clus>
<clus scale="   62.717">  1  5  2 -1</clus>
</clustering>
</event>
<event>
10    4  0.7204077E-005  0.2492329E+03  0.7546771E-02  0.1141395E+00
          2   -1    0    0  503    0 -0.00000000000E+00  0.00000000000E+00  0.15420714619E+03  0.15420714619E+03  0.00000000000E+00 0. -1.
         21   -1    0    0  501  502  0.00000000000E+00 -0.00000000000E+00 -0.10097001917E+04  0.10097001917E+04  0.00000000000E+00 0. -1.
         24    2    1    2    0    0 -0.93385754550E+01 -0.10357612537E+03 -0.31091951586E+03  0.33729550233E+03  0.79259622850E+02 0.  0.
         23    2    1    2    0    0  0.96298491631E+02  0.22712160341E+03 -0.47069785517E+03  0.53899794999E+03  0.90026090678E+02 0.  0.
        -13    1    3    3    0    0 -0.37541249676E+02 -0.22984989416E+02 -0.83821609690E+02  0.94676910684E+02  0.00000000000E+00 0.  1.
         14    1    3    3    0    0  0.28202674221E+02 -0.80591135956E+02 -0.22709790617E+03  0.24261859165E+03  0.00000000000E+00 0. -1.
        -13    1    4    4    0    0  0.20646942808E+02  0.54775534049E+01 -0.13397141941E+02  0.25214742727E+02  0.00000000000E+00 0.  1.
         13    1    4    4    0    0  0.75651548823E+02  0.22164405000E+03 -0.45730071323E+03  0.51378320726E+03  0.00000000000E+00 0. -1.
         21    1    1    2  503  502 -0.31563526446E+02  0.64547041450E+02 -0.55275928932E+02  0.90653213296E+02  0.00000000000E+00 0.  1.
          1    1    1    2  501    0 -0.55396389730E+02 -0.18809251948E+03 -0.18599745518E+02  0.19696067225E+03  0.00000000000E+00 0. -1.
<scales pt_clust_5="13000.00000" pt_clust_6="13000.00000" pt_clust_7="13000.00000" pt_clust_8="13000.00000" pt_clust_9="71.85107" pt_clust_10="232.40565"></scales>
<clustering>
<clus scale="   71.851">  1  9  2 -1</clus>
<clus scale="   79.260">  5  6 -1 -1</clus>
<clus scale="   90.026">  7  8 -1 -1</clus>
<clus scale="  126.138">  1  5  2 -1</clus>
<clus scale="  232.406">  2 10  1 -1</clus>
<clus scale="  232.406">  2  5  1 -1</clus>
</clustering>
</event>
<event>
10    4  0.7204077E-005  0.2648364E+03  0.7546771E-02  0.1145131E+00
         21   -1    0    0  501  502  0.00000000000E+00  0.00000000000E+00  0.83238151039E+03  0.83238151039E+03  0.00000000000E+00 0.  1.
         -1   -1    0    0    0  501 -0.00000000000E+00 -0.00000000000E+00 -0.19854342495E+03  0.19854342495E+03  0.00000000000E+00 0.  1.
         23    2    1    2    0    0 -0.22569247363E+02  0.15572559691E+02  0.42851976560E+02  0.10524079719E+03  0.92127400679E+02 0.  0.
         24    2    1    2    0    0  0.11687797432E+03 -0.23832959225E+03  0.35208171177E+03  0.44781781927E+03  0.78216443742E+02 0.  0.
        -11    1    4    4    0    0  0.88609735320E+02 -0.21237576099E+03  0.25529869458E+03  0.34370419332E+03  0.00000000000E+00 0.  1.
         12    1    4    4    0    0  0.28268239002E+02 -0.25953831258E+02  0.96783017183E+02  0.10411362595E+03  0.00000000000E+00 0. -1.
        -11    1    3    3    0    0 -0.49376713191E+02 -0.18294484881E+02  0.27464587425E+02  0.59388985048E+02  0.00000000000E+00 0.  1.
         11    1    3    3    0    0  0.26807465828E+02  0.33867044572E+02  0.15387389135E+02  0.45851812140E+02  0.00000000000E+00 0. -1.
         21    1    1    2  503  502  0.94919455095E+02  0.71129696570E+02  0.19964924584E+03  0.23222609253E+03  0.00000000000E+00 0.  1.
         -2    1    1    2    0  503 -0.18922818205E+03  0.15162733599E+03  0.39255151268E+02  0.24564022635E+03  0.00000000000E+00 0.  1.
<scales pt_clust_5="13000.00000" pt_clust_6="13000.00000" pt_clust_7="13000.00000" pt_clust_8="13000.00000" pt_clust_9="117.79161" pt_clust_10="253.02285"></scales>
<clustering>
<clus scale="   78.216">  5  6 -1 -1</clus>
<clus scale="   92.127">  7  8 -1 -1</clus>
<clus scale="   96.121">  2  7  1 -1</clus>
<clus scale="  117.792">  1  9  2 -1</clus>
<clus scale="  253.023">  1 10  2 -1</clus>
<clus scale="  117.792">  1  5  2 -1</clus>
</clustering>
</event>
<event>
10    4  0.7204077E-005  0.9191833E+02  0.7546771E-02  0.1305383E+00
         21   -1    0    0  501  502  0.00000000000E+00  0.00000000000E+00  0.23342563803E+03  0.23342563803E+03  0.00000000000E+00 0. -1.
         -3   -1    0    0    0  501 -0.00000000000E+00 -0.00000000000E+00 -0.12639558702E+03  0.12639558702E+03  0.00000000000E+00 0.  1.
         24    2    1    2    0    0 -0.18106406488E+00 -0.94559822780E+01 -0.67790782827E+02  0.10518283174E+03  0.79864819988E+02 0.  0.
         23    2    1    2    0    0 -0.55854339569E+02  0.98935503260E+01  0.13049656514E+03  0.16902404878E+03  0.91226015842E+02 0.  0.
        -13    1    3    3    0    0 -0.67664139998E+01 -0.29960302127E+02 -0.76127079777E+02  0.82089806537E+02  0.00000000000E+00 0.  1.
         14    1    3    3    0    0  0.65853499349E+01  0.20504319849E+02  0.83362969501E+01  0.23093025204E+02  0.00000000000E+00 0. -1.
        -11    1    4    4    0    0 -0.13961659249E+02 -0.38155974572E+02  0.32091818027E+02  0.51775390958E+02  0.00000000000E+00 0.  1.
         11    1    4    4    0    0 -0.41892680320E+02  0.48049524898E+02  0.98404747111E+02  0.11724865782E+03  0.00000000000E+00 0. -1.
         21    1    1    2  503  502  0.18116080774E+02 -0.16965001426E+02  0.35505278048E+02  0.43320069544E+02  0.00000000000E+00 0.  1.
         -4    1    1    2    0  503  0.37919322860E+02  0.16527433378E+02  0.88189906593E+01  0.42294274985E+02  0.00000000000E+00 0.  1.
<scales pt_clust_5="13000.00000" pt_clust_6="13000.00000" pt_clust_7="13000.00000" pt_clust_8="13000.00000" pt_clust_9="24.81942" pt_clust_10="42.76484"></scales>
<clustering>
<clus scale="   24.819">  1  9  2 -1</clus>
<clus scale="   42.765">  1 10  2 -1</clus>
<clus scale="   79.865">  5  6 -1 -1</clus>
<clus scale="   80.655">  2  5  1 -1</clus>
<clus scale="   91.226">  7  8 -1 -1</clus>
<clus scale="   24.819">  1  5  2 -1</clus>
</clustering>
</event>
<event>
10    4  0.7204077E-005  0.1468760E+03  0.7546771E-02  0.1207008E+00
         21   -1    0    0  501  502  0.00000000000E+00  0.00000000000E+00  0.22277078197E+02  0.22277078197E+02  0.00000000000E+00 0. -1.
          2   -1    0    0  503    0 -0.00000000000E+00 -0.00000000000E+00 -0.33439568335E+04  0.33439568335E+04  0.00000000000E+00 0. -1.
         24    2    1    2    0    0  0.77761539362E+02  0.37671620263E+02 -0.10153531684E+04  0.10221674147E+04  0.80113413876E+02 0.  0.
         23    2    1    2    0    0  0.21745663544E+02 -0.11682898629E+03 -0.51733603833E+03  0.53848124915E+03  0.90573689367E+02 0.  0.
        -13    1    3    3    0    0  0.27455385497E+02  0.25527718447E+02 -0.12985703452E+03  0.13516031968E+03  0.00000000000E+00 0.  1.
         14    1    3    3    0    0  0.50306153865E+02  0.12143901815E+02 -0.88549613385E+03  0.88700709498E+03  0.00000000000E+00 0. -1.
        -11    1    4    4    0    0 -0.35122666404E+02 -0.33730890978E+02 -0.16393361663E+03  0.17101346544E+03  0.00000000000E+00 0.  1.
         11    1    4    4    0    0  0.56868329948E+02 -0.83098095309E+02 -0.35340242170E+03  0.36746778370E+03  0.00000000000E+00 0. -1.
         21    1    1    2  503  502  0.65038498026E+02  0.32457997282E+02 -0.58803548125E+03  0.59251097460E+03  0.00000000000E+00 0. -1.
          1    1    1    2  501    0 -0.16454570093E+03  0.46699368742E+02 -0.12009550674E+04  0.12130742733E+04  0.00000000000E+00 0. -1.
<scales pt_clust_5="13000.00000" pt_clust_6="13000.00000" pt_clust_7="13000.00000" pt_clust_8="13000.00000" pt_clust_9="72.68788" pt_clust_10="115.62436"></scales>
<clustering>
<clus scale="   72.688">  2  9  1 -1</clus>
<clus scale="   80.113">  5  6 -1 -1</clus>
<clus scale="   90.574">  7  8 -1 -1</clus>
<clus scale="  138.760">  2  5  1 -1</clus>
<clus scale="  115.624">  1 10  2 -1</clus>
<clus scale="  115.624">  1  5  2 -1</clus>
</clustering>
</event>
<event>
10    4  0.7204077E-005  0.2792491E+03  0.7546771E-02  0.1096100E+00
          4   -1    0    0  502    0 -0.00000000000E+00  0.00000000000E+00  0.20966564056E+03  0.20966564056E+03  0.00000000000E+00 0. -1.
         21   -1    0    0  503  502  0.00000000000E+00 -0.00000000000E+00 -0.33027824807E+03  0.33027824807E+03  0.00000000000E+00 0. -1.
         24    2    1    2    0    0 -0.97677801297E+02  0.61972930760E+02 -0.18723350410E+02  0.14213190982E+03  0.80432076463E+02 0.  0.
         23    2    1    2    0    0 -0.71247966082E+02  0.64336707038E+02  0.34486321277E+02  0.13756172665E+03  0.92295383100E+02 0.  0.
        -11    1    3    3    0    0 -0.78602932900E+02  0.11644062320E+02  0.11682235194E+02  0.80314879487E+02  0.00000000000E+00 0.  1.
         12    1    3    3    0    0 -0.19074868396E+02  0.50328868440E+02 -0.30405585604E+02  0.61817030329E+02  0.00000000000E+00 0. -1.
        -13    1    4    4    0    0 -0.89688611142E+02  0.55319156181E+02  0.10360564417E+02  0.10588483038E+03  0.00000000000E+00 0. -1.
         13    1    4    4    0    0  0.18440645060E+02  0.90175508569E+01  0.24125756860E+02  0.31676896277E+02  0.00000000000E+00 0.  1.
         21    1    1    2  503  501  0.46948219293E+01 -0.23555564795E+02 -0.32557378634E+02  0.40458483527E+02  0.00000000000E+00 0. -1.
          3    1    1    2  501    0  0.16423094545E+03 -0.10275407300E+03 -0.10381819974E+03  0.21979176863E+03  0.00000000000E+00 0. -1.
<scales pt_clust_5="13000.00000" pt_clust_6="13000.00000" pt_clust_7="13000.00000" pt_clust_8="13000.00000" pt_clust_9="23.98981" pt_clust_10="221.65716"></scales>
<clustering>
<clus scale="   23.990">  9 10 -1 -1</clus>
<clus scale="   80.432">  5  6 -1 -1</clus>
<clus scale="   92.295">  7  8 -1 -1</clus>
<clus scale="  107.152">  5  7 -1 -1</clus>
<clus scale="  221.657">  2  9  1 -1</clus>
<clus scale="  221.657">  2  5  1 -1</clus>
</clustering>
</event>
<event>
10    4  0.7204077E-005  0.2768699E+03  0.7546771E-02  0.1097411E+00
         21   -1    0    0  503  502  0.00000000000E+00  0.00000000000E+00  0.37337646418E+03  0.37337646418E+03  0.00000000000E+00 0.  1.
          2   -1    0    0  502    0 -0.00000000000E+00 -0.00000000000E+00 -0.28919263080E+03  0.28919263080E+03  0.00000000000E+00 0. -1.
         24    2    1    2    0    0 -0.12118105271E+03  0.10028723748E+03  0.29384272072E+02  0.17933826077E+03  0.80971592502E+02 0.  0.
         23    2    1    2    0    0 -0.13188874233E+02  0.10973282824E+02  0.12998921961E+02  0.89395023053E+02  0.86764847923E+02 0.  0.
        -13    1    3    3    0    0 -0.11427652921E+03  0.10005868767E+03  0.48150938291E+02  0.15934044987E+03  0.00000000000E+00 0.  1.
         14    1    3    3    0    0 -0.69045234971E+01  0.22854981622E+00 -0.18766666219E+02  0.19997810898E+02  0.00000000000E+00 0. -1.
        -11    1    4    4    0    0  0.36599006424E+02  0.12282550635E+02  0.69197711410E+01  0.39220295179E+02  0.00000000000E+00 0.  1.
         11    1    4    4    0    0 -0.49787880657E+02 -0.13092678104E+01  0.60791508197E+01  0.50174727874E+02  0.00000000000E+00 0. -1.
         21    1    1    2  503  501 -0.72867827143E+01  0.26756958105E+02  0.16069704349E+03  0.16307229009E+03  0.00000000000E+00 0.  1.
          1    1    1    2  501    0  0.14165670965E+03 -0.13801747841E+03 -0.11889640415E+03  0.23076352107E+03  0.00000000000E+00 0. -1.
<scales pt_clust_5="13000.00000" pt_clust_6="13000.00000" pt_clust_7="13000.00000" pt_clust_8="13000.00000" pt_clust_9="27.73143" pt_clust_10="191.49397"></scales>
<clustering>
<clus scale="   27.731">  1  9  2 -1</clus>
<clus scale="   80.972">  5  6 -1 -1</clus>
<clus scale="   86.765">  7  8 -1 -1</clus>
<clus scale="   88.252">  5  7 -1 -1</clus>
<clus scale="  191.494">  1 10  2 -1</clus>
<clus scale="   27.731">  1  5  2 -1</clus>
</clustering>
</event>
<event>
10    4  0.7204077E-005  0.2770218E+03  0.7546771E-02  0.1145790E+00
         21   -1    0    0  503  502  0.00000000000E+00  0.00000000000E+00  0.13892162564E+03  0.13892162564E+03  0.00000000000E+00 0.  1.
          2   -1    0    0  502    0 -0.00000000000E+00 -0.00000000000E+00 -0.16261739505E+04  0.16261739505E+04  0.00000000000E+00 0. -1.
         24    2    1    2    0    0  0.62372649766E+00 -0.26053272222E+02 -0.21359151778E+03  0.22903407279E+03  0.78460869239E+02 0.  0.
         23    2    1    2    0    0 -0.23438407724E+03 -0.16448158754E+03 -0.17708417205E+03  0.34862301340E+03  0.90493719010E+02 0.  0.
        -11    1    3    3    0    0  0.87885798317E+01 -0.36912042583E+02 -0.40829005895E+02  0.55738189292E+02  0.00000000000E+00 0.  1.
         12    1    3    3    0    0 -0.81648533340E+01  0.10858770362E+02 -0.17276251189E+03  0.17329588350E+03  0.00000000000E+00 0. -1.
        -11    1    4    4    0    0 -0.21841269993E+03 -0.12611732774E+03 -0.12352978343E+03  0.28083677687E+03  0.00000000000E+00 0.  1.
         11    1    4    4    0    0 -0.15971377308E+02 -0.38364259800E+02 -0.53554388618E+02  0.67786236534E+02  0.00000000000E+00 0. -1.
         21    1    1    2  503  501 -0.12506218488E+02  0.95039974872E+02 -0.50138473006E+02  0.10817979848E+03  0.00000000000E+00 0.  1.
          1    1    1    2  501    0  0.24626656923E+03  0.95494884894E+02 -0.10464381620E+04  0.10792586915E+04  0.00000000000E+00 0. -1.
<scales pt_clust_5="13000.00000" pt_clust_6="13000.00000" pt_clust_7="13000.00000" pt_clust_8="13000.00000" pt_clust_9="94.39936" pt_clust_10="261.82446"></scales>
<clustering>
<clus scale="   78.461">  5  6 -1 -1</clus>
<clus scale="   82.676">  2  5  1 -1</clus>
<clus scale="   90.494">  7  8 -1 -1</clus>
<clus scale="   94.399">  1  9  2 -1</clus>
<clus scale="  261.824">  1 10  2 -1</clus>
<clus scale="   94.399">  1  5  2 -1</clus>
</clustering>
</event>
<event>
10    4  0.7204077E-005  0.2304155E+03  0.7546771E-02  0.1163425E+00
         21   -1    0    0  501  502  0.00000000000E+00  0.00000000000E+00  0.12006524339E+04  0.12006524339E+04  0.00000000000E+00 0. -1.
          2   -1    0    0  503    0 -0.00000000000E+00 -0.00000000000E+00 -0.19942795219E+03  0.19942795219E+03  0.00000000000E+00 0. -1.
         23    2    1    2    0    0  0.16936036815E+02  0.76820759140E+01 -0.13755966304E+03  0.16716031377E+03  0.93134665773E+02 0.  0.
         24    2    1    2    0    0 -0.21590042204E+03 -0.31087115945E+02  0.54318652553E+03  0.59094886858E+03  0.81176121758E+02 0.  0.
        -11    1    4    4    0    0 -0.80403358266E+02  0.18292732822E+02  0.13677068225E+03  0.15970455103E+03  0.00000000000E+00 0.  1.
         12    1    4    4    0    0 -0.13549706377E+03 -0.49379848767E+02  0.40641584328E+03  0.43124431755E+03  0.00000000000E+00 0. -1.
        -13    1    3    3    0    0  0.17775905267E+02 -0.41827251862E+02 -0.66980676366E+02  0.80943886815E+02  0.00000000000E+00 0. -1.
         13    1    3    3    0    0 -0.83986845175E+00  0.49509327776E+02 -0.70578986677E+02  0.86216426951E+02  0.00000000000E+00 0.  1.
         21    1    1    2  503  502 -0.13021145273E+02 -0.17541440682E+02  0.35280281223E+02  0.41496392718E+02  0.00000000000E+00 0. -1.
          1    1    1    2  501    0  0.21198553049E+03  0.40946480714E+02  0.56031733796E+03  0.60047481099E+03  0.00000000000E+00 0. -1.
<scales pt_clust_5="13000.00000" pt_clust_6="13000.00000" pt_clust_7="13000.00000" pt_clust_8="13000.00000" pt_clust_9="21.84611" pt_clust_10="215.64267"></scales>
<clustering>
<clus scale="   21.846">  1  9  2 -1</clus>
<clus scale="   81.176">  5  6 -1 -1</clus>
<clus scale="   93.135">  7  8 -1 -1</clus>
<clus scale="   94.926">  2  7  1 -1</clus>
<clus scale="  215.643">  1 10  2 -1</clus>
<clus scale="   21.846">  1  5  2 -1</clus>
</clustering>
</event>
<event>
10    4  0.7204077E-005  0.9093670E+02  0.7546771E-02  0.1304812E+00
         21   -1    0    0  503  502  0.00000000000E+00  0.00000000000E+00  0.54610486994E+02  0.54610486994E+02  0.00000000000E+00 0. -1.
          2   -1    0    0  502    0 -0.00000000000E+00 -0.00000000000E+00 -0.64203531986E+03  0.64203531986E+03  0.00000000000E+00 0. -1.
         24    2    1    2    0    0  0.49187239724E+02 -0.85144256632E+01 -0.36486294346E+03  0.37647821720E+03  0.78224040561E+02 0.  0.
         23    2    1    2    0    0  0.56050633467E+00 -0.25894047742E+02 -0.19168530291E+03  0.21146677334E+03  0.85464173765E+02 0.  0.
        -11    1    3    3    0    0  0.22668561785E+02 -0.10693481444E+02 -0.24408396328E+02  0.34985483420E+02  0.00000000000E+00 0.  1.
         12    1    3    3    0    0  0.26518677939E+02  0.21790557808E+01 -0.34045454713E+03  0.34149273378E+03  0.00000000000E+00 0. -1.
        -11    1    4    4    0    0  0.25800471500E+02  0.22057801146E+02 -0.91010829778E+02  0.97134865306E+02  0.00000000000E+00 0. -1.
         11    1    4    4    0    0 -0.25239965165E+02 -0.47951848888E+02 -0.10067447313E+03  0.11433190803E+03  0.00000000000E+00 0.  1.
         21    1    1    2  503  501  0.23929259659E+01 -0.20586682016E+02  0.95377875516E+01  0.22814621681E+02  0.00000000000E+00 0. -1.
          1    1    1    2  501    0 -0.52140672024E+02  0.54995155421E+02 -0.40414374046E+02  0.85886194632E+02  0.00000000000E+00 0. -1.
<scales pt_clust_5="13000.00000" pt_clust_6="13000.00000" pt_clust_7="13000.00000" pt_clust_8="13000.00000" pt_clust_9="20.72529" pt_clust_10="66.38025"></scales>
<clustering>
<clus scale="   20.725">  1  9  2 -1</clus>
<clus scale="   66.380">  1 10  2 -1</clus>
<clus scale="   78.224">  5  6 -1 -1</clus>
<clus scale="   84.169">  2  5  1 -1</clus>
<clus scale="   85.464">  7  8 -1 -1</clus>
<clus scale="   20.725">  1  5  2 -1</clus>
</clustering>
</event>
<event>
10    4  0.7204077E-005  0.1207542E+03  0.7546771E-02  0.1245824E+00
          4   -1    0    0  503    0 -0.00000000000E+00  0.00000000000E+00  0.11285619348E+03  0.11285619348E+03  0.00000000000E+00 0. -1.
         21   -1    0    0  501  502  0.00000000000E+00 -0.00000000000E+00 -0.68587270320E+03  0.68587270320E+03  0.00000000000E+00 0.  1.
         23    2    1    2    0    0 -0.90617460303E+02 -0.81603454298E+01  0.15552380349E+02  0.12938704105E+03  0.90669810340E+02 0.  0.
         24    2    1    2    0    0  0.64562498111E+02 -0.85903815902E+01 -0.47054055453E+02  0.11189395505E+03  0.77872088866E+02 0.  0.
        -13    1    4    4    0    0  0.68476072495E+02 -0.32426134029E+02 -0.43816069042E+02  0.87522994571E+02  0.00000000000E+00 0.  1.
         14    1    4    4    0    0 -0.39135743842E+01  0.23835752438E+02 -0.32379864112E+01  0.24370960481E+02  0.00000000000E+00 0. -1.
        -11    1    3    3    0    0 -0.28457981833E+02  0.35453771948E+02  0.26570731241E+02  0.52657672129E+02  0.00000000000E+00 0. -1.
         11    1    3    3    0    0 -0.62159478470E+02 -0.43614117378E+02 -0.11018350892E+02  0.76729368919E+02  0.00000000000E+00 0.  1.
         21    1    1    2  503  502  0.42581235861E+02 -0.41063378856E+02 -0.38960743019E+03  0.39407272475E+03  0.00000000000E+00 0.  1.
          3    1    1    2  501    0 -0.16526273668E+02  0.57814105876E+02 -0.15190740443E+03  0.16337517584E+03  0.00000000000E+00 0. -1.
<scales pt_clust_5="13000.00000" pt_clust_6="13000.00000" pt_clust_7="13000.00000" pt_clust_8="13000.00000" pt_clust_9="59.15541" pt_clust_10="36.34923"></scales>
<clustering>
<clus scale="   59.155">  2  9  1 -1</clus>
<clus scale="   36.349">  2 10  1 -1</clus>
<clus scale="   77.872">  5  6 -1 -1</clus>
<clus scale="   90.670">  7  8 -1 -1</clus>
<clus scale="  111.466">  2  5  1 -1</clus>
<clus scale="   59.155">  2  5  1 -1</clus>
</clustering>
</event>
<event>
10    4  0.7204077E-005  0.2635583E+03  0.7546771E-02  0.1143862E+00
          2   -1    0    0  503    0 -0.00000000000E+00  0.00000000000E+00  0.15252877565E+04  0.15252877565E+04  0.00000000000E+00 0. -1.
         21   -1    0    0  501  502  0.00000000000E+00 -0.00000000000E+00 -0.15658666582E+03  0.15658666582E+03  0.00000000000E+00 0.  1.
         23    2    1    2    0    0  0.43541045448E+02  0.23646398565E+02  0.36839412728E+03  0.38257673185E+03  0.90530370236E+02 0.  0.
         24    2    1    2    0    0 -0.10218402157E+03  0.19762412914E+03  0.90973046657E+02  0.25297107637E+03  0.78875849151E+02 0.  0.
        -13    1    4    4    0    0 -0.11352429871E+03  0.18778700833E+03  0.91962611173E+02  0.23792614137E+03  0.00000000000E+00 0.  1.
         14    1    4    4    0    0  0.11340277132E+02  0.98371208146E+01 -0.98956451532E+00  0.15044935004E+02  0.00000000000E+00 0. -1.
        -11    1    3    3    0    0  0.63294491503E+02  0.39053571933E+02  0.22395939317E+03  0.23598555872E+03  0.00000000000E+00 0. -1.
         11    1    3    3    0    0 -0.19753446055E+02 -0.15407173368E+02  0.14443473410E+03  0.14659117312E+03  0.00000000000E+00 0.  1.
         21    1    1    2  503  502 -0.91046175254E+02 -0.15384398061E+02 -0.95566074197E+01  0.92830030041E+02  0.00000000000E+00 0. -1.
          1    1    1    2  501    0  0.14968915138E+03 -0.20588612964E+03  0.91889052412E+03  0.95349658402E+03  0.00000000000E+00 0. -1.
<scales pt_clust_5="13000.00000" pt_clust_6="13000.00000" pt_clust_7="13000.00000" pt_clust_8="13000.00000" pt_clust_9="92.33681" pt_clust_10="251.47889"></scales>
<clustering>
<clus scale="   78.876">  5  6 -1 -1</clus>
<clus scale="   90.530">  7  8 -1 -1</clus>
<clus scale="   92.337">  2  9  1 -1</clus>
<clus scale="  100.533">  1  7  2 -1</clus>
<clus scale="  251.479">  2 10  1 -1</clus>
<clus scale="   92.337">  2  5  1 -1</clus>
</clustering>
</event>
<event>
10    4  0.7204077E-005  0.9380996E+02  0.7546771E-02  0.1300212E+00
         -1   -1    0    0    0  501 -0.00000000000E+00  0.00000000000E+00  0.20076105071E+03  0.20076105071E+03  0.00000000000E+00 0.  1.
         21   -1    0    0  503  502  0.00000000000E+00 -0.00000000000E+00 -0.28540898359E+03  0.28540898359E+03  0.00000000000E+00 0.  1.
         23    2    1    2    0    0 -0.45608655943E+02  0.22394596812E+02  0.51756022739E+02  0.11684970057E+03  0.91616042095E+02 0.  0.
         24    2    1    2    0    0 -0.18569635828E+02  0.22660085053E+02 -0.96605965848E+01  0.86630505675E+02  0.80951878037E+02 0.  0.
        -11    1    4    4    0    0  0.22424810680E+01  0.31507979724E+02  0.28321863229E+02  0.42425339650E+02  0.00000000000E+00 0.  1.
         12    1    4    4    0    0 -0.20812116896E+02 -0.88478946714E+01 -0.37982459814E+02  0.44205166025E+02  0.00000000000E+00 0. -1.
        -13    1    3    3    0    0  0.20320096372E+02  0.16908496031E+02  0.42497474096E+02  0.50048365200E+02  0.00000000000E+00 0. -1.
         13    1    3    3    0    0 -0.65928752315E+02  0.54861007810E+01  0.92585486433E+01  0.66801335366E+02  0.00000000000E+00 0.  1.
         21    1    1    2  503  501  0.58864725940E+02 -0.75511207808E+02 -0.18973296900E+03  0.21252199413E+03  0.00000000000E+00 0.  1.
         -2    1    1    2    0  502  0.53135658310E+01  0.30456525943E+02  0.62989609965E+02  0.70167833926E+02  0.00000000000E+00 0.  1.
<scales pt_clust_5="13000.00000" pt_clust_6="13000.00000" pt_clust_7="13000.00000" pt_clust_8="13000.00000" pt_clust_9="82.56909" pt_clust_10="30.91658"></scales>
<clustering>
<clus scale="   30.917">  2 10  1 -1</clus>
<clus scale="   80.952">  5  6 -1 -1</clus>
<clus scale="   82.569">  2  9  1 -1</clus>
<clus scale="   83.427">  2  5  1 -1</clus>
<clus scale="   91.616">  7  8 -1 -1</clus>
<clus scale="   30.917">  2  5  1 -1</clus>
</clustering>
</event>
<event>
10    4  0.7204077E-005  0.1349020E+03  0.7546771E-02  0.1223336E+00
         21   -1    0    0  503  502  0.00000000000E+00  0.00000000000E+00  0.28228268550E+02  0.28228268550E+02  0.00000000000E+00 0.  1.
         -1   -1    0    0    0  501 -0.00000000000E+00 -0.00000000000E+00 -0.10019634551E+04  0.10019634551E+04  0.00000000000E+00 0.  1.
         23    2    1    2    0    0 -0.41811467968E+02  0.82570670402E+02 -0.50650105540E+03  0.52306627354E+03  0.92135188345E+02 0.  0.
         24    2    1    2    0    0  0.48700078545E+02 -0.84348357923E+02 -0.21826876565E+03  0.25195946942E+03  0.79724381692E+02 0.  0.
        -13    1    4    4    0    0  0.15261398416E+02 -0.85734931545E+02 -0.12088330989E+03  0.14898376884E+03  0.00000000000E+00 0.  1.
         14    1    4    4    0    0  0.33438680129E+02  0.13865736226E+01 -0.97385455761E+02  0.10297570058E+03  0.00000000000E+00 0. -1.
        -11    1    3    3    0    0  0.16288678618E+02  0.24014123135E+02 -0.40509247683E+02  0.49829693044E+02  0.00000000000E+00 0. -1.
         11    1    3    3    0    0 -0.58100146587E+02  0.58556547267E+02 -0.46599180772E+03  0.47323658050E+03  0.00000000000E+00 0.  1.
         21    1    1    2  503  501 -0.28668179629E+02  0.30809944599E+01 -0.85042944399E+02  0.89797881056E+02  0.00000000000E+00 0.  1.
         -2    1    1    2    0  502  0.21779569052E+02 -0.13033069391E+01 -0.16392242115E+03  0.16536809968E+03  0.00000000000E+00 0.  1.
<scales pt_clust_5="13000.00000" pt_clust_6="13000.00000" pt_clust_7="13000.00000" pt_clust_8="13000.00000" pt_clust_9="26.94961" pt_clust_10="21.81854"></scales>
<clustering>
<clus scale="   21.819">  1 10  2 -1</clus>
<clus scale="   26.950">  2  9  1 -1</clus>
<clus scale="   79.724">  5  6 -1 -1</clus>
<clus scale="   92.135">  7  8 -1 -1</clus>
<clus scale="  126.750">  1  5  2 -1</clus>
<clus scale="   21.819">  1  5  2 -1</clus>
</clustering>
</event>
<event>
10    4  0.7204077E-005  0.1627470E+03  0.7546771E-02  0.1186744E+00
          2   -1    0    0  503    0 -0.00000000000E+00  0.00000000000E+00  0.75443990159E+03  0.75443990159E+03  0.00000000000E+00 0. -1.
         21   -1    0    0  501  502  0.00000000000E+00 -0.00000000000E+00 -0.10546566553E+03  0.10546566553E+03  0.00000000000E+00 0. -1.
         23    2    1    2    0    0  0.14764404721E+02  0.11617883974E+03  0.23649027118E+03  0.27792594186E+03  0.87176088139E+02 0.  0.
         24    2    1    2    0    0  0.25630744322E+02 -0.20520273986E+03  0.11813586768E+03  0.25107901815E+03  0.79495223924E+02 0.  0.
        -11    1    4    4    0    0 -0.70497119329E+01 -0.51493998758E+02 -0.38904061670E+01  0.52119723776E+02  0.00000000000E+00 0.  1.
         12    1    4    4    0    0  0.32680456254E+02 -0.15370874110E+03  0.12202627385E+03  0.19895929438E+03  0.00000000000E+00 0. -1.
        -13    1    3    3    0    0  0.47250517806E+02  0.89273298765E+02  0.18980198338E+03  0.21500494460E+03  0.00000000000E+00 0. -1.
         13    1    3    3    0    0 -0.32486113085E+02  0.26905540976E+02  0.46688287800E+02  0.62920997260E+02  0.00000000000E+00 0.  1.
         21    1    1    2  503  502 -0.35181793912E+02  0.65664123797E+01  0.13664408471E+02  0.38309169311E+02  0.00000000000E+00 0. -1.
          1    1    1    2  501    0 -0.52133551307E+01  0.82457487735E+02  0.28068368873E+03  0.29259143780E+03  0.00000000000E+00 0. -1.
<scales pt_clust_5="13000.00000" pt_clust_6="13000.00000" pt_clust_7="13000.00000" pt_clust_8="13000.00000" pt_clust_9="35.78933" pt_clust_10="83.21254"></scales>
<clustering>
<clus scale="   35.789">  2  9  1 -1</clus>
<clus scale="   79.495">  5  6 -1 -1</clus>
<clus scale="   83.213">  2 10  1 -1</clus>
<clus scale="   87.176">  7  8 -1 -1</clus>
<clus scale="  158.765">  2  5  1 -1</clus>
<clus scale="   35.789">  2  5  1 -1</clus>
</clustering>
</event>
<event>
10    4  0.7204077E-005  0.2158444E+03  0.7546771E-02  0.1137884E+00
          2   -1    0    0  503    0 -0.00000000000E+00  0.00000000000E+00  0.91130718361E+03  0.91130718361E+03  0.00000000000E+00 0. -1.
         21   -1    0    0  501  502  0.00000000000E+00 -0.00000000000E+00 -0.73302313857E+02  0.73302313857E+02  0.00000000000E+00 0. -1.
         23    2    1    2    0    0 -0.17008953694E+03  0.83804652424E+02  0.44829968419E+03  0.49527313561E+03  0.91483340950E+02 0.  0.
         24    2    1    2    0    0  0.20327493660E+03 -0.46385340294E+02  0.28702029257E+03  0.36374661400E+03  0.80365734001E+02 0.  0.
        -11    1    4    4    0    0  0.13705413501E+03 -0.60343485166E+02  0.15577972305E+03  0.21608446089E+03  0.00000000000E+00 0.  1.
         12    1    4    4    0    0  0.66220801599E+02  0.13958144872E+02  0.13124056952E+03  0.14766215311E+03  0.00000000000E+00 0. -1.
        -11    1    3    3    0    0 -0.81138084871E+02  0.74516022396E+02  0.32344892146E+03  0.34169464614E+03  0.00000000000E+00 0.  1.
         11    1    3    3    0    0 -0.88951452073E+02  0.92886300280E+01  0.12485076273E+03  0.15357848947E+03  0.00000000000E+00 0. -1.
         21    1    1    2  503  502 -0.27686257244E+02  0.38461072330E+01  0.25223479019E+02  0.37650302454E+02  0.00000000000E+00 0.  1.
          1    1    1    2  501    0 -0.54991424156E+01 -0.41265419363E+02  0.77461413980E+02  0.87939445406E+02  0.00000000000E+00 0. -1.
<scales pt_clust_5="13000.00000" pt_clust_6="13000.00000" pt_clust_7="13000.00000" pt_clust_8="13000.00000" pt_clust_9="27.95213" pt_clust_10="41.67533"></scales>
<clustering>
<clus scale="   27.952">  2  9  1 -1</clus>
<clus scale="   41.675">  2 10  1 -1</clus>
<clus scale="   80.366">  5  6 -1 -1</clus>
<clus scale="   91.483">  7  8 -1 -1</clus>
<clus scale="  211.372">  2  5  1 -1</clus>
<clus scale="   27.952">  2  5  1 -1</clus>
</clustering>
</event>
<event>
10    4  0.7204077E-005  0.1524608E+03  0.7546771E-02  0.1200250E+00
         21   -1    0    0  501  502  0.00000000000E+00  0.00000000000E+00  0.12522217769E+03  0.12522217769E+03  0.00000000000E+00 0. -1.
          2   -1    0    0  503    0 -0.00000000000E+00 -0.00000000000E+00 -0.48084066897E+03  0.48084066897E+03  0.00000000000E+00 0. -1.
         23    2    1    2    0    0 -0.36658402414E+02  0.12556522200E+03 -0.18447957806E+03  0.24376026739E+03  0.90971917615E+02 0.  0.
         24    2    1    2    0    0  0.19483246018E+02 -0.10640665121E+03 -0.34015308881E+02  0.13599920238E+03  0.75078422426E+02 0.  0.
        -11    1    4    4    0    0 -0.27381337763E+02 -0.43737206953E+02 -0.25758809240E+01  0.51665424534E+02  0.00000000000E+00 0.  1.
         12    1    4    4    0    0  0.46864583780E+02 -0.62669444257E+02 -0.31439427957E+02  0.84333777851E+02  0.00000000000E+00 0. -1.
        -13    1    3    3    0    0 -0.32454344414E+02  0.79190163474E+02 -0.44956621211E+02  0.96671941395E+02  0.00000000000E+00 0. -1.
         13    1    3    3    0    0 -0.42040579995E+01  0.46375058526E+02 -0.13952295685E+03  0.14708832599E+03  0.00000000000E+00 0.  1.
         21    1    1    2  503  502 -0.17810719650E+02 -0.11960787828E+02  0.40120223756E+02  0.45496313413E+02  0.00000000000E+00 0.  1.
          1    1    1    2  501    0  0.34985876045E+02 -0.71977829624E+01 -0.17724382810E+03  0.18080706347E+03  0.00000000000E+00 0. -1.
<scales pt_clust_5="13000.00000" pt_clust_6="13000.00000" pt_clust_7="13000.00000" pt_clust_8="13000.00000" pt_clust_9="21.45419" pt_clust_10="35.39515"></scales>
<clustering>
<clus scale="   21.454">  1  9  2 -1</clus>
<clus scale="   35.395">  1 10  2 -1</clus>
<clus scale="   75.078">  5  6 -1 -1</clus>
<clus scale="   90.972">  7  8 -1 -1</clus>
<clus scale="  143.545">  1  5  2 -1</clus>
<clus scale="   21.454">  1  5  2 -1</clus>
</clustering>
</event>
<event>
10    4  0.7204077E-005  0.1118518E+03  0.7546771E-02  0.1261525E+00
         21   -1    0    0  503  502  0.00000000000E+00  0.00000000000E+00  0.16299241908E+03  0.16299241908E+03  0.00000000000E+00 0.  1.
          2   -1    0    0  502    0 -0.00000000000E+00 -0.00000000000E+00 -0.26512769571E+03  0.26512769571E+03  0.00000000000E+00 0. -1.
         24    2    1    2    0    0 -0.78040564455E+02  0.24539631448E+02 -0.13677897434E+03  0.17813315860E+03  0.79563880999E+02 0.  0.
         23    2    1    2    0    0 -0.30449887863E+02 -0.63465034371E+02  0.42180937860E+02  0.12260362658E+03  0.91090128304E+02 0.  0.
        -13    1    3    3    0    0 -0.88894816476E+02  0.35889956626E+02 -0.10203961782E+03  0.14000878896E+03  0.00000000000E+00 0.  1.
         14    1    3    3    0    0  0.10854252021E+02 -0.11350325178E+02 -0.34739356524E+02  0.38124369637E+02  0.00000000000E+00 0. -1.
        -11    1    4    4    0    0 -0.29210670252E+02 -0.20925455531E+02 -0.24506528828E+02  0.43493768530E+02  0.00000000000E+00 0. -1.
         11    1    4    4    0    0 -0.12392176104E+01 -0.42539578840E+02  0.66687466688E+02  0.79109858055E+02  0.00000000000E+00 0.  1.
         21    1    1    2  503  501  0.15563703670E+02  0.15357505627E+02  0.17832100720E+02  0.28214635689E+02  0.00000000000E+00 0.  1.
          1    1    1    2  501    0  0.92926748648E+02  0.23567897296E+02 -0.25369340865E+02  0.99168693916E+02  0.00000000000E+00 0. -1.
<scales pt_clust_5="13000.00000" pt_clust_6="13000.00000" pt_clust_7="13000.00000" pt_clust_8="13000.00000" pt_clust_9="21.86508" pt_clust_10="100.88340"></scales>
<clustering>
<clus scale="   21.865">  1  9  2 -1</clus>
<clus scale="   79.564">  5  6 -1 -1</clus>
<clus scale="   91.090">  7  8 -1 -1</clus>
<clus scale="  100.883">  1 10  2 -1</clus>
<clus scale="  102.683">  2  5  1 -1</clus>
<clus scale="   21.865">  1  5  2 -1</clus>
</clustering>
</event>
<event>
10    4  0.7204077E-005  0.1933587E+03  0.7546771E-02  0.1194123E+00
         21   -1    0    0  501  502  0.00000000000E+00  0.00000000000E+00  0.31109834564E+03  0.31109834564E+03  0.00000000000E+00 0. -1.
          4   -1    0    0  503    0 -0.00000000000E+00 -0.00000000000E+00 -0.28635051743E+03  0.28635051743E+03  0.00000000000E+00 0. -1.
         24    2    1    2    0    0  0.19307128456E+02  0.78302123486E+00 -0.36508683938E+02  0.88928124082E+02  0.78752453412E+02 0.  0.
         23    2    1    2    0    0  0.11547328743E+03  0.13573435467E+03  0.16444261010E+03  0.25910182676E+03  0.91293425106E+02 0.  0.
        -13    1    3    3    0    0  0.28674463800E+02 -0.27294972398E+02  0.28393114869E+01  0.39690075361E+02  0.00000000000E+00 0.  1.
         14    1    3    3    0    0 -0.93673353439E+01  0.28077993633E+02 -0.39347995425E+02  0.49238048721E+02  0.00000000000E+00 0. -1.
        -13    1    4    4    0    0  0.40902453798E+02  0.11571680246E+03  0.10763972766E+03  0.16324735854E+03  0.00000000000E+00 0.  1.
         13    1    4    4    0    0  0.74570833633E+02  0.20017552205E+02  0.56802882442E+02  0.95854468225E+02  0.00000000000E+00 0. -1.
         21    1    1    2  503  502 -0.32707682031E+02  0.73609741713E+01  0.15362669387E+02  0.36878015338E+02  0.00000000000E+00 0.  1.
          3    1    1    2  501    0 -0.10207273386E+03 -0.14387835007E+03 -0.11854876733E+03  0.21254089690E+03  0.00000000000E+00 0. -1.
<scales pt_clust_5="13000.00000" pt_clust_6="13000.00000" pt_clust_7="13000.00000" pt_clust_8="13000.00000" pt_clust_9="33.52576" pt_clust_10="170.44977"></scales>
<clustering>
<clus scale="   33.526">  1  9  2 -1</clus>
<clus scale="   78.752">  5  6 -1 -1</clus>
<clus scale="   80.435">  2  5  1 -1</clus>
<clus scale="   91.293">  7  8 -1 -1</clus>
<clus scale="  170.450">  1 10  2 -1</clus>
<clus scale="   33.526">  1  5  2 -1</clus>
</clustering>
</event>
<event>
10    4  0.7204077E-005  0.1314763E+03  0.7546771E-02  0.1226950E+00
          2   -1    0    0  503    0 -0.00000000000E+00  0.00000000000E+00  0.45828338543E+03  0.45828338543E+03  0.00000000000E+00 0. -1.
         21   -1    0    0  501  502  0.00000000000E+00 -0.00000000000E+00 -0.19560692762E+03  0.19560692762E+03  0.00000000000E+00 0.  1.
         24    2    1    2    0    0  0.31313826918E+01 -0.87558991730E+02  0.56810873935E+02  0.13328612563E+03  0.82833165447E+02 0.  0.
         23    2    1    2    0    0  0.16590555317E+02  0.10492433919E+03  0.80523948216E+02  0.16058638799E+03  0.89551763188E+02 0.  0.
        -13    1    3    3    0    0  0.41114338712E+02 -0.28766661119E+02  0.29096570854E+02  0.58004483233E+02  0.00000000000E+00 0.  1.
         14    1    3    3    0    0 -0.37982956021E+02 -0.58792330611E+02  0.27714303082E+02  0.75281642397E+02  0.00000000000E+00 0. -1.
        -11    1    4    4    0    0 -0.18798034336E+02 -0.80568634965E+01  0.13978816703E+02  0.24772695871E+02  0.00000000000E+00 0.  1.
         11    1    4    4    0    0  0.35388589652E+02  0.11298120269E+03  0.66545131513E+02  0.13581369212E+03  0.00000000000E+00 0. -1.
         21    1    1    2  503  502  0.50368874553E+02 -0.69967761477E+02 -0.91753958163E+02  0.12590194601E+03  0.00000000000E+00 0.  1.
          1    1    1    2  501    0 -0.70090812561E+02  0.52602414017E+02  0.21709559383E+03  0.23411585343E+03  0.00000000000E+00 0. -1.
<scales pt_clust_5="13000.00000" pt_clust_6="13000.00000" pt_clust_7="13000.00000" pt_clust_8="13000.00000" pt_clust_9="86.21201" pt_clust_10="79.60483"></scales>
<clustering>
<clus scale="   82.833">  5  6 -1 -1</clus>
<clus scale="   86.212">  2  9  1 -1</clus>
<clus scale="   79.605">  2 10  1 -1</clus>
<clus scale="   89.552">  7  8 -1 -1</clus>
<clus scale="  126.995">  1  5  2 -1</clus>
<clus scale="   86.212">  2  5  1 -1</clus>
</clustering>
</event>
<event>
10    4  0.7204077E-005  0.2330078E+03  0.7546771E-02  0.1163769E+00
          2   -1    0    0  503    0 -0.00000000000E+00  0.00000000000E+00  0.37572903987E+03  0.37572903987E+03  0.00000000000E+00 0. -1.
         21   -1    0    0  501  502  0.00000000000E+00 -0.00000000000E+00 -0.41665657310E+03  0.41665657310E+03  0.00000000000E+00 0. -1.
         23    2    1    2    0    0  0.13310334300E+02 -0.18525882143E+02  0.65118111742E+02  0.11271670604E+03  0.89130881485E+02 0.  0.
         24    2    1    2    0    0  0.81824661240E+02 -0.22680118389E+03 -0.92393361512E+02  0.27039637025E+03  0.80272109677E+02 0.  0.
        -13    1    4    4    0    0  0.77612816854E+01 -0.10370019540E+03 -0.69104052266E+02  0.12485727075E+03  0.00000000000E+00 0.  1.
         14    1    4    4    0    0  0.74063379555E+02 -0.12310098849E+03 -0.23289309246E+02  0.14553909950E+03  0.00000000000E+00 0. -1.
        -11    1    3    3    0    0  0.41345997361E+00  0.20149949801E+02 -0.13429616262E+02  0.24218712168E+02  0.00000000000E+00 0.  1.
         11    1    3    3    0    0  0.12896874326E+02 -0.38675831944E+02  0.78547728005E+02  0.88497993868E+02  0.00000000000E+00 0. -1.
         21    1    1    2  503  502 -0.60207367690E+02  0.18284473268E+03 -0.15741821967E+03  0.24867170985E+03  0.00000000000E+00 0. -1.
          1    1    1    2  501    0 -0.34927627850E+02  0.62482333350E+02  0.14376593622E+03  0.16060082685E+03  0.00000000000E+00 0. -1.
<scales pt_clust_5="13000.00000" pt_clust_6="13000.00000" pt_clust_7="13000.00000" pt_clust_8="13000.00000" pt_clust_9="218.74414" pt_clust_10="71.58202"></scales>
<clustering>
<clus scale="   71.582">  2 10  1 -1</clus>
<clus scale="   80.272">  5  6 -1 -1</clus>
<clus scale="   89.131">  7  8 -1 -1</clus>
<clus scale="   91.066">  1  7  2 -1</clus>
<clus scale="  218.744">  2  9  1 -1</clus>
<clus scale="   71.582">  2  5  1 -1</clus>
</clustering>
</event>
<event>
10    4  0.7204077E-005  0.1753014E+03  0.7546771E-02  0.1188378E+00
         21   -1    0    0  501  502  0.00000000000E+00  0.00000000000E+00  0.42271908765E+02  0.42271908765E+02  0.00000000000E+00 0.  1.
          2   -1    0    0  503    0 -0.00000000000E+00 -0.00000000000E+00 -0.24008960475E+04  0.24008960475E+04  0.00000000000E+00 0. -1.
         24    2    1    2    0    0  0.66690585962E+01 -0.13160435491E+03 -0.31565673651E+03  0.35131967108E+03  0.80138339187E+02 0.  0.
         23    2    1    2    0    0  0.12517023381E+03  0.84056476060E+02 -0.86351233796E+03  0.88153117739E+03  0.93330489619E+02 0.  0.
        -11    1    3    3    0    0  0.23489239666E+02 -0.12576207365E+03 -0.22410189081E+03  0.25804941584E+03  0.00000000000E+00 0.  1.
         12    1    3    3    0    0 -0.16820181070E+02 -0.58422812596E+01 -0.91554845693E+02  0.93270255234E+02  0.00000000000E+00 0. -1.
        -13    1    4    4    0    0  0.91331754462E+02  0.99965647808E+02 -0.74677551189E+03  0.75895209683E+03  0.00000000000E+00 0.  1.
         13    1    4    4    0    0  0.33838479346E+02 -0.15909171748E+02 -0.11673682607E+03  0.12257908056E+03  0.00000000000E+00 0. -1.
         21    1    1    2  503  502  0.14076767714E+02  0.71875328668E+02 -0.12000734781E+03  0.14059154238E+03  0.00000000000E+00 0.  1.
          1    1    1    2  501    0 -0.14591606012E+03 -0.24327449815E+02 -0.10594477164E+04  0.10697255654E+04  0.00000000000E+00 0. -1.
<scales pt_clust_5="13000.00000" pt_clust_6="13000.00000" pt_clust_7="13000.00000" pt_clust_8="13000.00000" pt_clust_9="73.24082" pt_clust_10="148.39148"></scales>
<clustering>
<clus scale="   73.241">  1  9  2 -1</clus>
<clus scale="   80.138">  5  6 -1 -1</clus>
<clus scale="   93.330">  7  8 -1 -1</clus>
<clus scale="  122.516">  2  5  1 -1</clus>
<clus scale="  148.391">  1 10  2 -1</clus>
<clus scale="   73.241">  1  5  2 -1</clus>
</clustering>
</event>
<event>
10    4  0.7204077E-005  0.2382964E+03  0.7546771E-02  0.1163975E+00
         21   -1    0    0  503  502  0.00000000000E+00  0.00000000000E+00  0.54640788032E+03  0.54640788032E+03  0.00000000000E+00 0. -1.
          2   -1    0    0  502    0 -0.00000000000E+00 -0.00000000000E+00 -0.47780871495E+03  0.47780871495E+03  0.00000000000E+00 0. -1.
         24    2    1    2    0    0 -0.17469818232E+02  0.14037525046E+02 -0.16393753922E+03  0.18453925732E+03  0.81712753390E+02 0.  0.
         23    2    1    2    0    0 -0.19480603696E+03 -0.51493035169E+02 -0.44154154152E+02  0.22759064236E+03  0.96161252372E+02 0.  0.
        -13    1    3    3    0    0 -0.30263890285E+02 -0.24634319363E+02 -0.49267014732E+02  0.62848957719E+02  0.00000000000E+00 0.  1.
         14    1    3    3    0    0  0.12794072053E+02  0.38671844409E+02 -0.11467052449E+03  0.12169029960E+03  0.00000000000E+00 0. -1.
        -11    1    4    4    0    0 -0.68117422414E+02  0.21597146160E+02 -0.38614779020E+02  0.81225126146E+02  0.00000000000E+00 0.  1.
         11    1    4    4    0    0 -0.12668861454E+03 -0.73090181329E+02 -0.55393751315E+01  0.14636551622E+03  0.00000000000E+00 0. -1.
         21    1    1    2  503  501  0.60922834310E+02 -0.20400751877E+03  0.24618562737E+03  0.32548121693E+03  0.00000000000E+00 0. -1.
          1    1    1    2  501    0  0.15135302088E+03  0.24146302889E+03  0.30505231373E+02  0.28660547865E+03  0.00000000000E+00 0. -1.
<scales pt_clust_5="13000.00000" pt_clust_6="13000.00000" pt_clust_7="13000.00000" pt_clust_8="13000.00000" pt_clust_9="210.50695" pt_clust_10="218.03253"></scales>
<clustering>
<clus scale="   81.713">  5  6 -1 -1</clus>
<clus scale="   84.730">  2  5  1 -1</clus>
<clus scale="   96.161">  7  8 -1 -1</clus>
<clus scale="  210.507">  1  9  2 -1</clus>
<clus scale="  218.033">  1 10  2 -1</clus>
<clus scale="  210.507">  1  5  2 -1</clus>
</clustering>
</event>
<event>
10    4  0.7204077E-005  0.5671271E+03  0.7546771E-02  0.9976056E-01
          2   -1    0    0  503    0 -0.00000000000E+00  0.00000000000E+00  0.11661682328E+04  0.11661682328E+04  0.00000000000E+00 0. -1.
         21   -1    0    0  501  502  0.00000000000E+00 -0.00000000000E+00 -0.36828790552E+03  0.36828790552E+03  0.00000000000E+00 0. -1.
         24    2    1    2    0    0  0.82341594557E+02 -0.28788071664E+03  0.13670436943E+03  0.33706374222E+03  0.72583996076E+02 0.  0.
         23    2    1    2    0    0 -0.11016911912E+03 -0.24924167735E+03  0.11814852927E+03  0.30294295169E+03  0.59638146119E+02 0.  0.
        -11    1    3    3    0    0  0.48100975760E+02 -0.25624273250E+03  0.12423685851E+03  0.28880588436E+03  0.00000000000E+00 0.  1.
         12    1    3    3    0    0  0.34240618796E+02 -0.31637984139E+02  0.12467510915E+02  0.48257857851E+02  0.00000000000E+00 0. -1.
        -13    1    4    4    0    0 -0.79276047917E+02 -0.17267390229E+03  0.51565565183E+02  0.19687553383E+03  0.00000000000E+00 0. -1.
         13    1    4    4    0    0 -0.30893071204E+02 -0.76567775060E+02  0.66582964084E+02  0.10606741786E+03  0.00000000000E+00 0.  1.
         21    1    1    2  503  502 -0.18191036803E+03  0.71053180183E+02  0.19595233888E+03  0.27665367434E+03  0.00000000000E+00 0.  1.
          1    1    1    2  501    0  0.20973789260E+03  0.46606921381E+03  0.34707508974E+03  0.61779577012E+03  0.00000000000E+00 0. -1.
<scales pt_clust_5="13000.00000" pt_clust_6="13000.00000" pt_clust_7="13000.00000" pt_clust_8="13000.00000" pt_clust_9="195.29449" pt_clust_10="515.99391"></scales>
<clustering>
<clus scale="   59.638">  7  8 -1 -1</clus>
<clus scale="   72.584">  5  6 -1 -1</clus>
<clus scale="  195.294">  1  9  2 -1</clus>
<clus scale="  205.350">  5  7 -1 -1</clus>
<clus scale="  515.994">  2 10  1 -1</clus>
<clus scale="  515.994">  2  5  1 -1</clus>
</clustering>
</event>
<event>
10    4  0.7204077E-005  0.9062775E+02  0.7546771E-02  0.1304738E+00
         -1   -1    0    0    0  501 -0.00000000000E+00  0.00000000000E+00  0.60018493253E+02  0.60018493253E+02  0.00000000000E+00 0.  1.
         21   -1    0    0  501  502  0.00000000000E+00 -0.00000000000E+00 -0.50012939813E+03  0.50012939813E+03  0.00000000000E+00 0.  1.
         23    2    1    2    0    0  0.17685831710E+01 -0.18882988141E+02 -0.25254389349E+02  0.94261158083E+02  0.88812648954E+02 0.  0.
         24    2    1    2    0    0  0.62419848659E+02 -0.32185370728E+01 -0.24079321411E+03  0.26232113516E+03  0.83213036872E+02 0.  0.
        -11    1    4    4    0    0  0.74021149865E+02  0.10611515356E+02 -0.12921814398E+03  0.14929522303E+03  0.00000000000E+00 0.  1.
         12    1    4    4    0    0 -0.11601301206E+02 -0.13830052428E+02 -0.11157507013E+03  0.11302591214E+03  0.00000000000E+00 0. -1.
        -13    1    3    3    0    0 -0.23545174754E+02 -0.41612545243E+02 -0.34555171952E+02  0.58991856086E+02  0.00000000000E+00 0. -1.
         13    1    3    3    0    0  0.25313757925E+02  0.22729557102E+02  0.93007826032E+01  0.35269301997E+02  0.00000000000E+00 0.  1.
         21    1    1    2  503  502 -0.26830942468E+02 -0.95175196089E+01 -0.14252798634E+03  0.14534341934E+03  0.00000000000E+00 0. -1.
         -2    1    1    2    0  503 -0.37357489363E+02  0.31619044823E+02 -0.31535315071E+02  0.58222178795E+02  0.00000000000E+00 0.  1.
<scales pt_clust_5="13000.00000" pt_clust_6="13000.00000" pt_clust_7="13000.00000" pt_clust_8="13000.00000" pt_clust_9="28.46898" pt_clust_10="50.84252"></scales>
<clustering>
<clus scale="   28.469">  2  9  1 -1</clus>
<clus scale="   50.843">  2 10  1 -1</clus>
<clus scale="   83.213">  5  6 -1 -1</clus>
<clus scale="   85.148">  2  5  1 -1</clus>
<clus scale="   88.813">  7  8 -1 -1</clus>
<clus scale="   28.469">  2  5  1 -1</clus>
</clustering>
</event>
<event>
10    4  0.7204077E-005  0.1870850E+03  0.7546771E-02  0.1193319E+00
         21   -1    0    0  501  502  0.00000000000E+00  0.00000000000E+00  0.41397834291E+02  0.41397834291E+02  0.00000000000E+00 0.  1.
          2   -1    0    0  503    0 -0.00000000000E+00 -0.00000000000E+00 -0.21664228629E+04  0.21664228629E+04  0.00000000000E+00 0. -1.
         24    2    1    2    0    0  0.20575850328E+02  0.32331626056E+02 -0.88328706931E+03  0.88791016381E+03  0.81973852693E+02 0.  0.
         23    2    1    2    0    0  0.58326055827E+01 -0.19244191399E+03 -0.96706256357E+03  0.99012334576E+03  0.89812740782E+02 0.  0.
        -11    1    3    3    0    0 -0.73242490007E+00  0.35154493397E+02 -0.14121307046E+03  0.14552493298E+03  0.00000000000E+00 0.  1.
         12    1    3    3    0    0  0.21308275228E+02 -0.28228673408E+01 -0.74207399885E+03  0.74238523083E+03  0.00000000000E+00 0. -1.
        -11    1    4    4    0    0  0.32149131830E+02 -0.16524706337E+03 -0.86593054679E+03  0.88214277217E+03  0.00000000000E+00 0.  1.
         11    1    4    4    0    0 -0.26316526247E+02 -0.27194850622E+02 -0.10113201678E+03  0.10798057359E+03  0.00000000000E+00 0. -1.
         21    1    1    2  503  502 -0.28368443715E+02  0.12197439901E+02 -0.76448172787E+02  0.82449192000E+02  0.00000000000E+00 0.  1.
          1    1    1    2  501    0  0.19599878045E+01  0.14791284804E+03 -0.19822722296E+03  0.24733799564E+03  0.00000000000E+00 0. -1.
<scales pt_clust_5="13000.00000" pt_clust_6="13000.00000" pt_clust_7="13000.00000" pt_clust_8="13000.00000" pt_clust_9="30.87954" pt_clust_10="164.11728"></scales>
<clustering>
<clus scale="   30.880">  1  9  2 -1</clus>
<clus scale="   81.974">  5  6 -1 -1</clus>
<clus scale="   89.813">  7  8 -1 -1</clus>
<clus scale="   90.383">  2  5  1 -1</clus>
<clus scale="  164.117">  1 10  2 -1</clus>
<clus scale="   30.880">  1  5  2 -1</clus>
</clustering>
</event>
<event>
10    4  0.7204077E-005  0.2157843E+03  0.7546771E-02  0.1137893E+00
          2   -1    0    0  503    0 -0.00000000000E+00  0.00000000000E+00  0.34052976007E+03  0.34052976007E+03  0.00000000000E+00 0. -1.
         21   -1    0    0  501  502  0.00000000000E+00 -0.00000000000E+00 -0.54106409125E+03  0.54106409125E+03  0.00000000000E+00 0.  1.
         24    2    1    2    0    0 -0.23092134500E+02 -0.15715102185E+03 -0.48255363943E+02  0.18449516280E+03  0.80499655928E+02 0.  0.
         23    2    1    2    0    0 -0.41610522347E+02  0.25246995584E+03 -0.65486725824E+02  0.27941422208E+03  0.91166233153E+02 0.  0.
        -13    1    3    3    0    0  0.26284157105E+02 -0.88105402084E+02 -0.35962721103E+02  0.98725559508E+02  0.00000000000E+00 0.  1.
         14    1    3    3    0    0 -0.49376291605E+02 -0.69045619763E+02 -0.12292642841E+02  0.85769603293E+02  0.00000000000E+00 0. -1.
        -13    1    4    4    0    0 -0.99276373623E+01  0.23302774432E+03 -0.65425334266E+02  0.24224153642E+03  0.00000000000E+00 0.  1.
         13    1    4    4    0    0 -0.31682884984E+02  0.19442211528E+02 -0.61391558384E-01  0.37172685657E+02  0.00000000000E+00 0. -1.
         21    1    1    2  503  502  0.36696344726E+02 -0.66620704237E+02 -0.24392909634E+03  0.25551192533E+03  0.00000000000E+00 0.  1.
          1    1    1    2  501    0  0.28006312120E+02 -0.28698229761E+02  0.15713685493E+03  0.16217254110E+03  0.00000000000E+00 0. -1.
<scales pt_clust_5="13000.00000" pt_clust_6="13000.00000" pt_clust_7="13000.00000" pt_clust_8="13000.00000" pt_clust_9="94.11078" pt_clust_10="40.09917"></scales>
<clustering>
<clus scale="   40.099">  2 10  1 -1</clus>
<clus scale="   80.500">  5  6 -1 -1</clus>
<clus scale="   91.166">  7  8 -1 -1</clus>
<clus scale="   94.111">  2  9  1 -1</clus>
<clus scale="  211.499">  1  5  2 -1</clus>
<clus scale="   40.099">  2  5  1 -1</clus>
</clustering>
</event>
<event>
10    4  0.7204077E-005  0.2324680E+03  0.7546771E-02  0.1166439E+00
          2   -1    0    0  502    0 -0.00000000000E+00  0.00000000000E+00  0.10822213455E+04  0.10822213455E+04  0.00000000000E+00 0. -1.
         21   -1    0    0  503  502  0.00000000000E+00 -0.00000000000E+00 -0.12922021394E+03  0.12922021394E+03  0.00000000000E+00 0.  1.
         24    2    1    2    0    0  0.12087701686E+02 -0.27536514965E+02  0.12212076444E+03  0.14890693902E+03  0.79720908118E+02 0.  0.
         23    2    1    2    0    0 -0.23763133647E+03  0.55588734723E+02  0.11786537402E+03  0.28448497108E+03  0.86490998808E+02 0.  0.
        -11    1    3    3    0    0 -0.11497503180E+02  0.24874399204E+02  0.45702515083E+02  0.53288349572E+02  0.00000000000E+00 0.  1.
         12    1    3    3    0    0  0.23585204866E+02 -0.52410914169E+02  0.76418249360E+02  0.95618589447E+02  0.00000000000E+00 0. -1.
        -13    1    4    4    0    0 -0.12627975744E+03  0.52768101284E+02  0.24272838293E+02  0.13899719540E+03  0.00000000000E+00 0.  1.
         13    1    4    4    0    0 -0.11135157903E+03  0.28206334384E+01  0.93592535727E+02  0.14548777567E+03  0.00000000000E+00 0. -1.
         21    1    1    2  503  501  0.30350125254E+02 -0.10386754068E+02 -0.61448675478E+01  0.32661508847E+02  0.00000000000E+00 0.  1.
          1    1    1    2  501    0  0.19519350953E+03 -0.17665465689E+02  0.71915986062E+03  0.74538814048E+03  0.00000000000E+00 0. -1.
<scales pt_clust_5="13000.00000" pt_clust_6="13000.00000" pt_clust_7="13000.00000" pt_clust_8="13000.00000" pt_clust_9="32.07826" pt_clust_10="215.77930"></scales>
<clustering>
<clus scale="   32.078">  2  9  1 -1</clus>
<clus scale="   79.721">  5  6 -1 -1</clus>
<clus scale="   86.223">  1  5  2 -1</clus>
<clus scale="   86.491">  7  8 -1 -1</clus>
<clus scale="  215.779">  2 10  1 -1</clus>
<clus scale="   32.078">  2  5  1 -1</clus>
</clustering>
</event>
<event>
10    4  0.7204077E-005  0.9992291E+02  0.7546771E-02  0.1288397E+00
         -1   -1    0    0    0  501 -0.00000000000E+00  0.00000000000E+00  0.10101558967E+03  0.10101558967E+03  0.00000000000E+00 0.  1.
         21   -1    0    0  501  502  0.00000000000E+00 -0.00000000000E+00 -0.66742801452E+03  0.66742801452E+03  0.00000000000E+00 0.  1.
         24    2    1    2    0    0 -0.50512481373E+02  0.13376305995E+02 -0.14162343069E+03  0.17022352491E+03  0.78666485712E+02 0.  0.
         23    2    1    2    0    0  0.40772896349E+01  0.36586688691E+00 -0.26734727759E+03  0.28331598654E+03  0.93683633789E+02 0.  0.
        -13    1    3    3    0    0 -0.42492920401E+02  0.12150087268E+01 -0.18702702051E+02  0.46442605379E+02  0.00000000000E+00 0.  1.
         14    1    3    3    0    0 -0.80195609723E+01  0.12161297268E+02 -0.12292072864E+03  0.12378091953E+03  0.00000000000E+00 0. -1.
        -11    1    4    4    0    0 -0.42810577285E+02  0.84841510791E+00 -0.16933222822E+03  0.17466215632E+03  0.00000000000E+00 0.  1.
         11    1    4    4    0    0  0.46887866919E+02 -0.48254822099E+00 -0.98015049377E+02  0.10865383022E+03  0.00000000000E+00 0. -1.
         21    1    1    2  503  502  0.27581591586E+02  0.65200784856E+02 -0.20770440860E+03  0.21943793631E+03  0.00000000000E+00 0.  1.
         -2    1    1    2    0  503  0.18853600153E+02 -0.78942957737E+02  0.50262692039E+02  0.95466156443E+02  0.00000000000E+00 0.  1.
<scales pt_clust_5="13000.00000" pt_clust_6="13000.00000" pt_clust_7="13000.00000" pt_clust_8="13000.00000" pt_clust_9="70.79468" pt_clust_10="78.35196"></scales>
<clustering>
<clus scale="   70.795">  2  9  1 -1</clus>
<clus scale="   78.352">  2 10  1 -1</clus>
<clus scale="   78.666">  5  6 -1 -1</clus>
<clus scale="   86.002">  1  5  2 -1</clus>
<clus scale="   93.684">  7  8 -1 -1</clus>
<clus scale="   70.795">  2  5  1 -1</clus>
</clustering>
</event>
<event>
10    4  0.7204077E-005  0.2359482E+03  0.7546771E-02  0.1122522E+00
          2   -1    0    0  503    0 -0.00000000000E+00  0.00000000000E+00  0.43553169378E+02  0.43553169378E+02  0.00000000000E+00 0. -1.
         21   -1    0    0  501  502  0.00000000000E+00 -0.00000000000E+00 -0.10085814105E+04  0.10085814105E+04  0.00000000000E+00 0.  1.
         24    2    1    2    0    0 -0.20688815162E+02 -0.96266715711E+02 -0.36044979774E+03  0.38221980979E+03  0.80452586507E+02 0.  0.
         23    2    1    2    0    0 -0.23166622450E+02 -0.30198536082E+02 -0.22198969950E+03  0.24321202422E+03  0.91782449649E+02 0.  0.
        -13    1    3    3    0    0 -0.42820004937E+02 -0.81875860944E+02 -0.32586593057E+03  0.33871199290E+03  0.00000000000E+00 0.  1.
         14    1    3    3    0    0  0.22131189775E+02 -0.14390854766E+02 -0.34583867173E+02  0.43507816889E+02  0.00000000000E+00 0. -1.
        -13    1    4    4    0    0 -0.52403017097E+02  0.32730338366E+01 -0.93228810995E+02  0.10699719693E+03  0.00000000000E+00 0.  1.
         13    1    4    4    0    0  0.29236394647E+02 -0.33471569918E+02 -0.12876088851E+03  0.13621482729E+03  0.00000000000E+00 0. -1.
         21    1    1    2  503  502 -0.16568311985E+02 -0.14571826008E+02 -0.12457152267E+03  0.12651051868E+03  0.00000000000E+00 0.  1.
          1    1    1    2  501    0  0.60423749597E+02  0.14103707780E+03 -0.25801722123E+03  0.30019222722E+03  0.00000000000E+00 0. -1.
<scales pt_clust_5="13000.00000" pt_clust_6="13000.00000" pt_clust_7="13000.00000" pt_clust_8="13000.00000" pt_clust_9="22.06461" pt_clust_10="147.17041"></scales>
<clustering>
<clus scale="   22.065">  2  9  1 -1</clus>
<clus scale="   80.453">  5  6 -1 -1</clus>
<clus scale="   91.782">  7  8 -1 -1</clus>
<clus scale="   94.164">  5  7 -1 -1</clus>
<clus scale="  147.170">  2 10  1 -1</clus>
<clus scale="   22.065">  2  5  1 -1</clus>
</clustering>
</event>
<event>
10    4  0.7204077E-005  0.1857444E+03  0.7546771E-02  0.1197545E+00
         21   -1    0    0  503  502  0.00000000000E+00  0.00000000000E+00  0.38145879515E+03  0.38145879515E+03  0.00000000000E+00 0. -1.
          2   -1    0    0  502    0 -0.00000000000E+00 -0.00000000000E+00 -0.37402442058E+03  0.37402442058E+03  0.00000000000E+00 0. -1.
         24    2    1    2    0    0 -0.16421992296E+02 -0.22268704334E+02 -0.19152215331E+03  0.20939592828E+03  0.80002140917E+02 0.  0.
         23    2    1    2    0    0 -0.19557238755E+03 -0.27839828099E+02  0.47937856575E+02  0.22543037244E+03  0.97453578323E+02 0.  0.
        -11    1    3    3    0    0 -0.16120527025E+01  0.27895534144E+02 -0.37712080545E+02  0.46935706644E+02  0.00000000000E+00 0.  1.
         12    1    3    3    0    0 -0.14809939594E+02 -0.50164238478E+02 -0.15381007276E+03  0.16246022164E+03  0.00000000000E+00 0. -1.
        -13    1    4    4    0    0 -0.20563021807E+02  0.12297102235E+02 -0.22201347260E+02  0.32664298697E+02  0.00000000000E+00 0.  1.
         13    1    4    4    0    0 -0.17500936574E+03 -0.40136930335E+02  0.70139203834E+02  0.19276607375E+03  0.00000000000E+00 0. -1.
         21    1    1    2  503  501  0.77259221980E+02 -0.92503970255E+01  0.15493181675E+03  0.17337365737E+03  0.00000000000E+00 0. -1.
          1    1    1    2  501    0  0.13473515786E+03  0.59358929459E+02 -0.39131454565E+01  0.14728325763E+03  0.00000000000E+00 0. -1.
<scales pt_clust_5="13000.00000" pt_clust_6="13000.00000" pt_clust_7="13000.00000" pt_clust_8="13000.00000" pt_clust_9="77.81104" pt_clust_10="158.12587"></scales>
<clustering>
<clus scale="   77.811">  1  9  2 -1</clus>
<clus scale="   80.002">  5  6 -1 -1</clus>
<clus scale="   84.195">  2  5  1 -1</clus>
<clus scale="   97.454">  7  8 -1 -1</clus>
<clus scale="  158.126">  1 10  2 -1</clus>
<clus scale="   77.811">  1  5  2 -1</clus>
</clustering>
</event>
<event>
10    4  0.7204077E-005  0.1450665E+03  0.7546771E-02  0.1226527E+00
         21   -1    0    0  501  502  0.00000000000E+00  0.00000000000E+00  0.43122657886E+02  0.43122657886E+02  0.00000000000E+00 0. -1.
          2   -1    0    0  503    0 -0.00000000000E+00 -0.00000000000E+00 -0.11194895663E+04  0.11194895663E+04  0.00000000000E+00 0. -1.
         24    2    1    2    0    0 -0.16867244789E+02  0.51317546363E+02 -0.17614796265E+03  0.20097529273E+03  0.80280564462E+02 0.  0.
         23    2    1    2    0    0 -0.97838156538E+02 -0.68428885436E+02 -0.19924938538E+03  0.24951677579E+03  0.91123468923E+02 0.  0.
        -13    1    3    3    0    0 -0.19625786952E+02  0.69552935977E+02 -0.16306904765E+03  0.17836562650E+03  0.00000000000E+00 0.  1.
         14    1    3    3    0    0  0.27585421634E+01 -0.18235389614E+02 -0.13078914998E+02  0.22609666224E+02  0.00000000000E+00 0. -1.
        -13    1    4    4    0    0 -0.69077058800E+02 -0.78861192303E+02 -0.19091769823E+03  0.21780793190E+03  0.00000000000E+00 0.  1.
         13    1    4    4    0    0 -0.28761097738E+02  0.10432306867E+02 -0.83316871534E+01  0.31708843884E+02  0.00000000000E+00 0. -1.
         21    1    1    2  503  502  0.19475199374E+02 -0.89059964997E+01 -0.62580895862E+02  0.66143546104E+02  0.00000000000E+00 0.  1.
          1    1    1    2  501    0  0.95230201953E+02  0.26017335573E+02 -0.63838866448E+03  0.64597660952E+03  0.00000000000E+00 0. -1.
<scales pt_clust_5="13000.00000" pt_clust_6="13000.00000" pt_clust_7="13000.00000" pt_clust_8="13000.00000" pt_clust_9="21.41495" pt_clust_10="112.87518"></scales>
<clustering>
<clus scale="   21.415">  2  9  1 -1</clus>
<clus scale="   80.281">  5  6 -1 -1</clus>
<clus scale="   91.123">  7  8 -1 -1</clus>
<clus scale="   95.377">  2  5  1 -1</clus>
<clus scale="  112.875">  1 10  2 -1</clus>
<clus scale="  112.875">  1  5  2 -1</clus>
</clustering>
</event>
<event>
10    4  0.7204077E-005  0.9652334E+02  0.7546771E-02  0.1296330E+00
          2   -1    0    0  502    0 -0.00000000000E+00  0.00000000000E+00  0.72865059346E+03  0.72865059346E+03  0.00000000000E+00 0. -1.
         21   -1    0    0  503  502  0.00000000000E+00 -0.00000000000E+00 -0.66344378497E+02  0.66344378497E+02  0.00000000000E+00 0. -1.
         23    2    1    2    0    0 -0.17609826817E+02 -0.17606734634E+02  0.38303201344E+03  0.39479627844E+03  0.92360570812E+02 0.  0.
         24    2    1    2    0    0  0.58889615844E+02 -0.51286810623E+02  0.15622842619E+03  0.19102394815E+03  0.77359574840E+02 0.  0.
        -11    1    4    4    0    0  0.49743474074E+02 -0.68174126300E+02  0.96064481909E+02  0.12786911040E+03  0.00000000000E+00 0.  1.
         12    1    4    4    0    0  0.91461417692E+01  0.16887315677E+02  0.60163944283E+02  0.63154837754E+02  0.00000000000E+00 0. -1.
        -11    1    3    3    0    0 -0.23697741556E+02  0.32001218847E+02  0.10478770686E+03  0.11209872645E+03  0.00000000000E+00 0.  1.
         11    1    3    3    0    0  0.60879147386E+01 -0.49607953480E+02  0.27824430658E+03  0.28269755199E+03  0.00000000000E+00 0. -1.
         21    1    1    2  503  501 -0.69371484399E+01 -0.24960219264E+02 -0.21347786646E+02  0.33568803506E+02  0.00000000000E+00 0. -1.
          1    1    1    2  501    0 -0.34342640586E+02  0.93853764521E+02  0.14439356197E+03  0.17560594185E+03  0.00000000000E+00 0. -1.
<scales pt_clust_5="13000.00000" pt_clust_6="13000.00000" pt_clust_7="13000.00000" pt_clust_8="13000.00000" pt_clust_9="25.90630" pt_clust_10="91.68940"></scales>
<clustering>
<clus scale="   25.906">  2  9  1 -1</clus>
<clus scale="   77.360">  5  6 -1 -1</clus>
<clus scale="   91.689">  2 10  1 -1</clus>
<clus scale="   82.285">  2  5  1 -1</clus>
<clus scale="   92.361">  7  8 -1 -1</clus>
<clus scale="   25.906">  2  5  1 -1</clus>
</clustering>
</event>
<event>
10    4  0.7204077E-005  0.1309720E+03  0.7546771E-02  0.1228720E+00
         21   -1    0    0  503  502  0.00000000000E+00  0.00000000000E+00  0.30700870986E+02  0.30700870986E+02  0.00000000000E+00 0.  1.
          2   -1    0    0  502    0 -0.00000000000E+00 -0.00000000000E+00 -0.16215954390E+04  0.16215954390E+04  0.00000000000E+00 0. -1.
         24    2    1    2    0    0  0.87976459215E+02 -0.15806121043E+02 -0.11563274437E+04  0.11625401702E+04  0.80104928538E+02 0.  0.
         23    2    1    2    0    0 -0.11184946509E+03  0.36363442414E+02 -0.38894979228E+03  0.41635097846E+03  0.90739151192E+02 0.  0.
        -13    1    3    3    0    0  0.26256306121E+02  0.26645222595E+02 -0.21442371492E+03  0.21766233257E+03  0.00000000000E+00 0.  1.
         14    1    3    3    0    0  0.61720153094E+02 -0.42451343639E+02 -0.94190372874E+03  0.94487783765E+03  0.00000000000E+00 0. -1.
        -13    1    4    4    0    0 -0.71247384936E+02  0.63346795105E+02 -0.30170708214E+03  0.31641139317E+03  0.00000000000E+00 0. -1.
         13    1    4    4    0    0 -0.40602080154E+02 -0.26983352691E+02 -0.87242710142E+02  0.99939585291E+02  0.00000000000E+00 0.  1.
         21    1    1    2  503  501  0.19420816327E+02  0.84247549272E+01 -0.25767653898E+01  0.21325672844E+02  0.00000000000E+00 0.  1.
          1    1    1    2  501    0  0.44521895482E+01 -0.28982076298E+02 -0.43040566660E+02  0.52079488446E+02  0.00000000000E+00 0. -1.
<scales pt_clust_5="13000.00000" pt_clust_6="13000.00000" pt_clust_7="13000.00000" pt_clust_8="13000.00000" pt_clust_9="21.16943" pt_clust_10="28.51436"></scales>
<clustering>
<clus scale="   21.169">  1  9  2 -1</clus>
<clus scale="   28.514">  1 10  2 -1</clus>
<clus scale="   80.105">  5  6 -1 -1</clus>
<clus scale="   90.739">  7  8 -1 -1</clus>
<clus scale="  123.842">  2  5  1 -1</clus>
<clus scale="   21.169">  1  5  2 -1</clus>
</clustering>
</event>
<event>
10    4  0.7204077E-005  0.1152796E+03  0.7546771E-02  0.1259805E+00
          2   -1    0    0  503    0 -0.00000000000E+00  0.00000000000E+00  0.77918802001E+03  0.77918802001E+03  0.00000000000E+00 0. -1.
         21   -1    0    0  501  502  0.00000000000E+00 -0.00000000000E+00 -0.14171205990E+03  0.14171205990E+03  0.00000000000E+00 0. -1.
         24    2    1    2    0    0  0.23191392485E+02 -0.39683193243E+02  0.63782815329E+03  0.64810690214E+03  0.10538124578E+03 0.  0.
         23    2    1    2    0    0 -0.87254433685E+02  0.28361696513E+01  0.48045341375E+02  0.13098726351E+03  0.85017223649E+02 0.  0.
        -13    1    3    3    0    0  0.34603389988E+02  0.17237357671E+02  0.10094921373E+03  0.10809840355E+03  0.00000000000E+00 0.  1.
         14    1    3    3    0    0 -0.11411997503E+02 -0.56920550914E+02  0.53687893957E+03  0.54000849859E+03  0.00000000000E+00 0. -1.
        -13    1    4    4    0    0 -0.48819436017E+02  0.35804334609E+02  0.52526610617E+02  0.80151934055E+02  0.00000000000E+00 0.  1.
         13    1    4    4    0    0 -0.38434997668E+02 -0.32968164958E+02 -0.44812692413E+01  0.50835329451E+02  0.00000000000E+00 0. -1.
         21    1    1    2  503  502 -0.15348636486E+02 -0.27205874451E+02 -0.12627116344E+02  0.33692496401E+02  0.00000000000E+00 0. -1.
          1    1    1    2  501    0  0.79411677686E+02  0.64052898042E+02 -0.35770418223E+02  0.10811341786E+03  0.00000000000E+00 0. -1.
<scales pt_clust_5="13000.00000" pt_clust_6="13000.00000" pt_clust_7="13000.00000" pt_clust_8="13000.00000" pt_clust_9="31.23684" pt_clust_10="84.69969"></scales>
<clustering>
<clus scale="   31.237">  2  9  1 -1</clus>
<clus scale="   84.700">  2 10  1 -1</clus>
<clus scale="   85.017">  7  8 -1 -1</clus>
<clus scale="   97.016">  2  7  1 -1</clus>
<clus scale="  105.381">  5  6 -1 -1</clus>
<clus scale="   31.237">  2  5  1 -1</clus>
</clustering>
</event>
<event>
10    4  0.7204077E-005  0.2333731E+03  0.7546771E-02  0.1162451E+00
         21   -1    0    0  503  502  0.00000000000E+00  0.00000000000E+00  0.12284742461E+03  0.12284742461E+03  0.00000000000E+00 0. -1.
          2   -1    0    0  502    0 -0.00000000000E+00 -0.00000000000E+00 -0.12217164817E+04  0.12217164817E+04  0.00000000000E+00 0. -1.
         24    2    1    2    0    0  0.21116652558E+02  0.34083160178E+02 -0.27766079939E+03  0.29245335860E+03  0.82618839336E+02 0.  0.
         23    2    1    2    0    0  0.19687493785E+03  0.64042914288E+02 -0.10271445967E+03  0.24716590955E+03  0.87632702776E+02 0.  0.
        -11    1    3    3    0    0  0.27570769015E+02 -0.20221717730E+02 -0.14471171601E+03  0.14869615302E+03  0.00000000000E+00 0.  1.
         12    1    3    3    0    0 -0.64541164569E+01  0.54304877908E+02 -0.13294908338E+03  0.14375720558E+03  0.00000000000E+00 0. -1.
        -13    1    4    4    0    0  0.15302288272E+03  0.74641743070E+01 -0.71705141835E+02  0.16915479272E+03  0.00000000000E+00 0. -1.
         13    1    4    4    0    0  0.43852055127E+02  0.56578739982E+02 -0.31009317832E+02  0.78011116831E+02  0.00000000000E+00 0.  1.
         21    1    1    2  503  501 -0.42493170674E+02  0.78998876789E+02 -0.82709528156E+02  0.12201376207E+03  0.00000000000E+00 0. -1.
          1    1    1    2  501    0 -0.17549841973E+03 -0.17712495126E+03 -0.63578426989E+03  0.68293087609E+03  0.00000000000E+00 0. -1.
<scales pt_clust_5="13000.00000" pt_clust_6="13000.00000" pt_clust_7="13000.00000" pt_clust_8="13000.00000" pt_clust_9="89.70224" pt_clust_10="216.29509"></scales>
<clustering>
<clus scale="   82.619">  5  6 -1 -1</clus>
<clus scale="   87.633">  7  8 -1 -1</clus>
<clus scale="   89.702">  1  9  2 -1</clus>
<clus scale="   93.446">  2  5  1 -1</clus>
<clus scale="  216.295">  1 10  2 -1</clus>
<clus scale="   89.702">  1  5  2 -1</clus>
</clustering>
</event>
<event>
10    4  0.7204077E-005  0.1889901E+03  0.7546771E-02  0.1190307E+00
         21   -1    0    0  501  502  0.00000000000E+00  0.00000000000E+00  0.91124605880E+02  0.91124605880E+02  0.00000000000E+00 0. -1.
          2   -1    0    0  503    0 -0.00000000000E+00 -0.00000000000E+00 -0.13113496574E+04  0.13113496574E+04  0.00000000000E+00 0. -1.
         24    2    1    2    0    0 -0.11206511406E+02 -0.47768480181E+02 -0.11536097387E+03  0.14861372659E+03  0.79815235651E+02 0.  0.
         23    2    1    2    0    0  0.14268424661E+03 -0.10380549433E+03 -0.26086668364E+03  0.32794535498E+03  0.91445909320E+02 0.  0.
        -13    1    3    3    0    0 -0.21681888457E+02  0.61029417093E+01 -0.80512449951E+02  0.83603856261E+02  0.00000000000E+00 0.  1.
         14    1    3    3    0    0  0.10475377050E+02 -0.53871421890E+02 -0.34848523916E+02  0.65009870327E+02  0.00000000000E+00 0. -1.
        -13    1    4    4    0    0 -0.72688900528E+01 -0.30628063409E+02 -0.34121725675E+02  0.46424209135E+02  0.00000000000E+00 0.  1.
         13    1    4    4    0    0  0.14995313667E+03 -0.73177430923E+02 -0.22674495797E+03  0.28152114584E+03  0.00000000000E+00 0. -1.
         21    1    1    2  503  502 -0.93391097772E+02 -0.42166041626E+02 -0.62868320859E+02  0.12021771075E+03  0.00000000000E+00 0. -1.
          1    1    1    2  501    0 -0.38086637434E+02  0.19374001614E+03 -0.78112907318E+03  0.80569747100E+03  0.00000000000E+00 0. -1.
<scales pt_clust_5="13000.00000" pt_clust_6="13000.00000" pt_clust_7="13000.00000" pt_clust_8="13000.00000" pt_clust_9="104.83100" pt_clust_10="165.39325"></scales>
<clustering>
<clus scale="   79.815">  5  6 -1 -1</clus>
<clus scale="   91.446">  7  8 -1 -1</clus>
<clus scale="   93.690">  2  5  1 -1</clus>
<clus scale="  104.831">  1  9  2 -1</clus>
<clus scale="  165.393">  1 10  2 -1</clus>
<clus scale="  104.831">  1  5  2 -1</clus>
</clustering>
</event>
<event>
10    4  0.7204077E-005  0.1066914E+03  0.7546771E-02  0.1271285E+00
          2   -1    0    0  503    0 -0.00000000000E+00  0.00000000000E+00  0.77815641162E+03  0.77815641162E+03  0.00000000000E+00 0. -1.
         21   -1    0    0  501  502  0.00000000000E+00 -0.00000000000E+00 -0.54705743304E+02  0.54705743304E+02  0.00000000000E+00 0. -1.
         23    2    1    2    0    0 -0.23683184578E+02  0.26373343424E+01  0.15393144329E+03  0.18053534766E+03  0.91270333399E+02 0.  0.
         24    2    1    2    0    0  0.10672471289E+03  0.46917804442E+02  0.10971931186E+03  0.17931261859E+03  0.80766596301E+02 0.  0.
        -13    1    4    4    0    0  0.90366109832E+02  0.67706198197E+02  0.74554974060E+02  0.13530930211E+03  0.00000000000E+00 0.  1.
         14    1    4    4    0    0  0.16358603054E+02 -0.20788393755E+02  0.35164337796E+02  0.44003316482E+02  0.00000000000E+00 0. -1.
        -13    1    3    3    0    0 -0.38729118672E+02  0.34013076261E+02  0.12525052756E+03  0.13544197519E+03  0.00000000000E+00 0. -1.
         13    1    3    3    0    0  0.15045934095E+02 -0.31375741919E+02  0.28680915727E+02  0.45093372470E+02  0.00000000000E+00 0.  1.
         21    1    1    2  503  502 -0.31600038387E+02 -0.15987165832E+02  0.70465367951E+02  0.78863933315E+02  0.00000000000E+00 0. -1.
          1    1    1    2  501    0 -0.51441489921E+02 -0.33567972952E+02  0.38933454522E+03  0.39415025535E+03  0.00000000000E+00 0. -1.
<scales pt_clust_5="13000.00000" pt_clust_6="13000.00000" pt_clust_7="13000.00000" pt_clust_8="13000.00000" pt_clust_9="35.41401" pt_clust_10="81.05560"></scales>
<clustering>
<clus scale="   35.414">  1  9  2 -1</clus>
<clus scale="   80.767">  5  6 -1 -1</clus>
<clus scale="   81.056">  2 10  1 -1</clus>
<clus scale="   91.270">  7  8 -1 -1</clus>
<clus scale="   97.857">  2  5  1 -1</clus>
<clus scale="   81.056">  2  5  1 -1</clus>
</clustering>
</event>
<event>
10    4  0.7204077E-005  0.3294218E+03  0.7546771E-02  0.1084771E+00
          2   -1    0    0  502    0 -0.00000000000E+00  0.00000000000E+00  0.13238781309E+04  0.13238781309E+04  0.00000000000E+00 0. -1.
         21   -1    0    0  503  502  0.00000000000E+00 -0.00000000000E+00 -0.16949558790E+03  0.16949558790E+03  0.00000000000E+00 0.  1.
         24    2    1    2    0    0 -0.19101050710E+03 -0.88896834758E+02  0.32507015727E+03  0.39565998669E+03  0.80551578950E+02 0.  0.
         23    2    1    2    0    0  0.15789760430E+03 -0.27160119980E+03  0.47202907075E+03  0.57434004894E+03  0.91412160042E+02 0.  0.
        -11    1    3    3    0    0 -0.12785865935E+03 -0.42531052912E+02  0.13813593101E+03  0.19297218107E+03  0.00000000000E+00 0.  1.
         12    1    3    3    0    0 -0.63151847756E+02 -0.46365781846E+02  0.18693422626E+03  0.20268780563E+03  0.00000000000E+00 0. -1.
        -13    1    4    4    0    0  0.12278720043E+03 -0.26407304085E+03  0.42360188150E+03  0.51405235288E+03  0.00000000000E+00 0.  1.
         13    1    4    4    0    0  0.35110403866E+02 -0.75281589495E+01  0.48427189254E+02  0.60287696057E+02  0.00000000000E+00 0. -1.
         21    1    1    2  503  501 -0.27295882536E+02  0.14188717396E+02  0.24890839124E+02  0.39571944317E+02  0.00000000000E+00 0.  1.
          1    1    1    2  501    0  0.60408785340E+02  0.34630931716E+03  0.33239247582E+03  0.48380173881E+03  0.00000000000E+00 0. -1.
<scales pt_clust_5="13000.00000" pt_clust_6="13000.00000" pt_clust_7="13000.00000" pt_clust_8="13000.00000" pt_clust_9="30.76337" pt_clust_10="316.48463"></scales>
<clustering>
<clus scale="   30.763">  2  9  1 -1</clus>
<clus scale="   80.552">  5  6 -1 -1</clus>
<clus scale="   91.412">  7  8 -1 -1</clus>
<clus scale="  229.438">  1  5  2 -1</clus>
<clus scale="  316.485">  2 10  1 -1</clus>
<clus scale="   30.763">  2  5  1 -1</clus>
</clustering>
</event>
<event>
10    4  0.7204077E-005  0.3264229E+03  0.7546771E-02  0.1125634E+00
          2   -1    0    0  502    0 -0.00000000000E+00  0.00000000000E+00  0.88655357132E+03  0.88655357132E+03  0.00000000000E+00 0. -1.
         21   -1    0    0  503  502  0.00000000000E+00 -0.00000000000E+00 -0.45403218353E+03  0.45403218353E+03  0.00000000000E+00 0. -1.
         24    2    1    2    0    0  0.99670868731E+01 -0.34764050979E+01  0.20955287564E+03  0.22529382138E+03  0.82057723894E+02 0.  0.
         23    2    1    2    0    0 -0.19059058738E+03 -0.25024491992E+03  0.60357413612E+02  0.33307658405E+03  0.91376701201E+02 0.  0.
        -13    1    3    3    0    0  0.21000012239E+02 -0.22072632861E+01  0.67229895774E+01  0.22160124415E+02  0.00000000000E+00 0.  1.
         14    1    3    3    0    0 -0.11032925366E+02 -0.12691418118E+01  0.20282988606E+03  0.20313369697E+03  0.00000000000E+00 0. -1.
        -11    1    4    4    0    0 -0.98153374178E+01 -0.53766072179E+02 -0.13025745946E+02  0.56185420027E+02  0.00000000000E+00 0.  1.
         11    1    4    4    0    0 -0.18077524996E+03 -0.19647884774E+03  0.73383159558E+02  0.27689116402E+03  0.00000000000E+00 0. -1.
         21    1    1    2  503  501 -0.45101148856E+02  0.39054685799E+02 -0.25462672151E+03  0.26152275124E+03  0.00000000000E+00 0. -1.
          1    1    1    2  501    0  0.22572464936E+03  0.21466663922E+03  0.41723782004E+03  0.52069259818E+03  0.00000000000E+00 0. -1.
<scales pt_clust_5="13000.00000" pt_clust_6="13000.00000" pt_clust_7="13000.00000" pt_clust_8="13000.00000" pt_clust_9="59.66056" pt_clust_10="313.37242"></scales>
<clustering>
<clus scale="   59.661">  2  9  1 -1</clus>
<clus scale="   82.058">  5  6 -1 -1</clus>
<clus scale="   82.484">  1  5  2 -1</clus>
<clus scale="   91.377">  7  8 -1 -1</clus>
<clus scale="  313.372">  2 10  1 -1</clus>
<clus scale="   59.661">  2  5  1 -1</clus>
</clustering>
</event>
<event>
10    4  0.7204077E-005  0.2686218E+03  0.7546771E-02  0.1122893E+00
          2   -1    0    0  503    0 -0.00000000000E+00  0.00000000000E+00  0.11512395731E+04  0.11512395731E+04  0.00000000000E+00 0. -1.
         21   -1    0    0  501  502  0.00000000000E+00 -0.00000000000E+00 -0.37331737512E+03  0.37331737512E+03  0.00000000000E+00 0. -1.
         24    2    1    2    0    0  0.48611671984E+02  0.12873370784E+03  0.75721360097E+03  0.77375929951E+03  0.79972207031E+02 0.  0.
         23    2    1    2    0    0 -0.29423126621E+03 -0.13493494901E+03  0.14912228242E+03  0.36853788394E+03  0.93825573832E+02 0.  0.
        -11    1    3    3    0    0  0.53247926808E+02  0.31617898288E+02  0.29226626207E+03  0.29875508556E+03  0.00000000000E+00 0.  1.
         12    1    3    3    0    0 -0.46362548243E+01  0.97115809549E+02  0.46494733890E+03  0.47500421395E+03  0.00000000000E+00 0. -1.
        -11    1    4    4    0    0 -0.27562314362E+02 -0.46648013002E+02  0.39276496066E+02  0.66920560617E+02  0.00000000000E+00 0.  1.
         11    1    4    4    0    0 -0.26666895184E+03 -0.88286936010E+02  0.10984578636E+03  0.30161732332E+03  0.00000000000E+00 0. -1.
         21    1    1    2  503  502  0.42318779366E+02 -0.38982256251E+02 -0.16144859342E+03  0.17139470152E+03  0.00000000000E+00 0. -1.
          1    1    1    2  501    0  0.20330081485E+03  0.45183497426E+02  0.33034908034E+02  0.21086506327E+03  0.00000000000E+00 0. -1.
<scales pt_clust_5="13000.00000" pt_clust_6="13000.00000" pt_clust_7="13000.00000" pt_clust_8="13000.00000" pt_clust_9="57.53690" pt_clust_10="251.70310"></scales>
<clustering>
<clus scale="   57.537">  2  9  1 -1</clus>
<clus scale="   79.972">  5  6 -1 -1</clus>
<clus scale="   93.826">  7  8 -1 -1</clus>
<clus scale="  158.428">  1  5  2 -1</clus>
<clus scale="  251.703">  2 10  1 -1</clus>
<clus scale="   57.537">  2  5  1 -1</clus>
</clustering>
</event>
<event>
10    4  0.7204077E-005  0.1959425E+03  0.7546771E-02  0.1188207E+00
         21   -1    0    0  503  502  0.00000000000E+00  0.00000000000E+00  0.13095998620E+03  0.13095998620E+03  0.00000000000E+00 0. -1.
          2   -1    0    0  502    0 -0.00000000000E+00 -0.00000000000E+00 -0.81620231479E+03  0.81620231479E+03  0.00000000000E+00 0. -1.
         24    2    1    2    0    0 -0.14211857131E+02  0.49927418687E+02 -0.13572778389E+03  0.16613240997E+03  0.80518459389E+02 0.  0.
         23    2    1    2    0    0  0.10754924397E+03  0.15454399880E+03 -0.16606396506E+03  0.26714949445E+03  0.91328661697E+02 0.  0.
        -11    1    3    3    0    0  0.23069357122E+02  0.15387579544E+02 -0.10059943948E+03  0.10435142580E+03  0.00000000000E+00 0.  1.
         12    1    3    3    0    0 -0.37281214254E+02  0.34539839144E+02 -0.35128344413E+02  0.61780984174E+02  0.00000000000E+00 0. -1.
        -13    1    4    4    0    0  0.33256404062E+01  0.27480992106E+02 -0.73487651143E+02  0.78528336807E+02  0.00000000000E+00 0.  1.
         13    1    4    4    0    0  0.10422360356E+03  0.12706300670E+03 -0.92576313916E+02  0.18862115764E+03  0.00000000000E+00 0. -1.
         21    1    1    2  503  501  0.39613197160E+02 -0.84569861577E+02 -0.30290392538E+01  0.93436834038E+02  0.00000000000E+00 0. -1.
          1    1    1    2  501    0 -0.13295058400E+03 -0.11990155591E+03 -0.38042154038E+03  0.42044356254E+03  0.00000000000E+00 0. -1.
<scales pt_clust_5="13000.00000" pt_clust_6="13000.00000" pt_clust_7="13000.00000" pt_clust_8="13000.00000" pt_clust_9="93.38772" pt_clust_10="173.35681"></scales>
<clustering>
<clus scale="   80.518">  5  6 -1 -1</clus>
<clus scale="   91.329">  7  8 -1 -1</clus>
<clus scale="   93.388">  1  9  2 -1</clus>
<clus scale="   88.065">  2  5  1 -1</clus>
<clus scale="  173.357">  1 10  2 -1</clus>
<clus scale="   93.388">  1  5  2 -1</clus>
</clustering>
</event>
<event>
10    4  0.7204077E-005  0.3503954E+03  0.7546771E-02  0.1062453E+00
          2   -1    0    0  502    0 -0.00000000000E+00  0.00000000000E+00  0.33516577564E+03  0.33516577564E+03  0.00000000000E+00 0. -1.
         21   -1    0    0  503  502  0.00000000000E+00 -0.00000000000E+00 -0.37553889118E+03  0.37553889118E+03  0.00000000000E+00 0. -1.
         24    2    1    2    0    0 -0.18721469545E+03 -0.40241138868E+02 -0.72654803649E+02  0.22013186719E+03  0.80688456497E+02 0.  0.
         23    2    1    2    0    0 -0.90719411730E+02 -0.32103763310E+02 -0.41951907095E+02  0.13818914260E+03  0.89864416427E+02 0.  0.
        -11    1    3    3    0    0 -0.22076257139E+02  0.22079170846E+02 -0.89342673896E+01  0.32475714747E+02  0.00000000000E+00 0.  1.
         12    1    3    3    0    0 -0.16513843831E+03 -0.62320309715E+02 -0.63720536259E+02  0.18765615245E+03  0.00000000000E+00 0. -1.
        -13    1    4    4    0    0  0.16315643190E+02 -0.16400268338E+02 -0.36051888024E+01  0.23412953692E+02  0.00000000000E+00 0.  1.
         13    1    4    4    0    0 -0.10703505492E+03 -0.15703494972E+02 -0.38346718292E+02  0.11477618891E+03  0.00000000000E+00 0. -1.
         21    1    1    2  503  501 -0.15938728470E+02 -0.13288716441E+02 -0.23227230208E+02  0.31147026712E+02  0.00000000000E+00 0. -1.
          1    1    1    2  501    0  0.29387283565E+03  0.85633618619E+02  0.97460825403E+02  0.32123663032E+03  0.00000000000E+00 0. -1.
<scales pt_clust_5="13000.00000" pt_clust_6="13000.00000" pt_clust_7="13000.00000" pt_clust_8="13000.00000" pt_clust_9="20.75170" pt_clust_10="299.99827"></scales>
<clustering>
<clus scale="   20.752">  2  9  1 -1</clus>
<clus scale="   80.688">  5  6 -1 -1</clus>
<clus scale="   89.864">  7  8 -1 -1</clus>
<clus scale="   90.859">  5  7 -1 -1</clus>
<clus scale="  299.998">  2 10  1 -1</clus>
<clus scale="   20.752">  2  5  1 -1</clus>
</clustering>
</event>
<event>
10    4  0.7204077E-005  0.1733093E+03  0.7546771E-02  0.1176241E+00
          4   -1    0    0  502    0 -0.00000000000E+00  0.00000000000E+00  0.75405006742E+03  0.75405006742E+03  0.00000000000E+00 0. -1.
         21   -1    0    0  503  502  0.00000000000E+00 -0.00000000000E+00 -0.80991331239E+02  0.80991331239E+02  0.00000000000E+00 0.  1.
         24    2    1    2    0    0 -0.27032963691E+02  0.16344586174E+03  0.55410737940E+03  0.58441716663E+03  0.84042286419E+02 0.  0.
         23    2    1    2    0    0 -0.23035933195E+01 -0.90251819678E+02  0.79566782164E+02  0.15459201851E+03  0.97041856261E+02 0.  0.
        -13    1    3    3    0    0 -0.44801127973E+02  0.15895672108E+03  0.52134396818E+03  0.54687650654E+03  0.00000000000E+00 0.  1.
         14    1    3    3    0    0  0.17768164282E+02  0.44891406564E+01  0.32763411219E+02  0.37540660096E+02  0.00000000000E+00 0. -1.
        -13    1    4    4    0    0 -0.46491587934E+02 -0.48706315146E+02  0.61792382722E+02  0.91389668159E+02  0.00000000000E+00 0. -1.
         13    1    4    4    0    0  0.44187994614E+02 -0.41545504531E+02  0.17774399443E+02  0.63202350354E+02  0.00000000000E+00 0.  1.
         21    1    1    2  503  501  0.56489408582E+01 -0.29288605885E+02 -0.37746088153E+01  0.30066270790E+02  0.00000000000E+00 0.  1.
          3    1    1    2  501    0  0.23687616152E+02 -0.43905436176E+02  0.43159183437E+02  0.65965942726E+02  0.00000000000E+00 0. -1.
<scales pt_clust_5="13000.00000" pt_clust_6="13000.00000" pt_clust_7="13000.00000" pt_clust_8="13000.00000" pt_clust_9="29.47519" pt_clust_10="87.58448"></scales>
<clustering>
<clus scale="   29.475">  9 10 -1 -1</clus>
<clus scale="   84.042">  5  6 -1 -1</clus>
<clus scale="   87.584">  2  9  1 -1</clus>
<clus scale="   97.042">  7  8 -1 -1</clus>
<clus scale="  166.379">  1  5  2 -1</clus>
<clus scale="   87.584">  2  5  1 -1</clus>
</clustering>
</event>
<event>
10    4  0.7204077E-005  0.1197017E+03  0.7546771E-02  0.1246575E+00
          2   -1    0    0  503    0 -0.00000000000E+00  0.00000000000E+00  0.88615717799E+03  0.88615717799E+03  0.00000000000E+00 0. -1.
         21   -1    0    0  501  502  0.00000000000E+00 -0.00000000000E+00 -0.41418588408E+02  0.41418588408E+02  0.00000000000E+00 0.  1.
         24    2    1    2    0    0 -0.25988271534E+02  0.72817023609E+02  0.48626796197E+03  0.49908980009E+03  0.81586693349E+02 0.  0.
         23    2    1    2    0    0 -0.36268010465E+01 -0.84497954010E+02  0.12096036051E+03  0.17339065847E+03  0.90993701499E+02 0.  0.
        -13    1    3    3    0    0 -0.52495628181E+02  0.25953878635E+02  0.25347432461E+03  0.26015116381E+03  0.00000000000E+00 0.  1.
         14    1    3    3    0    0  0.26507356647E+02  0.46863144974E+02  0.23279363736E+03  0.23893863628E+03  0.00000000000E+00 0. -1.
        -13    1    4    4    0    0  0.22443022088E+02 -0.44182709824E+02  0.11473385892E+03  0.12497863606E+03  0.00000000000E+00 0. -1.
         13    1    4    4    0    0 -0.26069823135E+02 -0.40315244187E+02  0.62265015886E+01  0.48412022413E+02  0.00000000000E+00 0.  1.
         21    1    1    2  503  502 -0.85375625122E+01  0.35787058145E+02  0.49096699290E+02  0.61352175068E+02  0.00000000000E+00 0. -1.
          1    1    1    2  501    0  0.38152635093E+02 -0.24106127744E+02  0.18841356781E+03  0.19374313277E+03  0.00000000000E+00 0. -1.
<scales pt_clust_5="13000.00000" pt_clust_6="13000.00000" pt_clust_7="13000.00000" pt_clust_8="13000.00000" pt_clust_9="36.79135" pt_clust_10="43.18536"></scales>
<clustering>
<clus scale="   36.791">  2  9  1 -1</clus>
<clus scale="   43.185">  2 10  1 -1</clus>
<clus scale="   81.587">  5  6 -1 -1</clus>
<clus scale="   90.994">  7  8 -1 -1</clus>
<clus scale="  112.717">  1  5  2 -1</clus>
<clus scale="   36.791">  2  5  1 -1</clus>
</clustering>
</event>
<event>
10    4  0.7204077E-005  0.1047911E+03  0.7546771E-02  0.1274220E+00
         21   -1    0    0  501  502  0.00000000000E+00  0.00000000000E+00  0.10561621695E+03  0.10561621695E+03  0.00000000000E+00 0.  1.
          2   -1    0    0  503    0 -0.00000000000E+00 -0.00000000000E+00 -0.55336603179E+03  0.55336603179E+03  0.00000000000E+00 0. -1.
         24    2    1    2    0    0  0.34396419800E+02  0.55647507526E+02 -0.28018624285E+03  0.29920533623E+03  0.82095942388E+02 0.  0.
         23    2    1    2    0    0 -0.13103609807E+02  0.21308062781E+02  0.12814419121E+01  0.93925561169E+02  0.90524200179E+02 0.  0.
        -13    1    3    3    0    0  0.16872207168E+02  0.75516101771E+02 -0.18836800999E+03  0.20364149918E+03  0.00000000000E+00 0.  1.
         14    1    3    3    0    0  0.17524212631E+02 -0.19868594245E+02 -0.91818232861E+02  0.95563837048E+02  0.00000000000E+00 0. -1.
        -11    1    4    4    0    0 -0.49735906709E+02  0.21048579870E+01  0.11984427473E+02  0.51202708378E+02  0.00000000000E+00 0.  1.
         11    1    4    4    0    0  0.36632296902E+02  0.19203204794E+02 -0.10702985561E+02  0.42722852791E+02  0.00000000000E+00 0. -1.
         21    1    1    2  503  502  0.22577680927E+02 -0.33650572842E+02  0.34592255436E+02  0.53279797905E+02  0.00000000000E+00 0.  1.
          1    1    1    2  501    0 -0.43870490919E+02 -0.43304997465E+02 -0.20343726934E+03  0.21257155345E+03  0.00000000000E+00 0. -1.
<scales pt_clust_5="13000.00000" pt_clust_6="13000.00000" pt_clust_7="13000.00000" pt_clust_8="13000.00000" pt_clust_9="40.52299" pt_clust_10="62.27416"></scales>
<clustering>
<clus scale="   40.523">  1  9  2 -1</clus>
<clus scale="   62.274">  1 10  2 -1</clus>
<clus scale="   82.096">  5  6 -1 -1</clus>
<clus scale="   90.524">  7  8 -1 -1</clus>
<clus scale="   97.603">  2  5  1 -1</clus>
<clus scale="   40.523">  1  5  2 -1</clus>
</clustering>
</event>
<event>
10    4  0.7204077E-005  0.1369996E+03  0.7546771E-02  0.1236517E+00
         21   -1    0    0  501  502  0.00000000000E+00  0.00000000000E+00  0.21524426700E+03  0.21524426700E+03  0.00000000000E+00 0.  1.
          2   -1    0    0  503    0 -0.00000000000E+00 -0.00000000000E+00 -0.59293528164E+03  0.59293528164E+03  0.00000000000E+00 0. -1.
         24    2    1    2    0    0 -0.25669532622E+02 -0.45279887932E+02 -0.18467635332E+03  0.20694960802E+03  0.77547350882E+02 0.  0.
         23    2    1    2    0    0 -0.48058545732E+02 -0.90986234762E+02 -0.43312825563E+02  0.14296253416E+03  0.89298189122E+02 0.  0.
        -11    1    3    3    0    0  0.21600037371E+02 -0.18621633547E+02 -0.11581310349E+03  0.11927280407E+03  0.00000000000E+00 0.  1.
         12    1    3    3    0    0 -0.47269569994E+02 -0.26658254385E+02 -0.68863249826E+02  0.87676803950E+02  0.00000000000E+00 0. -1.
        -13    1    4    4    0    0  0.16486254732E+02 -0.51990208610E+02  0.27254498675E+01  0.54609582157E+02  0.00000000000E+00 0. -1.
         13    1    4    4    0    0 -0.64544800464E+02 -0.38996026152E+02 -0.46038275430E+02  0.88352952001E+02  0.00000000000E+00 0.  1.
         21    1    1    2  503  502 -0.12185796397E+02  0.25491550487E+02  0.13659761967E+03  0.13948914826E+03  0.00000000000E+00 0.  1.
          1    1    1    2  501    0  0.85913874751E+02  0.11077457221E+03 -0.28629945543E+03  0.31877825820E+03  0.00000000000E+00 0. -1.
<scales pt_clust_5="13000.00000" pt_clust_6="13000.00000" pt_clust_7="13000.00000" pt_clust_8="13000.00000" pt_clust_9="28.25443" pt_clust_10="103.89771"></scales>
<clustering>
<clus scale="   28.254">  1  9  2 -1</clus>
<clus scale="   77.547">  5  6 -1 -1</clus>
<clus scale="   89.298">  7  8 -1 -1</clus>
<clus scale="   92.177">  2  5  1 -1</clus>
<clus scale="  103.898">  1 10  2 -1</clus>
<clus scale="   28.254">  1  5  2 -1</clus>
</clustering>
</event>
<event>
10    4  0.7204077E-005  0.1070790E+03  0.7546771E-02  0.1274849E+00
          2   -1    0    0  502    0 -0.00000000000E+00  0.00000000000E+00  0.81192396395E+03  0.81192396395E+03  0.00000000000E+00 0. -1.
         21   -1    0    0  503  502  0.00000000000E+00 -0.00000000000E+00 -0.98961783755E+02  0.98961783755E+02  0.00000000000E+00 0. -1.
         24    2    1    2    0    0 -0.16912238098E+02 -0.46454083723E+02  0.62222736729E+03  0.62933651476E+03  0.80333968606E+02 0.  0.
         23    2    1    2    0    0 -0.53971243130E+02 -0.84041116077E+01  0.82317836918E+02  0.13967953765E+03  0.98745241836E+02 0.  0.
        -13    1    3    3    0    0  0.18559458743E+02 -0.52724849286E+02  0.30591373820E+03  0.31097842121E+03  0.00000000000E+00 0.  1.
         14    1    3    3    0    0 -0.35471696841E+02  0.62707655636E+01  0.31631362909E+03  0.31835809354E+03  0.00000000000E+00 0. -1.
        -11    1    4    4    0    0 -0.78139382910E+02  0.13500488081E+02  0.49893513534E+02  0.93687720821E+02  0.00000000000E+00 0. -1.
         11    1    4    4    0    0  0.24168139780E+02 -0.21904599688E+02  0.32424323384E+02  0.45991816825E+02  0.00000000000E+00 0.  1.
         21    1    1    2  503  501 -0.19114085729E+02  0.34793206425E+02 -0.21224187752E+02  0.45015348852E+02  0.00000000000E+00 0. -1.
          1    1    1    2  501    0  0.89997566957E+02  0.20064988906E+02  0.29641163740E+02  0.96854346448E+02  0.00000000000E+00 0. -1.
<scales pt_clust_5="13000.00000" pt_clust_6="13000.00000" pt_clust_7="13000.00000" pt_clust_8="13000.00000" pt_clust_9="39.69780" pt_clust_10="88.70932"></scales>
<clustering>
<clus scale="   39.698">  2  9  1 -1</clus>
<clus scale="   80.334">  5  6 -1 -1</clus>
<clus scale="   88.709">  2 10  1 -1</clus>
<clus scale="   90.382">  1  5  2 -1</clus>
<clus scale="   98.745">  7  8 -1 -1</clus>
<clus scale="   39.698">  2  5  1 -1</clus>
</clustering>
</event>
<event>
10    4  0.7204077E-005  0.3086165E+03  0.7546771E-02  0.1116059E+00
          2   -1    0    0  502    0 -0.00000000000E+00  0.00000000000E+00  0.12020739971E+04  0.12020739971E+04  0.00000000000E+00 0. -1.
         21   -1    0    0  503  502  0.00000000000E+00 -0.00000000000E+00 -0.25417399907E+03  0.25417399907E+03  0.00000000000E+00 0. -1.
         23    2    1    2    0    0  0.49341608828E+02 -0.89558689416E+02  0.16835132587E+03  0.20853055982E+03  0.68465116993E+02 0.  0.
         24    2    1    2    0    0 -0.16850313605E+03 -0.19055107616E+03  0.73167246390E+03  0.77862927179E+03  0.78841162895E+02 0.  0.
        -13    1    4    4    0    0 -0.70945792440E+02 -0.27122768933E+02  0.21309211583E+03  0.22622378276E+03  0.00000000000E+00 0.  1.
         14    1    4    4    0    0 -0.97557343612E+02 -0.16342830723E+03  0.51858034807E+03  0.55240548902E+03  0.00000000000E+00 0. -1.
        -13    1    3    3    0    0 -0.11221526495E+02 -0.35556123766E+02  0.28836708652E+02  0.47135086295E+02  0.00000000000E+00 0. -1.
         13    1    3    3    0    0  0.60563135323E+02 -0.54002565650E+02  0.13951461721E+03  0.16139547352E+03  0.00000000000E+00 0.  1.
         21    1    1    2  503  501 -0.23244395430E+02 -0.21550707169E+02 -0.99479364007E+02  0.10440727351E+03  0.00000000000E+00 0.  1.
          1    1    1    2  501    0  0.14240592265E+03  0.30166047275E+03  0.14735557228E+03  0.36468089107E+03  0.00000000000E+00 0. -1.
<scales pt_clust_5="13000.00000" pt_clust_6="13000.00000" pt_clust_7="13000.00000" pt_clust_8="13000.00000" pt_clust_9="31.69755" pt_clust_10="298.37598"></scales>
<clustering>
<clus scale="   31.698">  2  9  1 -1</clus>
<clus scale="   68.465">  7  8 -1 -1</clus>
<clus scale="   78.841">  5  6 -1 -1</clus>
<clus scale="  123.964">  1  7  2 -1</clus>
<clus scale="  298.376">  2 10  1 -1</clus>
<clus scale="   31.698">  2  5  1 -1</clus>
</clustering>
</event>
<event>
10    4  0.7204077E-005  0.1709542E+03  0.7546771E-02  0.1178540E+00
          2   -1    0    0  503    0 -0.00000000000E+00  0.00000000000E+00  0.61057819142E+03  0.61057819142E+03  0.00000000000E+00 0. -1.
         21   -1    0    0  501  502  0.00000000000E+00 -0.00000000000E+00 -0.22387092190E+03  0.22387092190E+03  0.00000000000E+00 0. -1.
         23    2    1    2    0    0 -0.67113435601E+02  0.11517572266E+03  0.19878289883E+03  0.25671788670E+03  0.92842728078E+02 0.  0.
         24    2    1    2    0    0  0.24674515476E+03 -0.19339766822E+02  0.90089010182E+02  0.27541615236E+03  0.80503597723E+02 0.  0.
        -11    1    4    4    0    0  0.39709834660E+02  0.27108797362E+02  0.16146612453E+02  0.50719532301E+02  0.00000000000E+00 0.  1.
         12    1    4    4    0    0  0.20703532010E+03 -0.46448564184E+02  0.73942397728E+02  0.22469662005E+03  0.00000000000E+00 0. -1.
        -13    1    3    3    0    0 -0.41015929662E+02  0.10749763939E+03  0.94335110841E+02  0.14878562464E+03  0.00000000000E+00 0. -1.
         13    1    3    3    0    0 -0.26097505939E+02  0.76780832682E+01  0.10444778799E+03  0.10793226207E+03  0.00000000000E+00 0.  1.
         21    1    1    2  503  502 -0.75609532640E+02 -0.12956513213E+03 -0.78752986611E+01  0.15021965657E+03  0.00000000000E+00 0. -1.
          1    1    1    2  501    0 -0.10402218652E+03  0.33729176293E+02  0.10571065917E+03  0.15209541769E+03  0.00000000000E+00 0. -1.
<scales pt_clust_5="13000.00000" pt_clust_6="13000.00000" pt_clust_7="13000.00000" pt_clust_8="13000.00000" pt_clust_9="164.65925" pt_clust_10="109.35394"></scales>
<clustering>
<clus scale="   80.504">  5  6 -1 -1</clus>
<clus scale="   92.843">  7  8 -1 -1</clus>
<clus scale="  109.354">  2 10  1 -1</clus>
<clus scale="  164.659">  2  9  1 -1</clus>
<clus scale="  164.579">  2  5  1 -1</clus>
<clus scale="  109.354">  2  5  1 -1</clus>
</clustering>
</event>
<event>
10    4  0.7204077E-005  0.3434329E+03  0.7546771E-02  0.1100836E+00
         21   -1    0    0  503  502  0.00000000000E+00  0.00000000000E+00  0.12870875163E+04  0.12870875163E+04  0.00000000000E+00 0. -1.
          2   -1    0    0  502    0 -0.00000000000E+00 -0.00000000000E+00 -0.74677687201E+03  0.74677687201E+03  0.00000000000E+00 0. -1.
         23    2    1    2    0    0  0.22060640146E+02  0.89160592990E+02 -0.10804066895E+03  0.17313720536E+03  0.99334900955E+02 0.  0.
         24    2    1    2    0    0  0.27911999991E+03  0.89428478143E+02 -0.53381920264E+03  0.61422617561E+03  0.80033909364E+02 0.  0.
        -13    1    4    4    0    0  0.23572841588E+02  0.26494415188E+02 -0.32884490478E+02  0.48363442916E+02  0.00000000000E+00 0.  1.
         14    1    4    4    0    0  0.25554715832E+03  0.62934062955E+02 -0.50093471216E+03  0.56586273269E+03  0.00000000000E+00 0. -1.
        -13    1    3    3    0    0  0.51242750029E+02  0.38390773494E+02 -0.19405731486E+02  0.66904808008E+02  0.00000000000E+00 0. -1.
         13    1    3    3    0    0 -0.29182109883E+02  0.50769819495E+02 -0.88634937459E+02  0.10623239735E+03  0.00000000000E+00 0.  1.
         21    1    1    2  503  501 -0.74398951075E+02 -0.60826448147E+02  0.63945756335E+03  0.64663825748E+03  0.00000000000E+00 0. -1.
          1    1    1    2  501    0 -0.22678168898E+03 -0.11776262299E+03  0.54271295256E+03  0.59986274989E+03  0.00000000000E+00 0. -1.
<scales pt_clust_5="13000.00000" pt_clust_6="13000.00000" pt_clust_7="13000.00000" pt_clust_8="13000.00000" pt_clust_9="96.09922" pt_clust_10="333.97715"></scales>
<clustering>
<clus scale="   80.034">  5  6 -1 -1</clus>
<clus scale="   96.099">  1  9  2 -1</clus>
<clus scale="   99.335">  7  8 -1 -1</clus>
<clus scale="  132.715">  2  7  1 -1</clus>
<clus scale="  333.977">  1 10  2 -1</clus>
<clus scale="   96.099">  1  5  2 -1</clus>
</clustering>
</event>
<event>
10    4  0.7204077E-005  0.1475038E+03  0.7546771E-02  0.1206717E+00
         -1   -1    0    0    0  501 -0.00000000000E+00  0.00000000000E+00  0.38230197171E+03  0.38230197171E+03  0.00000000000E+00 0.  1.
         21   -1    0    0  503  502  0.00000000000E+00 -0.00000000000E+00 -0.22987293500E+03  0.22987293500E+03  0.00000000000E+00 0.  1.
         24    2    1    2    0    0  0.99724120245E+02 -0.31401616135E+02  0.93128970050E+02  0.16055571772E+03  0.78575898179E+02 0.  0.
         23    2    1    2    0    0 -0.15572490513E+03 -0.17664889884E+02 -0.65842905232E+02  0.19448791674E+03  0.94487920788E+02 0.  0.
        -13    1    3    3    0    0  0.70817175842E+02  0.17506177529E+02  0.42306229343E+02  0.84328854416E+02  0.00000000000E+00 0.  1.
         14    1    3    3    0    0  0.28906944403E+02 -0.48907793664E+02  0.50822740707E+02  0.76226863302E+02  0.00000000000E+00 0. -1.
        -11    1    4    4    0    0 -0.31887327572E+02 -0.45091811211E+02 -0.29151964304E+02  0.62449260370E+02  0.00000000000E+00 0.  1.
         11    1    4    4    0    0 -0.12383757756E+03  0.27426921327E+02 -0.36690940928E+02  0.13203865637E+03  0.00000000000E+00 0. -1.
         21    1    1    2  503  501 -0.17790262393E+02 -0.28260316803E+02 -0.45099095873E+02  0.56116551839E+02  0.00000000000E+00 0.  1.
         -2    1    1    2    0  502  0.73791047281E+02  0.77326822822E+02  0.17024206776E+03  0.20101472041E+03  0.00000000000E+00 0.  1.
<scales pt_clust_5="13000.00000" pt_clust_6="13000.00000" pt_clust_7="13000.00000" pt_clust_8="13000.00000" pt_clust_9="33.39370" pt_clust_10="104.07837"></scales>
<clustering>
<clus scale="   33.394">  2  9  1 -1</clus>
<clus scale="   78.576">  5  6 -1 -1</clus>
<clus scale="   94.488">  7  8 -1 -1</clus>
<clus scale="  104.078">  2 10  1 -1</clus>
<clus scale="  137.853">  1  5  2 -1</clus>
<clus scale="   33.394">  2  5  1 -1</clus>
</clustering>
</event>
<event>
10    4  0.7204077E-005  0.1441070E+03  0.7546771E-02  0.1210622E+00
          2   -1    0    0  502    0 -0.00000000000E+00  0.00000000000E+00  0.90702378080E+03  0.90702378080E+03  0.00000000000E+00 0. -1.
         21   -1    0    0  503  502  0.00000000000E+00 -0.00000000000E+00 -0.11550552568E+03  0.11550552568E+03  0.00000000000E+00 0. -1.
         24    2    1    2    0    0 -0.32926161612E+02  0.12954711718E+03  0.46957098693E+03  0.49475865819E+03  0.80141315193E+02 0.  0.
         23    2    1    2    0    0  0.74239052967E+02  0.74626744354E+01  0.22342041826E+02  0.12151261556E+03  0.93268539245E+02 0.  0.
        -13    1    3    3    0    0 -0.32727347972E+02  0.11534233808E+02  0.15353475727E+03  0.15740724108E+03  0.00000000000E+00 0.  1.
         14    1    3    3    0    0 -0.19881364056E+00  0.11801288337E+03  0.31603622966E+03  0.33735141711E+03  0.00000000000E+00 0. -1.
        -13    1    4    4    0    0  0.51908153064E+02 -0.29875411543E+02  0.42624395646E+02  0.73510786103E+02  0.00000000000E+00 0.  1.
         13    1    4    4    0    0  0.22330899904E+02  0.37338085979E+02 -0.20282353819E+02  0.48001829460E+02  0.00000000000E+00 0. -1.
         21    1    1    2  503  501  0.91748881804E+02 -0.72863760810E+02  0.81045780405E+02  0.14246193693E+03  0.00000000000E+00 0. -1.
          1    1    1    2  501    0 -0.13306177316E+03 -0.64146030805E+02  0.21855944596E+03  0.26379609580E+03  0.00000000000E+00 0. -1.
<scales pt_clust_5="13000.00000" pt_clust_6="13000.00000" pt_clust_7="13000.00000" pt_clust_8="13000.00000" pt_clust_9="117.16222" pt_clust_10="137.03091"></scales>
<clustering>
<clus scale="   80.141">  5  6 -1 -1</clus>
<clus scale="   93.269">  7  8 -1 -1</clus>
<clus scale="  117.162">  2  9  1 -1</clus>
<clus scale="  137.031">  2 10  1 -1</clus>
<clus scale="  135.980">  1  5  2 -1</clus>
<clus scale="  117.162">  2  5  1 -1</clus>
</clustering>
</event>
<event>
10    4  0.7204077E-005  0.1760691E+03  0.7546771E-02  0.1201770E+00
          2   -1    0    0  503    0 -0.00000000000E+00  0.00000000000E+00  0.39643931693E+03  0.39643931693E+03  0.00000000000E+00 0. -1.
         21   -1    0    0  501  502  0.00000000000E+00 -0.00000000000E+00 -0.54051325603E+03  0.54051325603E+03  0.00000000000E+00 0. -1.
         24    2    1    2    0    0 -0.35825733797E+02  0.33968927077E+02  0.10904096221E+03  0.14236129279E+03  0.77067730180E+02 0.  0.
         23    2    1    2    0    0  0.57879579243E+02  0.14203438325E+03 -0.50603441327E+00  0.17870352549E+03  0.91710862127E+02 0.  0.
        -13    1    3    3    0    0  0.17886159126E+02  0.26961296611E+02  0.19694308454E+02  0.37877328162E+02  0.00000000000E+00 0.  1.
         14    1    3    3    0    0 -0.53711892922E+02  0.70076304668E+01  0.89346653759E+02  0.10448396463E+03  0.00000000000E+00 0. -1.
        -13    1    4    4    0    0 -0.23126208706E+02  0.20521497392E+02  0.94371466422E+01  0.32326662696E+02  0.00000000000E+00 0.  1.
         13    1    4    4    0    0  0.81005787950E+02  0.12151288586E+03 -0.99431810555E+01  0.14637686279E+03  0.00000000000E+00 0. -1.
         21    1    1    2  503  502 -0.59016775308E+02 -0.96980431144E+02 -0.41570344223E+03  0.43092636920E+03  0.00000000000E+00 0. -1.
          1    1    1    2  501    0  0.36962929861E+02 -0.79022879184E+02  0.16309457533E+03  0.18496138548E+03  0.00000000000E+00 0. -1.
<scales pt_clust_5="13000.00000" pt_clust_6="13000.00000" pt_clust_7="13000.00000" pt_clust_8="13000.00000" pt_clust_9="150.29783" pt_clust_10="87.24036"></scales>
<clustering>
<clus scale="   77.068">  5  6 -1 -1</clus>
<clus scale="   87.240">  2 10  1 -1</clus>
<clus scale="   90.178">  1  5  2 -1</clus>
<clus scale="   91.711">  7  8 -1 -1</clus>
<clus scale="  150.298">  2  9  1 -1</clus>
<clus scale="   87.240">  2  5  1 -1</clus>
</clustering>
</event>
<event>
10    4  0.7204077E-005  0.2347265E+03  0.7546771E-02  0.1163534E+00
         21   -1    0    0  501  502  0.00000000000E+00  0.00000000000E+00  0.13957204817E+03  0.13957204817E+03  0.00000000000E+00 0. -1.
          2   -1    0    0  503    0 -0.00000000000E+00 -0.00000000000E+00 -0.91706496192E+03  0.91706496192E+03  0.00000000000E+00 0. -1.
         23    2    1    2    0    0  0.44110213838E+01 -0.39954180814E+00 -0.95357924268E+02  0.13011584163E+03  0.88415958854E+02 0.  0.
         24    2    1    2    0    0  0.19595068782E+03  0.30938808650E+01 -0.38480660803E+03  0.43962109349E+03  0.82367081413E+02 0.  0.
        -11    1    4    4    0    0  0.70642311453E+02  0.38761948434E+02 -0.12067007157E+03  0.14510027907E+03  0.00000000000E+00 0.  1.
         12    1    4    4    0    0  0.12530837637E+03 -0.35668067569E+02 -0.26413653646E+03  0.29452081442E+03  0.00000000000E+00 0. -1.
        -13    1    3    3    0    0 -0.22592051707E+02 -0.46229504247E+01 -0.99796747616E+02  0.10242637993E+03  0.00000000000E+00 0.  1.
         13    1    3    3    0    0  0.27003073091E+02  0.42234086165E+01  0.44388233484E+01  0.27689461703E+02  0.00000000000E+00 0. -1.
         21    1    1    2  503  502  0.47881343953E+02 -0.68847955393E+01  0.43617411156E+02  0.65134492124E+02  0.00000000000E+00 0. -1.
          1    1    1    2  501    0 -0.24824305316E+03  0.41904564825E+01 -0.34094579261E+03  0.42176558284E+03  0.00000000000E+00 0. -1.
<scales pt_clust_5="13000.00000" pt_clust_6="13000.00000" pt_clust_7="13000.00000" pt_clust_8="13000.00000" pt_clust_9="48.37379" pt_clust_10="219.80036"></scales>
<clustering>
<clus scale="   48.374">  1  9  2 -1</clus>
<clus scale="   82.367">  5  6 -1 -1</clus>
<clus scale="   88.416">  7  8 -1 -1</clus>
<clus scale="   89.564">  2  7  1 -1</clus>
<clus scale="  219.800">  1 10  2 -1</clus>
<clus scale="   48.374">  1  5  2 -1</clus>
</clustering>
</event>
<event>
10    4  0.7204077E-005  0.1465999E+03  0.7546771E-02  0.1226597E+00
         21   -1    0    0  503  502  0.00000000000E+00  0.00000000000E+00  0.26867321122E+03  0.26867321122E+03  0.00000000000E+00 0. -1.
          2   -1    0    0  502    0 -0.00000000000E+00 -0.00000000000E+00 -0.31984937304E+03  0.31984937304E+03  0.00000000000E+00 0. -1.
         24    2    1    2    0    0 -0.15883317631E+02  0.38176135689E+02 -0.12632797204E+03  0.15565249844E+03  0.80989176037E+02 0.  0.
         23    2    1    2    0    0 -0.97925783366E+02 -0.60631475025E+02  0.53402519741E+01  0.14593729690E+03  0.89462514637E+02 0.  0.
        -11    1    3    3    0    0 -0.41567017471E+02  0.47375870072E+02 -0.79439340762E+02  0.10140462942E+03  0.00000000000E+00 0.  1.
         12    1    3    3    0    0  0.25683699840E+02 -0.91997343825E+01 -0.46888631279E+02  0.54247869021E+02  0.00000000000E+00 0. -1.
        -13    1    4    4    0    0 -0.42805817445E+02  0.16252756365E+02 -0.16813162979E+02  0.48776762356E+02  0.00000000000E+00 0.  1.
         13    1    4    4    0    0 -0.55119965921E+02 -0.76884231391E+02  0.22153414953E+02  0.97160534549E+02  0.00000000000E+00 0. -1.
         21    1    1    2  503  501 -0.11747287931E+02  0.22163711556E+02  0.14058345667E+03  0.14280384159E+03  0.00000000000E+00 0. -1.
          1    1    1    2  501    0  0.12555638893E+03  0.29162777919E+00 -0.70771898435E+02  0.14412894732E+03  0.00000000000E+00 0. -1.
<scales pt_clust_5="13000.00000" pt_clust_6="13000.00000" pt_clust_7="13000.00000" pt_clust_8="13000.00000" pt_clust_9="25.08444" pt_clust_10="116.13789"></scales>
<clustering>
<clus scale="   25.084">  1  9  2 -1</clus>
<clus scale="   80.989">  5  6 -1 -1</clus>
<clus scale="   89.463">  7  8 -1 -1</clus>
<clus scale="   92.281">  2  5  1 -1</clus>
<clus scale="  116.138">  1 10  2 -1</clus>
<clus scale="   25.084">  1  5  2 -1</clus>
</clustering>
</event>
<event>
10    4  0.7204077E-005  0.1361648E+03  0.7546771E-02  0.1235894E+00
         21   -1    0    0  503  502  0.00000000000E+00  0.00000000000E+00  0.26329724886E+03  0.26329724886E+03  0.00000000000E+00 0. -1.
          2   -1    0    0  502    0 -0.00000000000E+00 -0.00000000000E+00 -0.41212905813E+03  0.41212905813E+03  0.00000000000E+00 0. -1.
         23    2    1    2    0    0  0.55442502978E+01  0.16409698384E+01  0.39713980597E+02  0.99739356914E+02  0.91308858110E+02 0.  0.
         24    2    1    2    0    0  0.12814985632E+03  0.62255215549E+02 -0.11982189366E+02  0.16422542359E+03  0.80798015778E+02 0.  0.
        -13    1    4    4    0    0  0.11151884445E+03  0.81650596957E+02 -0.90969175357E+01  0.13851363312E+03  0.00000000000E+00 0.  1.
         14    1    4    4    0    0  0.16631011874E+02 -0.19395381408E+02 -0.28852718304E+01  0.25711790476E+02  0.00000000000E+00 0. -1.
        -11    1    3    3    0    0  0.25343228522E+00 -0.20953791197E+02 -0.24041259556E+02  0.31892126842E+02  0.00000000000E+00 0.  1.
         11    1    3    3    0    0  0.52908180125E+01  0.22594761036E+02  0.63755240153E+02  0.67847230072E+02  0.00000000000E+00 0. -1.
         21    1    1    2  503  501 -0.41153453978E+02 -0.54333793897E+02  0.99238411011E+02  0.12039115480E+03  0.00000000000E+00 0. -1.
          1    1    1    2  501    0 -0.92540652643E+02 -0.95623914902E+01 -0.27580201151E+03  0.29107037169E+03  0.00000000000E+00 0. -1.
<scales pt_clust_5="13000.00000" pt_clust_6="13000.00000" pt_clust_7="13000.00000" pt_clust_8="13000.00000" pt_clust_9="68.15987" pt_clust_10="109.60173"></scales>
<clustering>
<clus scale="   68.160">  1  9  2 -1</clus>
<clus scale="   80.798">  5  6 -1 -1</clus>
<clus scale="   91.309">  7  8 -1 -1</clus>
<clus scale="   95.085">  2  7  1 -1</clus>
<clus scale="  109.602">  1 10  2 -1</clus>
<clus scale="   68.160">  1  5  2 -1</clus>
</clustering>
</event>
<event>
10    4  0.7204077E-005  0.1018434E+03  0.7546771E-02  0.1279477E+00
          2   -1    0    0  503    0 -0.00000000000E+00  0.00000000000E+00  0.11189635557E+04  0.11189635557E+04  0.00000000000E+00 0. -1.
         21   -1    0    0  501  502  0.00000000000E+00 -0.00000000000E+00 -0.65636210589E+02  0.65636210589E+02  0.00000000000E+00 0.  1.
         24    2    1    2    0    0  0.50349860063E+02  0.11439318602E+02  0.87506908753E+03  0.88029788980E+03  0.80700064548E+02 0.  0.
         23    2    1    2    0    0 -0.48194122749E+02 -0.68590916683E+02  0.32251637830E+02  0.12532523910E+03  0.87400572614E+02 0.  0.
        -13    1    3    3    0    0 -0.10150436266E+02 -0.19543706474E+02  0.10796132829E+03  0.11018455529E+03  0.00000000000E+00 0.  1.
         14    1    3    3    0    0  0.60500296329E+02  0.30983025076E+02  0.76710775924E+03  0.77011333451E+03  0.00000000000E+00 0. -1.
        -11    1    4    4    0    0 -0.23676453995E+02 -0.83535819013E+02  0.70351095431E+01  0.87110850634E+02  0.00000000000E+00 0.  1.
         11    1    4    4    0    0 -0.24517668754E+02  0.14944902330E+02  0.25216528287E+02  0.38214388464E+02  0.00000000000E+00 0. -1.
         21    1    1    2  503  502  0.21964091942E+02 -0.77661295203E+01  0.81121485586E+01  0.24668624948E+02  0.00000000000E+00 0.  1.
          1    1    1    2  501    0 -0.24119829256E+02  0.64917727601E+02  0.13789447123E+03  0.15430801248E+03  0.00000000000E+00 0. -1.
<scales pt_clust_5="13000.00000" pt_clust_6="13000.00000" pt_clust_7="13000.00000" pt_clust_8="13000.00000" pt_clust_9="23.29665" pt_clust_10="67.16636"></scales>
<clustering>
<clus scale="   23.297">  2  9  1 -1</clus>
<clus scale="   67.166">  2 10  1 -1</clus>
<clus scale="   80.700">  5  6 -1 -1</clus>
<clus scale="   87.401">  7  8 -1 -1</clus>
<clus scale="   96.155">  1  5  2 -1</clus>
<clus scale="   23.297">  2  5  1 -1</clus>
</clustering>
</event>
<event>
10    4  0.7204077E-005  0.3238867E+03  0.7546771E-02  0.1073874E+00
         21   -1    0    0  503  502  0.00000000000E+00  0.00000000000E+00  0.20545945470E+03  0.20545945470E+03  0.00000000000E+00 0. -1.
          2   -1    0    0  502    0 -0.00000000000E+00 -0.00000000000E+00 -0.10448109655E+04  0.10448109655E+04  0.00000000000E+00 0. -1.
         24    2    1    2    0    0 -0.14059368581E+03  0.73790521130E+02 -0.46739450374E+03  0.49967727305E+03  0.77512125327E+02 0.  0.
         23    2    1    2    0    0 -0.76155561478E+02  0.72864469039E+02 -0.25703128851E+03  0.29312848493E+03  0.93543171904E+02 0.  0.
        -11    1    3    3    0    0 -0.13188443487E+03  0.63372930590E+02 -0.32241924349E+03  0.35406750919E+03  0.00000000000E+00 0.  1.
         12    1    3    3    0    0 -0.87092509370E+01  0.10417590540E+02 -0.14497526025E+03  0.14560976385E+03  0.00000000000E+00 0. -1.
        -13    1    4    4    0    0 -0.48408124487E+02 -0.78335904196E+01 -0.54279641493E+02  0.73150469143E+02  0.00000000000E+00 0. -1.
         13    1    4    4    0    0 -0.27747436990E+02  0.80698059458E+02 -0.20275164702E+03  0.21997801578E+03  0.00000000000E+00 0.  1.
         21    1    1    2  503  501 -0.80049576286E+02 -0.11337105385E+03 -0.70024708091E+02  0.15544899568E+03  0.00000000000E+00 0. -1.
          1    1    1    2  501    0  0.29679882357E+03 -0.33283936317E+02 -0.44901010429E+02  0.30201566653E+03  0.00000000000E+00 0. -1.
<scales pt_clust_5="13000.00000" pt_clust_6="13000.00000" pt_clust_7="13000.00000" pt_clust_8="13000.00000" pt_clust_9="138.78375" pt_clust_10="263.89824"></scales>
<clustering>
<clus scale="   77.512">  5  6 -1 -1</clus>
<clus scale="   93.543">  7  8 -1 -1</clus>
<clus scale="  101.681">  5  7 -1 -1</clus>
<clus scale="  138.784">  1  9  2 -1</clus>
<clus scale="  263.898">  1 10  2 -1</clus>
<clus scale="  138.784">  1  5  2 -1</clus>
</clustering>
</event>
<event>
10    4  0.7204077E-005  0.8855588E+02  0.7546771E-02  0.1310849E+00
         -3   -1    0    0    0  501 -0.00000000000E+00  0.00000000000E+00  0.59089796060E+03  0.59089796060E+03  0.00000000000E+00 0.  1.
         21   -1    0    0  503  502  0.00000000000E+00 -0.00000000000E+00 -0.72334259959E+02  0.72334259959E+02  0.00000000000E+00 0. -1.
         23    2    1    2    0    0 -0.71691418085E+01  0.54199584607E+01  0.14321315958E+03  0.16793970071E+03  0.87252286236E+02 0.  0.
         24    2    1    2    0    0 -0.32785581050E+02 -0.40399309216E+02  0.33063797946E+02  0.10118476720E+03  0.80238045023E+02 0.  0.
        -13    1    4    4    0    0 -0.28131777144E+02  0.94239458099E+01 -0.13714657660E+02  0.32684850843E+02  0.00000000000E+00 0.  1.
         14    1    4    4    0    0 -0.46538039053E+01 -0.49823255026E+02  0.46778455605E+02  0.68499916358E+02  0.00000000000E+00 0. -1.
        -13    1    3    3    0    0 -0.34609825845E+02 -0.54841394037E+01  0.13164133191E+03  0.13622538712E+03  0.00000000000E+00 0.  1.
         13    1    3    3    0    0  0.27440684037E+02  0.10904097864E+02  0.11571827672E+02  0.31714313587E+02  0.00000000000E+00 0. -1.
         21    1    1    2  503  501 -0.22404988865E+02 -0.79413891113E+01 -0.15514459335E+02  0.28385694205E+02  0.00000000000E+00 0. -1.
         -4    1    1    2    0  502  0.62359711723E+02  0.42920739867E+02  0.35780120246E+03  0.36572205845E+03  0.00000000000E+00 0.  1.
<scales pt_clust_5="13000.00000" pt_clust_6="13000.00000" pt_clust_7="13000.00000" pt_clust_8="13000.00000" pt_clust_9="23.77076" pt_clust_10="73.89985"></scales>
<clustering>
<clus scale="   23.771">  2  9  1 -1</clus>
<clus scale="   73.900">  2 10  1 -1</clus>
<clus scale="   80.238">  5  6 -1 -1</clus>
<clus scale="   81.654">  2  5  1 -1</clus>
<clus scale="   87.252">  7  8 -1 -1</clus>
<clus scale="   23.771">  2  5  1 -1</clus>
</clustering>
</event>
<event>
10    4  0.7204077E-005  0.1773218E+03  0.7546771E-02  0.1203500E+00
          2   -1    0    0  503    0 -0.00000000000E+00  0.00000000000E+00  0.38065372000E+03  0.38065372000E+03  0.00000000000E+00 0. -1.
         21   -1    0    0  501  502  0.00000000000E+00 -0.00000000000E+00 -0.19463167411E+03  0.19463167411E+03  0.00000000000E+00 0. -1.
         24    2    1    2    0    0 -0.23538288883E+02 -0.43873527341E+01 -0.20175083665E+02  0.87011834494E+02  0.81183282969E+02 0.  0.
         23    2    1    2    0    0  0.93623118390E+02 -0.11564891309E+03  0.23398999364E+03  0.29255623355E+03  0.93262389368E+02 0.  0.
        -13    1    3    3    0    0 -0.43817449457E+02  0.15264174716E+02  0.80416920418E+01  0.47091747871E+02  0.00000000000E+00 0.  1.
         14    1    3    3    0    0  0.20279160574E+02 -0.19651527450E+02 -0.28216775706E+02  0.39920086623E+02  0.00000000000E+00 0. -1.
        -13    1    4    4    0    0  0.31088925063E+02  0.11605695272E+02  0.54650994747E+02  0.63937036615E+02  0.00000000000E+00 0.  1.
         13    1    4    4    0    0  0.62534193327E+02 -0.12725460836E+03  0.17933899889E+03  0.22861919693E+03  0.00000000000E+00 0. -1.
         21    1    1    2  503  502  0.44619227396E+01 -0.24897402880E+02 -0.20524678283E+02  0.32573790743E+02  0.00000000000E+00 0. -1.
          1    1    1    2  501    0 -0.74546752247E+02  0.14493366870E+03 -0.72681858006E+01  0.16314353533E+03  0.00000000000E+00 0. -1.
<scales pt_clust_5="13000.00000" pt_clust_6="13000.00000" pt_clust_7="13000.00000" pt_clust_8="13000.00000" pt_clust_9="25.29406" pt_clust_10="150.81499"></scales>
<clustering>
<clus scale="   25.294">  2  9  1 -1</clus>
<clus scale="   81.183">  5  6 -1 -1</clus>
<clus scale="   85.040">  1  5  2 -1</clus>
<clus scale="   93.262">  7  8 -1 -1</clus>
<clus scale="  150.815">  2 10  1 -1</clus>
<clus scale="   25.294">  2  5  1 -1</clus>
</clustering>
</event>
<event>
10    4  0.7204077E-005  0.1339871E+03  0.7546771E-02  0.1224064E+00
         21   -1    0    0  503  502  0.00000000000E+00  0.00000000000E+00  0.70213539987E+02  0.70213539987E+02  0.00000000000E+00 0.  1.
          2   -1    0    0  502    0 -0.00000000000E+00 -0.00000000000E+00 -0.64000795399E+03  0.64000795399E+03  0.00000000000E+00 0. -1.
         23    2    1    2    0    0 -0.86472755793E+02 -0.49304274187E+02 -0.26199452588E+03  0.29416809375E+03  0.89360432189E+02 0.  0.
         24    2    1    2    0    0  0.10031807745E+03  0.21878996226E+02 -0.20647664199E+03  0.24380811077E+03  0.79166811552E+02 0.  0.
        -13    1    4    4    0    0  0.10231543076E+03 -0.47468124714E+01 -0.17219906362E+03  0.20035842162E+03  0.00000000000E+00 0.  1.
         14    1    4    4    0    0 -0.19973533066E+01  0.26625808697E+02 -0.34277578366E+02  0.43449689155E+02  0.00000000000E+00 0. -1.
        -13    1    3    3    0    0  0.82069513931E+01 -0.28253261287E+02 -0.10997528341E+03  0.11384271512E+03  0.00000000000E+00 0. -1.
         13    1    3    3    0    0 -0.94679707186E+02 -0.21051012900E+02 -0.15201924247E+03  0.18032537863E+03  0.00000000000E+00 0.  1.
         21    1    1    2  503  501  0.10309026572E+02 -0.35743771090E+02  0.13007926826E+02  0.39409381636E+02  0.00000000000E+00 0.  1.
          1    1    1    2  501    0 -0.24154348232E+02  0.63169049051E+02 -0.11433117296E+03  0.13283590783E+03  0.00000000000E+00 0. -1.
<scales pt_clust_5="13000.00000" pt_clust_6="13000.00000" pt_clust_7="13000.00000" pt_clust_8="13000.00000" pt_clust_9="37.20072" pt_clust_10="59.83935"></scales>
<clustering>
<clus scale="   37.201">  1  9  2 -1</clus>
<clus scale="   59.839">  1 10  2 -1</clus>
<clus scale="   79.167">  5  6 -1 -1</clus>
<clus scale="   89.360">  7  8 -1 -1</clus>
<clus scale="  127.415">  1  5  2 -1</clus>
<clus scale="   37.201">  1  5  2 -1</clus>
</clustering>
</event>
<event>
10    4  0.7204077E-005  0.3947160E+03  0.7546771E-02  0.1076050E+00
         21   -1    0    0  501  502  0.00000000000E+00  0.00000000000E+00  0.81139860089E+03  0.81139860089E+03  0.00000000000E+00 0. -1.
          2   -1    0    0  503    0 -0.00000000000E+00 -0.00000000000E+00 -0.72219424087E+03  0.72219424087E+03  0.00000000000E+00 0. -1.
         24    2    1    2    0    0 -0.19287987347E+02  0.14653337805E+03 -0.44793684273E+03  0.47852317797E+03  0.80578901915E+02 0.  0.
         23    2    1    2    0    0  0.17099520267E+02  0.28003538987E+03 -0.47695782405E+02  0.29933280468E+03  0.92806395922E+02 0.  0.
        -13    1    3    3    0    0  0.40733760729E+01  0.12711462891E+03 -0.27559989899E+03  0.30352928293E+03  0.00000000000E+00 0.  1.
         14    1    3    3    0    0 -0.23361363420E+02  0.19418749136E+02 -0.17233694375E+03  0.17499389503E+03  0.00000000000E+00 0. -1.
        -13    1    4    4    0    0  0.44841682275E+02  0.67225758989E+02 -0.97733313258E+01  0.81397771137E+02  0.00000000000E+00 0. -1.
         13    1    4    4    0    0 -0.27742162008E+02  0.21280963088E+03 -0.37922451079E+02  0.21793503354E+03  0.00000000000E+00 0.  1.
         21    1    1    2  503  502 -0.27704003598E+02  0.14362126577E+02  0.73697560948E+02  0.80031949775E+02  0.00000000000E+00 0. -1.
          1    1    1    2  501    0  0.29892470678E+02 -0.44093089449E+03  0.51113942422E+03  0.67570490934E+03  0.00000000000E+00 0. -1.
<scales pt_clust_5="13000.00000" pt_clust_6="13000.00000" pt_clust_7="13000.00000" pt_clust_8="13000.00000" pt_clust_9="31.20549" pt_clust_10="383.65053"></scales>
<clustering>
<clus scale="   31.205">  1  9  2 -1</clus>
<clus scale="   80.579">  5  6 -1 -1</clus>
<clus scale="   92.806">  7  8 -1 -1</clus>
<clus scale="  168.663">  2  5  1 -1</clus>
<clus scale="  383.651">  1 10  2 -1</clus>
<clus scale="   31.205">  1  5  2 -1</clus>
</clustering>
</event>
<event>
10    4  0.7204077E-005  0.2089811E+03  0.7546771E-02  0.1143008E+00
          2   -1    0    0  503    0 -0.00000000000E+00  0.00000000000E+00  0.54986955442E+03  0.54986955442E+03  0.00000000000E+00 0. -1.
         21   -1    0    0  501  502  0.00000000000E+00 -0.00000000000E+00 -0.24355096914E+03  0.24355096914E+03  0.00000000000E+00 0.  1.
         23    2    1    2    0    0  0.18916097456E+03  0.19055875673E+02  0.44112867735E+03  0.48865220661E+03  0.89674234575E+02 0.  0.
         24    2    1    2    0    0 -0.17270990037E+03 -0.57033275103E+02 -0.13561001610E+03  0.24126056269E+03  0.82067523940E+02 0.  0.
        -13    1    4    4    0    0 -0.14380003741E+03 -0.18386304552E+02 -0.12594644008E+03  0.19203909165E+03  0.00000000000E+00 0.  1.
         14    1    4    4    0    0 -0.28909862965E+02 -0.38646970551E+02 -0.96635760219E+01  0.49221471036E+02  0.00000000000E+00 0. -1.
        -13    1    3    3    0    0  0.17684555879E+03  0.39518420916E+02  0.34609240444E+03  0.39066099071E+03  0.00000000000E+00 0. -1.
         13    1    3    3    0    0  0.12315415773E+02 -0.20462545242E+02  0.95036272914E+02  0.97991215896E+02  0.00000000000E+00 0.  1.
         21    1    1    2  503  502  0.68349065621E+01  0.37165144577E+02  0.89312656002E+01  0.38829517437E+02  0.00000000000E+00 0. -1.
          1    1    1    2  501    0 -0.23285980752E+02  0.81225485298E+00 -0.81313415683E+01  0.24678236834E+02  0.00000000000E+00 0. -1.
<scales pt_clust_5="13000.00000" pt_clust_6="13000.00000" pt_clust_7="13000.00000" pt_clust_8="13000.00000" pt_clust_9="37.59441" pt_clust_10="23.30014"></scales>
<clustering>
<clus scale="   23.300">  2 10  1 -1</clus>
<clus scale="   37.594">  2  9  1 -1</clus>
<clus scale="   82.068">  5  6 -1 -1</clus>
<clus scale="   89.674">  7  8 -1 -1</clus>
<clus scale="  205.832">  2  5  1 -1</clus>
<clus scale="   23.300">  2  5  1 -1</clus>
</clustering>
</event>
<event>
10    4  0.7204077E-005  0.1159154E+03  0.7546771E-02  0.1254006E+00
          2   -1    0    0  502    0 -0.00000000000E+00  0.00000000000E+00  0.40967215078E+03  0.40967215078E+03  0.00000000000E+00 0. -1.
         21   -1    0    0  503  502  0.00000000000E+00 -0.00000000000E+00 -0.46755110237E+03  0.46755110237E+03  0.00000000000E+00 0. -1.
         23    2    1    2    0    0  0.40651760544E+01  0.11461427675E+03 -0.40151145241E+02  0.15211142836E+03  0.91503082368E+02 0.  0.
         24    2    1    2    0    0  0.39230871242E+01 -0.25490467987E+02 -0.83571926214E+02  0.11847858451E+03  0.79923423129E+02 0.  0.
        -11    1    4    4    0    0  0.28351746710E+01 -0.24229898750E+02  0.89176366563E+01  0.25974034195E+02  0.00000000000E+00 0.  1.
         12    1    4    4    0    0  0.10879124531E+01 -0.12605692376E+01 -0.92489562870E+02  0.92504550311E+02  0.00000000000E+00 0. -1.
        -11    1    3    3    0    0 -0.23821718271E+02  0.39635562133E+02  0.21613778691E+02  0.51045151350E+02  0.00000000000E+00 0. -1.
         11    1    3    3    0    0  0.27886894325E+02  0.74978714617E+02 -0.61764923932E+02  0.10106627701E+03  0.00000000000E+00 0.  1.
         21    1    1    2  503  501  0.34618570302E+02 -0.36819771869E+02 -0.26459488299E+03  0.26937816005E+03  0.00000000000E+00 0. -1.
          1    1    1    2  501    0 -0.42606833480E+02 -0.52304036893E+02  0.33043900285E+03  0.33725508023E+03  0.00000000000E+00 0. -1.
<scales pt_clust_5="13000.00000" pt_clust_6="13000.00000" pt_clust_7="13000.00000" pt_clust_8="13000.00000" pt_clust_9="50.53851" pt_clust_10="67.58046"></scales>
<clustering>
<clus scale="   50.539">  2  9  1 -1</clus>
<clus scale="   67.580">  2 10  1 -1</clus>
<clus scale="   79.923">  5  6 -1 -1</clus>
<clus scale="   91.503">  7  8 -1 -1</clus>
<clus scale="  107.011">  2  5  1 -1</clus>
<clus scale="   50.539">  2  5  1 -1</clus>
</clustering>
</event>
<event>
10    4  0.7204077E-005  0.1194033E+03  0.7546771E-02  0.1247240E+00
         21   -1    0    0  501  502  0.00000000000E+00  0.00000000000E+00  0.27582107262E+03  0.27582107262E+03  0.00000000000E+00 0. -1.
          2   -1    0    0  503    0 -0.00000000000E+00 -0.00000000000E+00 -0.95617506444E+02  0.95617506444E+02  0.00000000000E+00 0. -1.
         24    2    1    2    0    0  0.33999484730E+00  0.84859006937E+02  0.58109600461E+02  0.13092047270E+03  0.81007887582E+02 0.  0.
         23    2    1    2    0    0  0.12801291061E+02 -0.76868200397E+02  0.12624446977E+03  0.17399058728E+03  0.90898102455E+02 0.  0.
        -13    1    3    3    0    0  0.25741077973E+02  0.51608290299E+02  0.66730749510E+02  0.88198705506E+02  0.00000000000E+00 0.  1.
         14    1    3    3    0    0 -0.25401083126E+02  0.33250716638E+02 -0.86211490492E+01  0.42721767190E+02  0.00000000000E+00 0. -1.
        -11    1    4    4    0    0 -0.18491669493E+02 -0.51171550821E+02  0.12161945469E+03  0.13323573549E+03  0.00000000000E+00 0. -1.
         11    1    4    4    0    0  0.31292960553E+02 -0.25696649576E+02  0.46250150798E+01  0.40754851786E+02  0.00000000000E+00 0.  1.
         21    1    1    2  503  502  0.14302651207E+02 -0.25985017710E+02  0.92645094517E+01  0.31074396411E+02  0.00000000000E+00 0. -1.
          1    1    1    2  501    0 -0.27443937115E+02  0.17994211171E+02 -0.13415013506E+02  0.35453122675E+02  0.00000000000E+00 0. -1.
<scales pt_clust_5="13000.00000" pt_clust_6="13000.00000" pt_clust_7="13000.00000" pt_clust_8="13000.00000" pt_clust_9="29.66120" pt_clust_10="25.57321"></scales>
<clustering>
<clus scale="   29.661">  2  9  1 -1</clus>
<clus scale="   25.573">  1 10  2 -1</clus>
<clus scale="   81.008">  5  6 -1 -1</clus>
<clus scale="   90.898">  7  8 -1 -1</clus>
<clus scale="  112.058">  2  5  1 -1</clus>
<clus scale="   25.573">  1  5  2 -1</clus>
</clustering>
</event>
<event>
10    4  0.7204077E-005  0.1492460E+03  0.7546771E-02  0.1212371E+00
          2   -1    0    0  502    0 -0.00000000000E+00  0.00000000000E+00  0.14695911590E+04  0.14695911590E+04  0.00000000000E+00 0. -1.
         21   -1    0    0  503  502  0.00000000000E+00 -0.00000000000E+00 -0.62642186145E+02  0.62642186145E+02  0.00000000000E+00 0.  1.
         23    2    1    2    0    0 -0.59680247357E+02 -0.43018507250E+02  0.47063086457E+03  0.48680796076E+03  0.10038055629E+03 0.  0.
         24    2    1    2    0    0 -0.16044122807E+03  0.27992915031E+02  0.21721548526E+03  0.28345000704E+03  0.81463786446E+02 0.  0.
        -13    1    4    4    0    0 -0.16560272337E+03  0.12857348597E+02  0.19728840591E+03  0.25789976445E+03  0.00000000000E+00 0.  1.
         14    1    4    4    0    0  0.51614953009E+01  0.15135566433E+02  0.19927079351E+02  0.25550242591E+02  0.00000000000E+00 0. -1.
        -13    1    3    3    0    0 -0.54196390105E+02 -0.73752090275E+02  0.38294986375E+03  0.39373495866E+03  0.00000000000E+00 0. -1.
         13    1    3    3    0    0 -0.54838572519E+01  0.30733583025E+02  0.87681000822E+02  0.93073002106E+02  0.00000000000E+00 0.  1.
         21    1    1    2  503  501  0.76309454152E+02  0.18197825145E+02  0.10396216669E+03  0.13023987767E+03  0.00000000000E+00 0.  1.
          1    1    1    2  501    0  0.14381202127E+03 -0.31722329258E+01  0.61514045636E+03  0.63173549970E+03  0.00000000000E+00 0. -1.
<scales pt_clust_5="13000.00000" pt_clust_6="13000.00000" pt_clust_7="13000.00000" pt_clust_8="13000.00000" pt_clust_9="78.44931" pt_clust_10="125.05209"></scales>
<clustering>
<clus scale="   78.449">  2  9  1 -1</clus>
<clus scale="   81.464">  5  6 -1 -1</clus>
<clus scale="  100.381">  7  8 -1 -1</clus>
<clus scale="  117.936">  1  7  2 -1</clus>
<clus scale="  125.052">  2 10  1 -1</clus>
<clus scale="   78.449">  2  5  1 -1</clus>
</clustering>
</event>
<event>
10    4  0.7204077E-005  0.2074680E+03  0.7546771E-02  0.1175392E+00
          2   -1    0    0  503    0 -0.00000000000E+00  0.00000000000E+00  0.19970899245E+04  0.19970899245E+04  0.00000000000E+00 0. -1.
         21   -1    0    0  501  502  0.00000000000E+00 -0.00000000000E+00 -0.24730186759E+03  0.24730186759E+03  0.00000000000E+00 0. -1.
         23    2    1    2    0    0 -0.33908901650E+02  0.32303527040E+02  0.90459552959E+02  0.13578696267E+03  0.89787733231E+02 0.  0.
         24    2    1    2    0    0 -0.55023452384E+02  0.15233107374E+03  0.16963835831E+04  0.17059672231E+04  0.79840897177E+02 0.  0.
        -13    1    4    4    0    0 -0.22587512017E+02  0.47774961324E+01  0.10944457428E+03  0.11185318506E+03  0.00000000000E+00 0.  1.
         14    1    4    4    0    0 -0.32435940367E+02  0.14755357761E+03  0.15869390088E+04  0.15941140380E+04  0.00000000000E+00 0. -1.
        -11    1    3    3    0    0  0.46927862221E+01 -0.28401879060E+02  0.32404225699E+02  0.43344236293E+02  0.00000000000E+00 0.  1.
         11    1    3    3    0    0 -0.38601687872E+02  0.60705406100E+02  0.58055327260E+02  0.92442726375E+02  0.00000000000E+00 0. -1.
         21    1    1    2  503  502  0.28651130854E-01 -0.27324044437E+02 -0.17386171619E+03  0.17599574024E+03  0.00000000000E+00 0. -1.
          1    1    1    2  501    0  0.88903702903E+02 -0.15731055634E+03  0.13680663701E+03  0.22664186607E+03  0.00000000000E+00 0. -1.
<scales pt_clust_5="13000.00000" pt_clust_6="13000.00000" pt_clust_7="13000.00000" pt_clust_8="13000.00000" pt_clust_9="27.32406" pt_clust_10="191.48993"></scales>
<clustering>
<clus scale="   27.324">  2  9  1 -1</clus>
<clus scale="   79.841">  5  6 -1 -1</clus>
<clus scale="   89.788">  7  8 -1 -1</clus>
<clus scale="   98.868">  1  7  2 -1</clus>
<clus scale="  191.490">  2 10  1 -1</clus>
<clus scale="   27.324">  2  5  1 -1</clus>
</clustering>
</event>
<event>
10    4  0.7204077E-005  0.2960960E+03  0.7546771E-02  0.1136104E+00
         21   -1    0    0  503  502  0.00000000000E+00  0.00000000000E+00  0.16542570125E+03  0.16542570125E+03  0.00000000000E+00 0. -1.
          2   -1    0    0  502    0 -0.00000000000E+00 -0.00000000000E+00 -0.10414357674E+04  0.10414357674E+04  0.00000000000E+00 0. -1.
         24    2    1    2    0    0 -0.15160784193E+02  0.13259566778E+02 -0.22314711819E+02  0.84541503641E+02  0.79016795593E+02 0.  0.
         23    2    1    2    0    0  0.29899029577E+03 -0.82290940608E+02 -0.68945067900E+03  0.76145425064E+03  0.91122670992E+02 0.  0.
        -11    1    3    3    0    0  0.21888644160E+02 -0.21374523062E+02 -0.53183800139E+01  0.31052667281E+02  0.00000000000E+00 0.  1.
         12    1    3    3    0    0 -0.37049428353E+02  0.34634089840E+02 -0.16996331805E+02  0.53488836360E+02  0.00000000000E+00 0. -1.
        -11    1    4    4    0    0  0.82271265863E+02  0.12959665551E+02 -0.13562007998E+03  0.15915187781E+03  0.00000000000E+00 0.  1.
         11    1    4    4    0    0  0.21671902991E+03 -0.95250606160E+02 -0.55383059902E+03  0.60230237282E+03  0.00000000000E+00 0. -1.
         21    1    1    2  503  501 -0.26821332103E+02  0.51846188878E+02 -0.62928297982E+01  0.58711249892E+02  0.00000000000E+00 0. -1.
          1    1    1    2  501    0 -0.25700817948E+03  0.17185184952E+02 -0.15795184557E+03  0.30215446450E+03  0.00000000000E+00 0. -1.
<scales pt_clust_5="13000.00000" pt_clust_6="13000.00000" pt_clust_7="13000.00000" pt_clust_8="13000.00000" pt_clust_9="58.37303" pt_clust_10="281.72592"></scales>
<clustering>
<clus scale="   58.373">  1  9  2 -1</clus>
<clus scale="   79.017">  5  6 -1 -1</clus>
<clus scale="   85.490">  2  5  1 -1</clus>
<clus scale="   91.123">  7  8 -1 -1</clus>
<clus scale="  281.726">  1 10  2 -1</clus>
<clus scale="   58.373">  1  5  2 -1</clus>
</clustering>
</event>
<event>
10    4  0.7204077E-005  0.1216355E+03  0.7546771E-02  0.1256830E+00
         -3   -1    0    0    0  501 -0.00000000000E+00  0.00000000000E+00  0.11841496932E+03  0.11841496932E+03  0.00000000000E+00 0.  1.
         21   -1    0    0  501  502  0.00000000000E+00 -0.00000000000E+00 -0.46175056955E+03  0.46175056955E+03  0.00000000000E+00 0.  1.
         24    2    1    2    0    0 -0.34749767889E+01 -0.43355134155E+02  0.57073461251E+02  0.10716980927E+03  0.79600533412E+02 0.  0.
         23    2    1    2    0    0  0.54651651015E+02 -0.24141100662E+02 -0.15938381827E+03  0.20599690588E+03  0.11602554894E+03 0.  0.
        -13    1    3    3    0    0 -0.30476790765E+02 -0.13029219123E+01  0.47245694139E+02  0.56237780855E+02  0.00000000000E+00 0.  1.
         14    1    3    3    0    0  0.27001813976E+02 -0.42052212243E+02  0.98277671119E+01  0.50932028420E+02  0.00000000000E+00 0. -1.
        -13    1    4    4    0    0 -0.31253173526E+02  0.25884428054E+01 -0.80321493750E+02  0.86226464904E+02  0.00000000000E+00 0.  1.
         13    1    4    4    0    0  0.85904824542E+02 -0.26729543467E+02 -0.79062324518E+02  0.11977044098E+03  0.00000000000E+00 0. -1.
         21    1    1    2  503  502 -0.21126168819E+02 -0.92503525132E+01 -0.10858287174E+03  0.11100506325E+03  0.00000000000E+00 0.  1.
         -4    1    1    2    0  503 -0.30050505408E+02  0.76746587331E+02 -0.13244237147E+03  0.15599376046E+03  0.00000000000E+00 0.  1.
<scales pt_clust_5="13000.00000" pt_clust_6="13000.00000" pt_clust_7="13000.00000" pt_clust_8="13000.00000" pt_clust_9="23.06261" pt_clust_10="82.58842"></scales>
<clustering>
<clus scale="   23.063">  2  9  1 -1</clus>
<clus scale="   79.601">  5  6 -1 -1</clus>
<clus scale="   82.588">  2 10  1 -1</clus>
<clus scale="   87.576">  1  5  2 -1</clus>
<clus scale="  116.026">  7  8 -1 -1</clus>
<clus scale="   23.063">  2  5  1 -1</clus>
</clustering>
</event>
<event>
10    4  0.7204077E-005  0.1792156E+03  0.7546771E-02  0.1185891E+00
         21   -1    0    0  501  502  0.00000000000E+00  0.00000000000E+00  0.61519786841E+03  0.61519786841E+03  0.00000000000E+00 0.  1.
         -3   -1    0    0    0  501 -0.00000000000E+00 -0.00000000000E+00 -0.24799037307E+03  0.24799037307E+03  0.00000000000E+00 0.  1.
         24    2    1    2    0    0 -0.63619955642E+02 -0.92596377096E+02  0.65123132491E+02  0.15375635841E+03  0.82331085002E+02 0.  0.
         23    2    1    2    0    0  0.17331354660E+01 -0.11345874849E+03 -0.12175288004E+03  0.19014677353E+03  0.91957274410E+02 0.  0.
        -11    1    3    3    0    0 -0.59712450844E+02 -0.93999908511E+02  0.80769069086E+02  0.13756889949E+03  0.00000000000E+00 0.  1.
         12    1    3    3    0    0 -0.39075047982E+01  0.14035314152E+01 -0.15645936596E+02  0.16187458915E+02  0.00000000000E+00 0. -1.
        -13    1    4    4    0    0 -0.26623814327E+02 -0.98503369663E+02 -0.12072615208E+03  0.15807132922E+03  0.00000000000E+00 0.  1.
         13    1    4    4    0    0  0.28356949793E+02 -0.14955378832E+02 -0.10267279610E+01  0.32075444313E+02  0.00000000000E+00 0. -1.
         21    1    1    2  503  502  0.64728585790E+01  0.68301895469E+02  0.34385387651E+03  0.35063162324E+03  0.00000000000E+00 0.  1.
         -4    1    1    2    0  503  0.55413961597E+02  0.13775323012E+03  0.79983366378E+02  0.16865348631E+03  0.00000000000E+00 0.  1.
<scales pt_clust_5="13000.00000" pt_clust_6="13000.00000" pt_clust_7="13000.00000" pt_clust_8="13000.00000" pt_clust_9="68.60792" pt_clust_10="153.82489"></scales>
<clustering>
<clus scale="   68.608">  1  9  2 -1</clus>
<clus scale="   82.331">  5  6 -1 -1</clus>
<clus scale="   91.957">  7  8 -1 -1</clus>
<clus scale="  121.172">  2  5  1 -1</clus>
<clus scale="  153.825">  1 10  2 -1</clus>
<clus scale="   68.608">  1  5  2 -1</clus>
</clustering>
</event>
<event>
10    4  0.7204077E-005  0.2863873E+03  0.7546771E-02  0.1092765E+00
         21   -1    0    0  503  502  0.00000000000E+00  0.00000000000E+00  0.28410919425E+03  0.28410919425E+03  0.00000000000E+00 0.  1.
          2   -1    0    0  502    0 -0.00000000000E+00 -0.00000000000E+00 -0.81302372842E+03  0.81302372842E+03  0.00000000000E+00 0. -1.
         24    2    1    2    0    0  0.25869397226E+03  0.12619508469E+03 -0.24369394931E+03  0.38526081896E+03  0.78685367212E+02 0.  0.
         23    2    1    2    0    0 -0.13185147566E+03 -0.22672132862E+03  0.76396756830E+02  0.28810551367E+03  0.91547528985E+02 0.  0.
        -11    1    3    3    0    0  0.46522041244E+02  0.56872534674E+02 -0.43251167242E+02  0.85261063737E+02  0.00000000000E+00 0.  1.
         12    1    3    3    0    0  0.21217193101E+03  0.69322550014E+02 -0.20044278207E+03  0.29999975522E+03  0.00000000000E+00 0. -1.
        -13    1    4    4    0    0 -0.87223932533E+01 -0.98513722326E+02  0.39870261358E+02  0.10663335018E+03  0.00000000000E+00 0. -1.
         13    1    4    4    0    0 -0.12312908241E+03 -0.12820760630E+03  0.36526495473E+02  0.18147216348E+03  0.00000000000E+00 0.  1.
         21    1    1    2  503  501 -0.34149553400E+02  0.22483604928E+02  0.15520307144E+01  0.40915929506E+02  0.00000000000E+00 0.  1.
          1    1    1    2  501    0 -0.92692943195E+02  0.78042639006E+02 -0.36316937240E+03  0.38285066054E+03  0.00000000000E+00 0. -1.
<scales pt_clust_5="13000.00000" pt_clust_6="13000.00000" pt_clust_7="13000.00000" pt_clust_8="13000.00000" pt_clust_9="40.88648" pt_clust_10="122.69213"></scales>
<clustering>
<clus scale="   40.886">  1  9  2 -1</clus>
<clus scale="   78.685">  5  6 -1 -1</clus>
<clus scale="   91.548">  7  8 -1 -1</clus>
<clus scale="  122.692">  1 10  2 -1</clus>
<clus scale="  282.539">  2  5  1 -1</clus>
<clus scale="   40.886">  1  5  2 -1</clus>
</clustering>
</event>
<event>
10    4  0.8225095E-005  0.3102739E+03  0.7546771E-02  0.1130774E+00
         21   -1    0    0  501  502  0.00000000000E+00  0.00000000000E+00  0.69489263803E+02  0.69489263803E+02  0.00000000000E+00 0.  1.
          2   -1    0    0  503    0 -0.00000000000E+00 -0.00000000000E+00 -0.20999275346E+04  0.20999275346E+04  0.00000000000E+00 0. -1.
         24    2    1    2    0    0 -0.25845766456E+02  0.13904911750E+02 -0.15338020413E+03  0.17579777509E+03  0.80734258476E+02 0.  0.
         23    2    1    2    0    0  0.22388774066E+03 -0.19241407044E+03 -0.68798516605E+03  0.75447772924E+03  0.93617094024E+02 0.  0.
        -11    1    3    3    0    0  0.79566244475E+01  0.38152511525E+02 -0.10495662116E+03  0.11195898505E+03  0.00000000000E+00 0.  1.
         12    1    3    3    0    0 -0.33802390903E+02 -0.24247599775E+02 -0.48423582977E+02  0.63838790041E+02  0.00000000000E+00 0. -1.
        -13    1    4    4    0    0 -0.39352943393E+01 -0.24409068168E+02 -0.81831529369E+02  0.85485018273E+02  0.00000000000E+00 0. -1.
         13    1    4    4    0    0  0.22782303500E+03 -0.16800500227E+03 -0.60615363668E+03  0.66899271096E+03  0.00000000000E+00 0.  1.
         21    1    1    2  503  502  0.24264263072E+02 -0.20371751145E+01 -0.10930148005E+02  0.26690310607E+02  0.00000000000E+00 0.  1.
          1    1    1    2  501    0 -0.22230623728E+03  0.18054633380E+03 -0.11781427526E+04  0.12124509835E+04  0.00000000000E+00 0. -1.
<scales pt_clust_5="13000.00000" pt_clust_6="13000.00000" pt_clust_7="13000.00000" pt_clust_8="13000.00000" pt_clust_9="24.34963" pt_clust_10="295.81382"></scales>
<clustering>
<clus scale="   24.350">  1  9  2 -1</clus>
<clus scale="   80.734">  5  6 -1 -1</clus>
<clus scale="   84.620">  2  5  1 -1</clus>
<clus scale="   93.617">  7  8 -1 -1</clus>
<clus scale="  295.814">  1 10  2 -1</clus>
<clus scale="   24.350">  1  5  2 -1</clus>
</clustering>
</event>
<event>
10    4  0.7204077E-005  0.1039983E+03  0.7546771E-02  0.1276581E+00
         21   -1    0    0  501  502  0.00000000000E+00  0.00000000000E+00  0.11759216027E+03  0.11759216027E+03  0.00000000000E+00 0. -1.
          2   -1    0    0  503    0 -0.00000000000E+00 -0.00000000000E+00 -0.18077102424E+03  0.18077102424E+03  0.00000000000E+00 0. -1.
         23    2    1    2    0    0  0.33346838792E+02 -0.27336060758E+02 -0.43840182075E+02  0.10923103013E+03  0.90278372292E+02 0.  0.
         24    2    1    2    0    0 -0.56650942735E+02  0.30789186148E+02 -0.89316244942E+01  0.10334123391E+03  0.80264147746E+02 0.  0.
        -13    1    4    4    0    0 -0.63013317943E+02 -0.37465432022E+00 -0.24894486217E+02  0.67753627564E+02  0.00000000000E+00 0.  1.
         14    1    4    4    0    0  0.63623752082E+01  0.31163840468E+02  0.15962861723E+02  0.35587606345E+02  0.00000000000E+00 0. -1.
        -13    1    3    3    0    0 -0.18564969137E+02 -0.22816889088E+02  0.12965158344E+02  0.32145977005E+02  0.00000000000E+00 0. -1.
         13    1    3    3    0    0  0.51911807929E+02 -0.45191716693E+01 -0.56805340419E+02  0.77085053124E+02  0.00000000000E+00 0.  1.
         21    1    1    2  503  502  0.28093092231E+02 -0.24691959126E+02  0.24456008931E+02  0.44687929572E+02  0.00000000000E+00 0. -1.
          1    1    1    2  501    0 -0.47889882886E+01  0.21238833735E+02 -0.34863066324E+02  0.41102990898E+02  0.00000000000E+00 0. -1.
<scales pt_clust_5="13000.00000" pt_clust_6="13000.00000" pt_clust_7="13000.00000" pt_clust_8="13000.00000" pt_clust_9="32.31284" pt_clust_10="21.77207"></scales>
<clustering>
<clus scale="   21.772">  1 10  2 -1</clus>
<clus scale="   32.313">  1  9  2 -1</clus>
<clus scale="   80.264">  5  6 -1 -1</clus>
<clus scale="   90.278">  7  8 -1 -1</clus>
<clus scale="   95.435">  1  5  2 -1</clus>
<clus scale="   21.772">  1  5  2 -1</clus>
</clustering>
</event>
<event>
10    4  0.7204077E-005  0.2006077E+03  0.7546771E-02  0.1188242E+00
          2   -1    0    0  502    0 -0.00000000000E+00  0.00000000000E+00  0.10818776744E+04  0.10818776744E+04  0.00000000000E+00 0. -1.
         21   -1    0    0  503  502  0.00000000000E+00 -0.00000000000E+00 -0.12114624765E+03  0.12114624765E+03  0.00000000000E+00 0. -1.
         24    2    1    2    0    0 -0.24013598665E+02 -0.21594105911E+00  0.37847278517E+03  0.38725389401E+03  0.78404271342E+02 0.  0.
         23    2    1    2    0    0  0.13620027717E+03  0.13696741584E+03  0.59035880676E+03  0.62775809788E+03  0.90808150705E+02 0.  0.
        -13    1    3    3    0    0 -0.46263960022E+02 -0.67276159078E+01  0.13878629004E+03  0.14644879350E+03  0.00000000000E+00 0.  1.
         14    1    3    3    0    0  0.22250361357E+02  0.65116748487E+01  0.23968649513E+03  0.24080510052E+03  0.00000000000E+00 0. -1.
        -13    1    4    4    0    0  0.40669181208E+02  0.16949394255E+02  0.25764719584E+03  0.26138734053E+03  0.00000000000E+00 0.  1.
         13    1    4    4    0    0  0.95531095958E+02  0.12001802159E+03  0.33271161092E+03  0.36637075735E+03  0.00000000000E+00 0. -1.
         21    1    1    2  503  501 -0.30535418939E+02 -0.82181424064E+02 -0.17343047703E+02  0.89369903069E+02  0.00000000000E+00 0. -1.
          1    1    1    2  501    0 -0.81651259562E+02 -0.54570050720E+02  0.92428824904E+01  0.98642027049E+02  0.00000000000E+00 0. -1.
<scales pt_clust_5="13000.00000" pt_clust_6="13000.00000" pt_clust_7="13000.00000" pt_clust_8="13000.00000" pt_clust_9="59.72693" pt_clust_10="189.71928"></scales>
<clustering>
<clus scale="   59.727">  9 10 -1 -1</clus>
<clus scale="   78.404">  5  6 -1 -1</clus>
<clus scale="   82.000">  1  5  2 -1</clus>
<clus scale="   90.808">  7  8 -1 -1</clus>
<clus scale="  189.719">  2  9  1 -1</clus>
<clus scale="  189.719">  2  5  1 -1</clus>
</clustering>
</event>
<event>
10    4  0.7204077E-005  0.1777781E+03  0.7546771E-02  0.1193834E+00
         21   -1    0    0  503  502  0.00000000000E+00  0.00000000000E+00  0.64973094843E+02  0.64973094843E+02  0.00000000000E+00 0. -1.
          2   -1    0    0  502    0 -0.00000000000E+00 -0.00000000000E+00 -0.18143402246E+04  0.18143402246E+04  0.00000000000E+00 0. -1.
         23    2    1    2    0    0  0.39596976636E+02 -0.22922648713E+02 -0.19205803784E+03  0.21751064918E+03  0.91275540117E+02 0.  0.
         24    2    1    2    0    0  0.11324579193E+03  0.91239907180E+02 -0.12316209424E+04  0.12429565513E+04  0.83075343781E+02 0.  0.
        -13    1    4    4    0    0  0.41980567824E+02 -0.82469014363E+01 -0.23645515528E+03  0.24029444421E+03  0.00000000000E+00 0.  1.
         14    1    4    4    0    0  0.71265224102E+02  0.99486808616E+02 -0.99516578709E+03  0.10026621071E+04  0.00000000000E+00 0. -1.
        -13    1    3    3    0    0 -0.26715937705E+02 -0.22282012606E+02 -0.52248721775E+02  0.62770680579E+02  0.00000000000E+00 0.  1.
         13    1    3    3    0    0  0.66312914341E+02 -0.64063610660E+00 -0.13980931606E+03  0.15473996860E+03  0.00000000000E+00 0. -1.
         21    1    1    2  503  501  0.17308096498E+00 -0.21879395528E+02  0.25119333684E+02  0.33312442576E+02  0.00000000000E+00 0. -1.
          1    1    1    2  501    0 -0.15301584953E+03 -0.46437862939E+02 -0.35080748322E+03  0.38553367635E+03  0.00000000000E+00 0. -1.
<scales pt_clust_5="13000.00000" pt_clust_6="13000.00000" pt_clust_7="13000.00000" pt_clust_8="13000.00000" pt_clust_9="21.88008" pt_clust_10="157.17364"></scales>
<clustering>
<clus scale="   21.880">  1  9  2 -1</clus>
<clus scale="   83.075">  5  6 -1 -1</clus>
<clus scale="   91.276">  7  8 -1 -1</clus>
<clus scale="  104.150">  2  7  1 -1</clus>
<clus scale="  157.174">  1 10  2 -1</clus>
<clus scale="   21.880">  1  5  2 -1</clus>
</clustering>
</event>
<event>
10    4  0.7204077E-005  0.1167120E+03  0.7546771E-02  0.1259138E+00
         21   -1    0    0  501  502  0.00000000000E+00  0.00000000000E+00  0.49095993809E+03  0.49095993809E+03  0.00000000000E+00 0. -1.
          4   -1    0    0  503    0 -0.00000000000E+00 -0.00000000000E+00 -0.37219269665E+03  0.37219269665E+03  0.00000000000E+00 0. -1.
         24    2    1    2    0    0  0.16207010872E+02  0.49004403365E+02 -0.22439079393E+03  0.24396291512E+03  0.80638556539E+02 0.  0.
         23    2    1    2    0    0  0.91518697777E+02  0.33683021174E+02  0.43263753689E+02  0.14298329474E+03  0.95195862484E+02 0.  0.
        -13    1    3    3    0    0  0.34450800907E+02  0.54597026429E+02 -0.21099019192E+03  0.22064576603E+03  0.00000000000E+00 0.  1.
         14    1    3    3    0    0 -0.18243790035E+02 -0.55926230637E+01 -0.13400602014E+02  0.23317149095E+02  0.00000000000E+00 0. -1.
        -13    1    4    4    0    0  0.30722914571E+02 -0.18131844530E+02 -0.20168242058E+02  0.40980718069E+02  0.00000000000E+00 0.  1.
         13    1    4    4    0    0  0.60795783207E+02  0.51814865704E+02  0.63431995747E+02  0.10200257667E+03  0.00000000000E+00 0. -1.
         21    1    1    2  503  502 -0.54820406984E+02 -0.99439470039E+01  0.36240983372E+03  0.36666748789E+03  0.00000000000E+00 0. -1.
          3    1    1    2  501    0 -0.52905301665E+02 -0.72743477536E+02 -0.62515552028E+02  0.10953893698E+03  0.00000000000E+00 0. -1.
<scales pt_clust_5="13000.00000" pt_clust_6="13000.00000" pt_clust_7="13000.00000" pt_clust_8="13000.00000" pt_clust_9="55.71498" pt_clust_10="67.52372"></scales>
<clustering>
<clus scale="   55.715">  1  9  2 -1</clus>
<clus scale="   80.639">  5  6 -1 -1</clus>
<clus scale="   94.722">  2  5  1 -1</clus>
<clus scale="   67.524">  1 10  2 -1</clus>
<clus scale="   95.196">  7  8 -1 -1</clus>
<clus scale="   55.715">  1  5  2 -1</clus>
</clustering>
</event>
<event>
10    4  0.7204077E-005  0.9504683E+02  0.7546771E-02  0.1293554E+00
         21   -1    0    0  501  502  0.00000000000E+00  0.00000000000E+00  0.39409129544E+03  0.39409129544E+03  0.00000000000E+00 0. -1.
         -1   -1    0    0    0  501 -0.00000000000E+00 -0.00000000000E+00 -0.10771522411E+03  0.10771522411E+03  0.00000000000E+00 0.  1.
         23    2    1    2    0    0 -0.20810806463E+02  0.26482887400E+02  0.12852922985E+01  0.92174817200E+02  0.85791094869E+02 0.  0.
         24    2    1    2    0    0  0.51362510330E+02  0.58814630854E+02  0.87882216557E+02  0.14825811220E+03  0.90332251034E+02 0.  0.
        -11    1    4    4    0    0  0.18241785379E+02  0.85710284641E+01 -0.17638825978E+02  0.26783454680E+02  0.00000000000E+00 0.  1.
         12    1    4    4    0    0  0.33120724951E+02  0.50243602390E+02  0.10552104253E+03  0.12147465752E+03  0.00000000000E+00 0. -1.
        -13    1    3    3    0    0 -0.31959360337E+02 -0.21041476056E+02  0.15573823192E+02  0.41312085357E+02  0.00000000000E+00 0.  1.
         13    1    3    3    0    0  0.11148553874E+02  0.47524363456E+02 -0.14288530893E+02  0.50862731842E+02  0.00000000000E+00 0. -1.
         21    1    1    2  503  502  0.40511124089E+02 -0.31441571685E+02  0.15395570339E+03  0.16227163095E+03  0.00000000000E+00 0. -1.
         -2    1    1    2    0  503 -0.71062827956E+02 -0.53855946568E+02  0.43252859081E+02  0.99101959196E+02  0.00000000000E+00 0.  1.
<scales pt_clust_5="13000.00000" pt_clust_6="13000.00000" pt_clust_7="13000.00000" pt_clust_8="13000.00000" pt_clust_9="51.28083" pt_clust_10="86.45500"></scales>
<clustering>
<clus scale="   51.281">  1  9  2 -1</clus>
<clus scale="   85.791">  7  8 -1 -1</clus>
<clus scale="   86.455">  1 10  2 -1</clus>
<clus scale="   90.332">  5  6 -1 -1</clus>
<clus scale="   90.742">  2  7  1 -1</clus>
<clus scale="   51.281">  1  5  2 -1</clus>
</clustering>
</event>
<event>
10    4  0.7204077E-005  0.1864840E+03  0.7546771E-02  0.1172640E+00
          2   -1    0    0  502    0 -0.00000000000E+00  0.00000000000E+00  0.78063070792E+03  0.78063070792E+03  0.00000000000E+00 0. -1.
         21   -1    0    0  503  502  0.00000000000E+00 -0.00000000000E+00 -0.75335912074E+03  0.75335912074E+03  0.00000000000E+00 0. -1.
         23    2    1    2    0    0  0.68915056621E+02  0.11401147128E+03  0.68788698491E+02  0.17628035087E+03  0.92709095842E+02 0.  0.
         24    2    1    2    0    0  0.48718671077E+02 -0.23859788224E+03  0.55021461719E+03  0.60716163906E+03  0.81281440999E+02 0.  0.
        -11    1    4    4    0    0  0.41761796746E+02 -0.11640091019E+03  0.18981365536E+03  0.22654457248E+03  0.00000000000E+00 0.  1.
         12    1    4    4    0    0  0.69568743312E+01 -0.12219697205E+03  0.36040096183E+03  0.38061706658E+03  0.00000000000E+00 0. -1.
        -11    1    3    3    0    0  0.54844842328E+02  0.39154035808E+02 -0.83158484180E+01  0.67898074972E+02  0.00000000000E+00 0. -1.
         11    1    3    3    0    0  0.14070214293E+02  0.74857435470E+02  0.77104546909E+02  0.10838227590E+03  0.00000000000E+00 0.  1.
         21    1    1    2  503  501 -0.88180359445E+02 -0.31165929798E+02 -0.58443092674E+03  0.59186704512E+03  0.00000000000E+00 0. -1.
          1    1    1    2  501    0 -0.29453368253E+02  0.15575234076E+03 -0.73008017550E+01  0.15868079361E+03  0.00000000000E+00 0. -1.
<scales pt_clust_5="13000.00000" pt_clust_6="13000.00000" pt_clust_7="13000.00000" pt_clust_8="13000.00000" pt_clust_9="93.52588" pt_clust_10="167.83802"></scales>
<clustering>
<clus scale="   81.281">  5  6 -1 -1</clus>
<clus scale="   92.709">  7  8 -1 -1</clus>
<clus scale="   93.526">  2  9  1 -1</clus>
<clus scale="  144.924">  1  7  2 -1</clus>
<clus scale="  167.838">  2 10  1 -1</clus>
<clus scale="   93.526">  2  5  1 -1</clus>
</clustering>
</event>
<event>
10    4  0.7204077E-005  0.1446232E+03  0.7546771E-02  0.1231498E+00
         21   -1    0    0  501  502  0.00000000000E+00  0.00000000000E+00  0.20333191292E+03  0.20333191292E+03  0.00000000000E+00 0. -1.
          2   -1    0    0  503    0 -0.00000000000E+00 -0.00000000000E+00 -0.30850729826E+03  0.30850729826E+03  0.00000000000E+00 0. -1.
         24    2    1    2    0    0 -0.34074607502E+02  0.68745648285E-01 -0.74827050640E+02  0.11668405159E+03  0.82794907968E+02 0.  0.
         23    2    1    2    0    0  0.10094225985E+03  0.25604295805E+02 -0.32440702208E+02  0.14131902818E+03  0.89854041529E+02 0.  0.
        -11    1    3    3    0    0 -0.56856400188E+02  0.85368196845E+01 -0.28053781699E+02  0.63972980236E+02  0.00000000000E+00 0.  1.
         12    1    3    3    0    0  0.22781792685E+02 -0.84680740362E+01 -0.46773268941E+02  0.52711071354E+02  0.00000000000E+00 0. -1.
        -11    1    4    4    0    0  0.89500887665E+02  0.50314400716E+02 -0.44040753556E+02  0.11172079388E+03  0.00000000000E+00 0.  1.
         11    1    4    4    0    0  0.11441372180E+02 -0.24710104911E+02  0.11600051348E+02  0.29598234295E+02  0.00000000000E+00 0. -1.
         21    1    1    2  503  502  0.52581066153E+02 -0.55386036924E+02  0.78049425596E+02  0.10919750199E+03  0.00000000000E+00 0. -1.
          1    1    1    2  501    0 -0.11944871850E+03  0.29712995471E+02 -0.75957058081E+02  0.14463862943E+03  0.00000000000E+00 0. -1.
<scales pt_clust_5="13000.00000" pt_clust_6="13000.00000" pt_clust_7="13000.00000" pt_clust_8="13000.00000" pt_clust_9="76.37003" pt_clust_10="113.32308"></scales>
<clustering>
<clus scale="   76.370">  1  9  2 -1</clus>
<clus scale="   82.795">  5  6 -1 -1</clus>
<clus scale="   86.852">  2  5  1 -1</clus>
<clus scale="   89.854">  7  8 -1 -1</clus>
<clus scale="  113.323">  1 10  2 -1</clus>
<clus scale="   76.370">  1  5  2 -1</clus>
</clustering>
</event>
<event>
10    4  0.7204077E-005  0.1905709E+03  0.7546771E-02  0.1191204E+00
         21   -1    0    0  501  502  0.00000000000E+00  0.00000000000E+00  0.42745772529E+03  0.42745772529E+03  0.00000000000E+00 0.  1.
          2   -1    0    0  503    0 -0.00000000000E+00 -0.00000000000E+00 -0.18290384707E+04  0.18290384707E+04  0.00000000000E+00 0. -1.
         24    2    1    2    0    0  0.32292812490E+02 -0.28831881091E+02 -0.49092036763E+03  0.49902803659E+03  0.78435137824E+02 0.  0.
         23    2    1    2    0    0  0.20805768054E+03  0.12331666117E+03 -0.69328237918E+03  0.74000969846E+03  0.92080938210E+02 0.  0.
        -13    1    3    3    0    0  0.57954800510E+02 -0.26088343405E+02 -0.36464141245E+03  0.37013878510E+03  0.00000000000E+00 0.  1.
         14    1    3    3    0    0 -0.25661988020E+02 -0.27435376854E+01 -0.12627895518E+03  0.12888925149E+03  0.00000000000E+00 0. -1.
        -11    1    4    4    0    0  0.12278217989E+03  0.20329445568E+02 -0.36005222079E+03  0.38095452715E+03  0.00000000000E+00 0. -1.
         11    1    4    4    0    0  0.85275500644E+02  0.10298721561E+03 -0.33323015839E+03  0.35905517131E+03  0.00000000000E+00 0.  1.
         21    1    1    2  503  502 -0.97949321375E+02 -0.64984953090E+02  0.38252631826E+03  0.40017933211E+03  0.00000000000E+00 0.  1.
          1    1    1    2  501    0 -0.14240117165E+03 -0.29499826993E+02 -0.59990431691E+03  0.61727912886E+03  0.00000000000E+00 0. -1.
<scales pt_clust_5="13000.00000" pt_clust_6="13000.00000" pt_clust_7="13000.00000" pt_clust_8="13000.00000" pt_clust_9="117.47397" pt_clust_10="166.84848"></scales>
<clustering>
<clus scale="   78.435">  5  6 -1 -1</clus>
<clus scale="   89.589">  2  5  1 -1</clus>
<clus scale="   92.081">  7  8 -1 -1</clus>
<clus scale="  117.474">  1  9  2 -1</clus>
<clus scale="  166.848">  1 10  2 -1</clus>
<clus scale="  117.474">  1  5  2 -1</clus>
</clustering>
</event>
<event>
10    4  0.7204077E-005  0.1453517E+03  0.7546771E-02  0.1225447E+00
         21   -1    0    0  501  502  0.00000000000E+00  0.00000000000E+00  0.23391021799E+03  0.23391021799E+03  0.00000000000E+00 0. -1.
          2   -1    0    0  503    0 -0.00000000000E+00 -0.00000000000E+00 -0.22677877783E+03  0.22677877783E+03  0.00000000000E+00 0. -1.
         24    2    1    2    0    0 -0.18532678858E+02 -0.27987472212E+02 -0.71277089949E+02  0.11186871344E+03  0.79419309423E+02 0.  0.
         23    2    1    2    0    0  0.26020043315E+02  0.12966499985E+03  0.70087681935E+02  0.17430771078E+03  0.89335547457E+02 0.  0.
        -13    1    3    3    0    0 -0.42286585610E+02  0.60743691189E+01 -0.24220125912E+02  0.49108734274E+02  0.00000000000E+00 0.  1.
         14    1    3    3    0    0  0.23753906753E+02 -0.34061841331E+02 -0.47056964037E+02  0.62759979169E+02  0.00000000000E+00 0. -1.
        -13    1    4    4    0    0  0.46746500766E+02  0.87937249710E+02  0.12713437851E+02  0.10039834024E+03  0.00000000000E+00 0. -1.
         13    1    4    4    0    0 -0.20726457451E+02  0.41727750136E+02  0.57374244084E+02  0.73909370543E+02  0.00000000000E+00 0.  1.
         21    1    1    2  503  502 -0.60204243943E+02 -0.27100119773E+01 -0.93832786784E+01  0.60991319648E+02  0.00000000000E+00 0.  1.
          1    1    1    2  501    0  0.52716879486E+02 -0.98967515656E+02  0.17704126852E+02  0.11352125196E+03  0.00000000000E+00 0. -1.
<scales pt_clust_5="13000.00000" pt_clust_6="13000.00000" pt_clust_7="13000.00000" pt_clust_8="13000.00000" pt_clust_9="60.26521" pt_clust_10="114.65727"></scales>
<clustering>
<clus scale="   60.265">  2  9  1 -1</clus>
<clus scale="   79.419">  5  6 -1 -1</clus>
<clus scale="   89.336">  7  8 -1 -1</clus>
<clus scale="   96.969">  2  5  1 -1</clus>
<clus scale="  114.657">  1 10  2 -1</clus>
<clus scale="  114.657">  1  5  2 -1</clus>
</clustering>
</event>
<event>
10    4  0.7204077E-005  0.1129503E+03  0.7546771E-02  0.1262333E+00
          2   -1    0    0  502    0 -0.00000000000E+00  0.00000000000E+00  0.84186748360E+03  0.84186748360E+03  0.00000000000E+00 0. -1.
         21   -1    0    0  503  502  0.00000000000E+00 -0.00000000000E+00 -0.22598416083E+03  0.22598416083E+03  0.00000000000E+00 0. -1.
         24    2    1    2    0    0  0.71644490165E+02  0.24589930285E+02  0.63785517078E+03  0.64774024456E+03  0.83490166384E+02 0.  0.
         23    2    1    2    0    0  0.19443304265E+02  0.10733177343E+02  0.16101200940E+03  0.19108336907E+03  0.10047260118E+03 0.  0.
        -13    1    3    3    0    0  0.68655560829E+02 -0.17234929353E+02  0.40536961940E+03  0.41150353238E+03  0.00000000000E+00 0.  1.
         14    1    3    3    0    0  0.29889293360E+01  0.41824859637E+02  0.23248555138E+03  0.23623671218E+03  0.00000000000E+00 0. -1.
        -13    1    4    4    0    0  0.58118351318E+02  0.14762452815E+02  0.12232621370E+03  0.13623279829E+03  0.00000000000E+00 0. -1.
         13    1    4    4    0    0 -0.38675047053E+02 -0.40292754723E+01  0.38685795702E+02  0.54850570776E+02  0.00000000000E+00 0.  1.
         21    1    1    2  503  501  0.43167723518E+01  0.24623187080E+02 -0.35903921588E+02  0.43749599437E+02  0.00000000000E+00 0. -1.
          1    1    1    2  501    0 -0.95404566782E+02 -0.59946294707E+02 -0.14707993582E+03  0.18527843137E+03  0.00000000000E+00 0. -1.
<scales pt_clust_5="13000.00000" pt_clust_6="13000.00000" pt_clust_7="13000.00000" pt_clust_8="13000.00000" pt_clust_9="24.99872" pt_clust_10="99.11099"></scales>
<clustering>
<clus scale="   24.999">  2  9  1 -1</clus>
<clus scale="   83.490">  5  6 -1 -1</clus>
<clus scale="   99.111">  2 10  1 -1</clus>
<clus scale="   98.151">  1  5  2 -1</clus>
<clus scale="  100.473">  7  8 -1 -1</clus>
<clus scale="   24.999">  2  5  1 -1</clus>
</clustering>
</event>
<event>
10    4  0.7204077E-005  0.2756524E+03  0.7546771E-02  0.1135997E+00
         21   -1    0    0  501  502  0.00000000000E+00  0.00000000000E+00  0.15719280560E+04  0.15719280560E+04  0.00000000000E+00 0. -1.
          2   -1    0    0  503    0 -0.00000000000E+00 -0.00000000000E+00 -0.12002794350E+04  0.12002794350E+04  0.00000000000E+00 0. -1.
         24    2    1    2    0    0  0.10381125548E+03  0.56967119743E+02 -0.76930645846E+03  0.78225889629E+03  0.77939234680E+02 0.  0.
         23    2    1    2    0    0 -0.14845275406E+03 -0.23900436251E+03 -0.25684931215E+03  0.39187181097E+03  0.91818525341E+02 0.  0.
        -13    1    3    3    0    0 -0.96596627579E+01  0.18356920439E+02 -0.82226355655E+02  0.84802471526E+02  0.00000000000E+00 0.  1.
         14    1    3    3    0    0  0.11347091824E+03  0.38610199304E+02 -0.68708010280E+03  0.69745642476E+03  0.00000000000E+00 0. -1.
        -13    1    4    4    0    0 -0.12371194418E+03 -0.19431266564E+03 -0.25063649745E+03  0.34041256002E+03  0.00000000000E+00 0. -1.
         13    1    4    4    0    0 -0.24740809874E+02 -0.44691696867E+02 -0.62128146960E+01  0.51459250952E+02  0.00000000000E+00 0.  1.
         21    1    1    2  503  502 -0.47519208183E+02 -0.60370119732E+02 -0.72165258475E+02  0.10540612427E+03  0.00000000000E+00 0.  1.
          1    1    1    2  501    0  0.92160706761E+02  0.24240736250E+03  0.14699696501E+04  0.14926706594E+04  0.00000000000E+00 0. -1.
<scales pt_clust_5="13000.00000" pt_clust_6="13000.00000" pt_clust_7="13000.00000" pt_clust_8="13000.00000" pt_clust_9="76.82855" pt_clust_10="259.91073"></scales>
<clustering>
<clus scale="   76.829">  2  9  1 -1</clus>
<clus scale="   77.939">  5  6 -1 -1</clus>
<clus scale="   91.819">  7  8 -1 -1</clus>
<clus scale="  106.232">  2  5  1 -1</clus>
<clus scale="  259.911">  1 10  2 -1</clus>
<clus scale="  259.911">  1  5  2 -1</clus>
</clustering>
</event>
<event>
10    4  0.7204077E-005  0.1508109E+03  0.7546771E-02  0.1218380E+00
          2   -1    0    0  503    0 -0.00000000000E+00  0.00000000000E+00  0.50625348043E+03  0.50625348043E+03  0.00000000000E+00 0. -1.
         21   -1    0    0  501  502  0.00000000000E+00 -0.00000000000E+00 -0.78578458643E+03  0.78578458643E+03  0.00000000000E+00 0. -1.
         24    2    1    2    0    0  0.15390975086E+02  0.53644479847E+02  0.43787871745E+03  0.44929620261E+03  0.83753770997E+02 0.  0.
         23    2    1    2    0    0  0.68957056490E+02 -0.12497240403E+03 -0.91090897087E+02  0.19182367410E+03  0.90142071227E+02 0.  0.
        -11    1    3    3    0    0 -0.23876207865E+02  0.44614897462E+02  0.14324072803E+03  0.15191599174E+03  0.00000000000E+00 0.  1.
         12    1    3    3    0    0  0.39267182951E+02  0.90295823851E+01  0.29463798941E+03  0.29738021087E+03  0.00000000000E+00 0. -1.
        -11    1    4    4    0    0  0.81439731275E+02 -0.99744035337E+02 -0.99180814183E+02  0.16253656917E+03  0.00000000000E+00 0. -1.
         11    1    4    4    0    0 -0.12482674785E+02 -0.25228368691E+02  0.80899170963E+01  0.29287104931E+02  0.00000000000E+00 0.  1.
         21    1    1    2  503  502  0.33440091680E+02 -0.74496743017E+01 -0.15589916133E+03  0.15961919021E+03  0.00000000000E+00 0. -1.
          1    1    1    2  501    0 -0.11778812326E+03  0.78777598483E+02 -0.47041976503E+03  0.49129899993E+03  0.00000000000E+00 0. -1.
<scales pt_clust_5="13000.00000" pt_clust_6="13000.00000" pt_clust_7="13000.00000" pt_clust_8="13000.00000" pt_clust_9="34.25985" pt_clust_10="120.90629"></scales>
<clustering>
<clus scale="   34.260">  2  9  1 -1</clus>
<clus scale="   83.754">  5  6 -1 -1</clus>
<clus scale="   90.142">  7  8 -1 -1</clus>
<clus scale="  100.655">  1  5  2 -1</clus>
<clus scale="  120.906">  2 10  1 -1</clus>
<clus scale="   34.260">  2  5  1 -1</clus>
</clustering>
</event>
<event>
10    4  0.7204077E-005  0.1519763E+03  0.7546771E-02  0.1200093E+00
         21   -1    0    0  503  502  0.00000000000E+00  0.00000000000E+00  0.59741316394E+02  0.59741316394E+02  0.00000000000E+00 0. -1.
          2   -1    0    0  502    0 -0.00000000000E+00 -0.00000000000E+00 -0.11054216258E+04  0.11054216258E+04  0.00000000000E+00 0. -1.
         24    2    1    2    0    0  0.87590708691E+02  0.68718509116E+01 -0.30880418308E+03  0.33086139574E+03  0.79936756965E+02 0.  0.
         23    2    1    2    0    0 -0.19429965335E+03  0.58541524007E+02 -0.48120883603E+03  0.53017084714E+03  0.91322056250E+02 0.  0.
        -11    1    3    3    0    0 -0.29794806462E+01 -0.22885029212E+02 -0.71140900981E+02  0.74790571995E+02  0.00000000000E+00 0.  1.
         12    1    3    3    0    0  0.90570189338E+02  0.29756880124E+02 -0.23766328210E+03  0.25607082374E+03  0.00000000000E+00 0. -1.
        -11    1    4    4    0    0 -0.54728933280E+02 -0.23799201269E+02 -0.11037595474E+03  0.12547712741E+03  0.00000000000E+00 0.  1.
         11    1    4    4    0    0 -0.13957072007E+03  0.82340725276E+02 -0.37083288130E+03  0.40469371973E+03  0.00000000000E+00 0. -1.
         21    1    1    2  503  501  0.34228001002E+02 -0.22856599310E+02 -0.71367324824E+01  0.41772157415E+02  0.00000000000E+00 0. -1.
          1    1    1    2  501    0  0.72480943660E+02 -0.42556775609E+02 -0.24853055782E+03  0.26235854191E+03  0.00000000000E+00 0. -1.
<scales pt_clust_5="13000.00000" pt_clust_6="13000.00000" pt_clust_7="13000.00000" pt_clust_8="13000.00000" pt_clust_9="41.15799" pt_clust_10="90.74835"></scales>
<clustering>
<clus scale="   41.158">  1  9  2 -1</clus>
<clus scale="   79.937">  5  6 -1 -1</clus>
<clus scale="   90.748">  1 10  2 -1</clus>
<clus scale="   91.322">  7  8 -1 -1</clus>
<clus scale="  145.420">  2  5  1 -1</clus>
<clus scale="   41.158">  1  5  2 -1</clus>
</clustering>
</event>
<event>
10    4  0.7204077E-005  0.1717406E+03  0.7546771E-02  0.1196340E+00
         21   -1    0    0  501  502  0.00000000000E+00  0.00000000000E+00  0.13004850418E+03  0.13004850418E+03  0.00000000000E+00 0. -1.
          2   -1    0    0  503    0 -0.00000000000E+00 -0.00000000000E+00 -0.56986940378E+03  0.56986940378E+03  0.00000000000E+00 0. -1.
         23    2    1    2    0    0 -0.33507857482E+02 -0.38281531572E+02 -0.18574913902E+03  0.21456764624E+03  0.94595348702E+02 0.  0.
         24    2    1    2    0    0  0.85356947457E+02 -0.13862435683E+03 -0.15549788620E+03  0.23898595593E+03  0.80200833759E+02 0.  0.
        -13    1    4    4    0    0  0.92175362328E+01 -0.41760556990E+02 -0.89555501104E+02  0.99242606134E+02  0.00000000000E+00 0.  1.
         14    1    4    4    0    0  0.76139411224E+02 -0.96863799845E+02 -0.65942385093E+02  0.13974334980E+03  0.00000000000E+00 0. -1.
        -11    1    3    3    0    0  0.30111223339E+02  0.43183398556E+01 -0.61734144590E+02  0.68821787527E+02  0.00000000000E+00 0.  1.
         11    1    3    3    0    0 -0.63619080821E+02 -0.42599871427E+02 -0.12401499443E+03  0.14574585872E+03  0.00000000000E+00 0. -1.
         21    1    1    2  503  502 -0.60096385728E+02  0.22540085572E+02 -0.22496416091E+01  0.64223764468E+02  0.00000000000E+00 0. -1.
          1    1    1    2  501    0  0.82472957526E+01  0.15436580283E+03 -0.96324232772E+02  0.18214054132E+03  0.00000000000E+00 0. -1.
<scales pt_clust_5="13000.00000" pt_clust_6="13000.00000" pt_clust_7="13000.00000" pt_clust_8="13000.00000" pt_clust_9="64.18435" pt_clust_10="151.86399"></scales>
<clustering>
<clus scale="   64.184">  1  9  2 -1</clus>
<clus scale="   80.201">  5  6 -1 -1</clus>
<clus scale="   94.595">  7  8 -1 -1</clus>
<clus scale="  109.355">  2  7  1 -1</clus>
<clus scale="  151.864">  1 10  2 -1</clus>
<clus scale="   64.184">  1  5  2 -1</clus>
</clustering>
</event>
<event>
10    4  0.7204077E-005  0.1695850E+03  0.7546771E-02  0.1179444E+00
         -1   -1    0    0    0  501 -0.00000000000E+00  0.00000000000E+00  0.94347496731E+03  0.94347496731E+03  0.00000000000E+00 0.  1.
         21   -1    0    0  501  502  0.00000000000E+00 -0.00000000000E+00 -0.11998804810E+03  0.11998804810E+03  0.00000000000E+00 0.  1.
         23    2    1    2    0    0 -0.13182628969E+03 -0.10137805199E+03  0.67760821302E+03  0.70336705956E+03  0.88975558688E+02 0.  0.
         24    2    1    2    0    0  0.24821371566E+02  0.11894740197E+03  0.17418479302E+03  0.22705576349E+03  0.80308110989E+02 0.  0.
        -11    1    4    4    0    0  0.52306680637E+02  0.56122868087E+02  0.99889493440E+02  0.12595108599E+03  0.00000000000E+00 0.  1.
         12    1    4    4    0    0 -0.27485309071E+02  0.62824533886E+02  0.74295299578E+02  0.10110467750E+03  0.00000000000E+00 0. -1.
        -11    1    3    3    0    0 -0.10562951048E+01 -0.21442086070E+02  0.24767604719E+02  0.32776715179E+02  0.00000000000E+00 0.  1.
         11    1    3    3    0    0 -0.13076999459E+03 -0.79935965923E+02  0.65284060830E+03  0.67059034438E+03  0.00000000000E+00 0. -1.
         21    1    1    2  503  502  0.24970263750E+02 -0.18066732246E+02 -0.39653754885E+02  0.50222914713E+02  0.00000000000E+00 0.  1.
         -2    1    1    2    0  503  0.82034654376E+02  0.49738226689E+00  0.11347668066E+02  0.82817277656E+02  0.00000000000E+00 0.  1.
<scales pt_clust_5="13000.00000" pt_clust_6="13000.00000" pt_clust_7="13000.00000" pt_clust_8="13000.00000" pt_clust_9="30.82079" pt_clust_10="94.27327"></scales>
<clustering>
<clus scale="   30.821">  2  9  1 -1</clus>
<clus scale="   80.308">  5  6 -1 -1</clus>
<clus scale="   88.976">  7  8 -1 -1</clus>
<clus scale="   94.273">  2 10  1 -1</clus>
<clus scale="  165.202">  2  5  1 -1</clus>
<clus scale="   30.821">  2  5  1 -1</clus>
</clustering>
</event>
<event>
10    4  0.7204077E-005  0.1020254E+03  0.7546771E-02  0.1282164E+00
         21   -1    0    0  503  502  0.00000000000E+00  0.00000000000E+00  0.54794535216E+02  0.54794535216E+02  0.00000000000E+00 0. -1.
          2   -1    0    0  502    0 -0.00000000000E+00 -0.00000000000E+00 -0.57207880266E+03  0.57207880266E+03  0.00000000000E+00 0. -1.
         24    2    1    2    0    0  0.25207823237E+02 -0.22910792616E+02 -0.33399025218E+03  0.34514141135E+03  0.80079750918E+02 0.  0.
         23    2    1    2    0    0 -0.77306724471E+02  0.58013371701E+02 -0.10049123946E+03  0.16734130813E+03  0.92535092025E+02 0.  0.
        -11    1    3    3    0    0 -0.20326610505E+02 -0.33341903683E+02 -0.18164926974E+03  0.18579911419E+03  0.00000000000E+00 0.  1.
         12    1    3    3    0    0  0.45534433742E+02  0.10431111067E+02 -0.15234098244E+03  0.15934229716E+03  0.00000000000E+00 0. -1.
        -13    1    4    4    0    0 -0.25507240810E+02 -0.41375230074E+01 -0.79730311664E+02  0.83813250912E+02  0.00000000000E+00 0.  1.
         13    1    4    4    0    0 -0.51799483661E+02  0.62150894708E+02 -0.20760927793E+02  0.83528057223E+02  0.00000000000E+00 0. -1.
         21    1    1    2  503  501  0.44524533515E+01 -0.30613253498E+02 -0.35752212360E+02  0.47278074402E+02  0.00000000000E+00 0. -1.
          1    1    1    2  501    0  0.47646447883E+02 -0.44893255865E+01 -0.47050563448E+02  0.67112543990E+02  0.00000000000E+00 0. -1.
<scales pt_clust_5="13000.00000" pt_clust_6="13000.00000" pt_clust_7="13000.00000" pt_clust_8="13000.00000" pt_clust_9="30.93535" pt_clust_10="49.73355"></scales>
<clustering>
<clus scale="   30.935">  1  9  2 -1</clus>
<clus scale="   49.734">  1 10  2 -1</clus>
<clus scale="   80.080">  5  6 -1 -1</clus>
<clus scale="   90.880">  2  5  1 -1</clus>
<clus scale="   92.535">  7  8 -1 -1</clus>
<clus scale="   30.935">  1  5  2 -1</clus>
</clustering>
</event>
<event>
10    4  0.7204077E-005  0.9194338E+02  0.7546771E-02  0.1313600E+00
         21   -1    0    0  501  502  0.00000000000E+00  0.00000000000E+00  0.29222849320E+03  0.29222849320E+03  0.00000000000E+00 0. -1.
          4   -1    0    0  503    0 -0.00000000000E+00 -0.00000000000E+00 -0.79177050530E+02  0.79177050530E+02  0.00000000000E+00 0. -1.
         24    2    1    2    0    0  0.18535009606E+02 -0.10677251272E+02 -0.18298695477E+01  0.69842929848E+02  0.66461538887E+02 0.  0.
         23    2    1    2    0    0 -0.73908016005E+01  0.15158114165E+02  0.12639771723E+03  0.15592625368E+03  0.89734170149E+02 0.  0.
        -11    1    3    3    0    0 -0.11386702924E+02 -0.24648801525E+02 -0.18495716272E+02  0.32852883291E+02  0.00000000000E+00 0.  1.
         12    1    3    3    0    0  0.29921712530E+02  0.13971550253E+02  0.16665846724E+02  0.36990046557E+02  0.00000000000E+00 0. -1.
        -13    1    4    4    0    0  0.25207084791E+02  0.41266421821E+02  0.55217486426E+02  0.73398130090E+02  0.00000000000E+00 0.  1.
         13    1    4    4    0    0 -0.32597886392E+02 -0.26108307656E+02  0.71180230802E+02  0.82528123587E+02  0.00000000000E+00 0. -1.
         21    1    1    2  503  502  0.36207151492E+02 -0.29501302539E+02  0.78225939860E+02  0.91107531728E+02  0.00000000000E+00 0. -1.
          3    1    1    2  501    0 -0.47351359498E+02  0.25020439646E+02  0.10257655132E+02  0.54528828478E+02  0.00000000000E+00 0. -1.
<scales pt_clust_5="13000.00000" pt_clust_6="13000.00000" pt_clust_7="13000.00000" pt_clust_8="13000.00000" pt_clust_9="46.70423" pt_clust_10="46.43031"></scales>
<clustering>
<clus scale="   46.704">  1  9  2 -1</clus>
<clus scale="   46.430">  1 10  2 -1</clus>
<clus scale="   66.462">  5  6 -1 -1</clus>
<clus scale="   69.415">  2  5  1 -1</clus>
<clus scale="   89.734">  7  8 -1 -1</clus>
<clus scale="   46.704">  1  5  2 -1</clus>
</clustering>
</event>
<event>
10    4  0.7204077E-005  0.1025257E+03  0.7546771E-02  0.1276066E+00
          4   -1    0    0  503    0 -0.00000000000E+00  0.00000000000E+00  0.16253662428E+03  0.16253662428E+03  0.00000000000E+00 0. -1.
         21   -1    0    0  501  502  0.00000000000E+00 -0.00000000000E+00 -0.21288997157E+03  0.21288997157E+03  0.00000000000E+00 0. -1.
         23    2    1    2    0    0  0.52007456869E+02 -0.82750471780E+01  0.73164508377E+02  0.12818934269E+03  0.91138412960E+02 0.  0.
         24    2    1    2    0    0 -0.28294950252E+02 -0.45588772627E+02 -0.71145712265E+02  0.12591255441E+03  0.88956835513E+02 0.  0.
        -11    1    4    4    0    0 -0.18525073994E+01  0.20809793540E+02  0.49979312445E+01  0.21481587641E+02  0.00000000000E+00 0.  1.
         12    1    4    4    0    0 -0.26442442852E+02 -0.66398566167E+02 -0.76143643510E+02  0.10443096677E+03  0.00000000000E+00 0. -1.
        -11    1    3    3    0    0  0.76703281418E+02 -0.15745328035E+02  0.62837119217E+02  0.10039826834E+03  0.00000000000E+00 0. -1.
         11    1    3    3    0    0 -0.24695824549E+02  0.74702808572E+01  0.10327389160E+02  0.27791074343E+02  0.00000000000E+00 0.  1.
         21    1    1    2  503  502  0.19308953881E+02 -0.17112320597E+02 -0.69890863505E+01  0.26730404864E+02  0.00000000000E+00 0. -1.
          3    1    1    2  501    0 -0.43021460498E+02  0.70976140402E+02 -0.45383057045E+02  0.94594293889E+02  0.00000000000E+00 0. -1.
<scales pt_clust_5="13000.00000" pt_clust_6="13000.00000" pt_clust_7="13000.00000" pt_clust_8="13000.00000" pt_clust_9="25.80053" pt_clust_10="74.24870"></scales>
<clustering>
<clus scale="   25.801">  2  9  1 -1</clus>
<clus scale="   74.249">  2 10  1 -1</clus>
<clus scale="   88.957">  5  6 -1 -1</clus>
<clus scale="   91.138">  7  8 -1 -1</clus>
<clus scale="  100.591">  2  5  1 -1</clus>
<clus scale="   25.801">  2  5  1 -1</clus>
</clustering>
</event>
<event>
10    4  0.7204077E-005  0.1762439E+03  0.7546771E-02  0.1197815E+00
         21   -1    0    0  501  502  0.00000000000E+00  0.00000000000E+00  0.69966540480E+03  0.69966540480E+03  0.00000000000E+00 0. -1.
          2   -1    0    0  503    0 -0.00000000000E+00 -0.00000000000E+00 -0.97925006137E+02  0.97925006137E+02  0.00000000000E+00 0. -1.
         23    2    1    2    0    0  0.42637291409E+02  0.30080306868E+01  0.12655175010E+03  0.16255550144E+03  0.92638861871E+02 0.  0.
         24    2    1    2    0    0  0.11900778292E+03 -0.88376956867E+02  0.11753103461E+03  0.20519441270E+03  0.79484992323E+02 0.  0.
        -13    1    4    4    0    0  0.13464665906E+02  0.15173861056E+02  0.15917515287E+02  0.25785860083E+02  0.00000000000E+00 0.  1.
         14    1    4    4    0    0  0.10554311701E+03 -0.10355081792E+03  0.10161351932E+03  0.17940855261E+03  0.00000000000E+00 0. -1.
        -11    1    3    3    0    0  0.50100397800E+02 -0.34815221613E+02  0.59554084216E+02  0.85257483323E+02  0.00000000000E+00 0.  1.
         11    1    3    3    0    0 -0.74631063909E+01  0.37823252300E+02  0.66997665881E+02  0.77298018118E+02  0.00000000000E+00 0. -1.
         21    1    1    2  503  502 -0.38064541341E+02 -0.21840352876E+02  0.19223491219E+03  0.19718055631E+03  0.00000000000E+00 0. -1.
          1    1    1    2  501    0 -0.12358053299E+03  0.10720927906E+03  0.16542270177E+03  0.23265994049E+03  0.00000000000E+00 0. -1.
<scales pt_clust_5="13000.00000" pt_clust_6="13000.00000" pt_clust_7="13000.00000" pt_clust_8="13000.00000" pt_clust_9="43.88519" pt_clust_10="157.30239"></scales>
<clustering>
<clus scale="   43.885">  1  9  2 -1</clus>
<clus scale="   79.485">  5  6 -1 -1</clus>
<clus scale="   92.639">  7  8 -1 -1</clus>
<clus scale="   97.979">  2  7  1 -1</clus>
<clus scale="  157.302">  1 10  2 -1</clus>
<clus scale="   43.885">  1  5  2 -1</clus>
</clustering>
</event>
<event>
10    4  0.7204077E-005  0.1160114E+03  0.7546771E-02  0.1263126E+00
         21   -1    0    0  501  502  0.00000000000E+00  0.00000000000E+00  0.15429122334E+04  0.15429122334E+04  0.00000000000E+00 0. -1.
         -1   -1    0    0    0  501 -0.00000000000E+00 -0.00000000000E+00 -0.67713786195E+02  0.67713786195E+02  0.00000000000E+00 0.  1.
         24    2    1    2    0    0 -0.20863096727E+02  0.36667791060E+02  0.26370301840E+03  0.27837782629E+03  0.78582037051E+02 0.  0.
         23    2    1    2    0    0 -0.24726035821E+02 -0.20439317100E+02  0.17972800650E+02  0.10676719740E+03  0.10023507543E+03 0.  0.
        -11    1    3    3    0    0 -0.11696751940E+02  0.29030993548E+02  0.26887521070E+02  0.41261984703E+02  0.00000000000E+00 0.  1.
         12    1    3    3    0    0 -0.91663447862E+01  0.76367975120E+01  0.23681549734E+03  0.23711584159E+03  0.00000000000E+00 0. -1.
        -11    1    4    4    0    0  0.25226514438E+02  0.76362599994E+00  0.40735582539E+02  0.47920223707E+02  0.00000000000E+00 0.  1.
         11    1    4    4    0    0 -0.49952550259E+02 -0.21202943100E+02 -0.22762781889E+02  0.58846973693E+02  0.00000000000E+00 0. -1.
         21    1    1    2  503  502  0.68104521886E+02  0.97003015684E+02  0.93333475066E+03  0.94083025448E+03  0.00000000000E+00 0. -1.
         -2    1    1    2    0  503 -0.22515389339E+02 -0.11323148964E+03  0.26018787752E+03  0.28465074146E+03  0.00000000000E+00 0.  1.
<scales pt_clust_5="13000.00000" pt_clust_6="13000.00000" pt_clust_7="13000.00000" pt_clust_8="13000.00000" pt_clust_9="13000.00000" pt_clust_10="116.01141"></scales>
<clustering>
<clus scale="   78.582">  5  6 -1 -1</clus>
<clus scale="   89.190">  2  5  1 -1</clus>
<clus scale="  100.235">  7  8 -1 -1</clus>
<clus scale="  108.144">  2  7  1 -1</clus>
<clus scale="  116.011">  2 10  1 -1</clus>
<clus scale="  116.011">  1  5  2 -1</clus>
</clustering>
</event>
<event>
10    4  0.7204077E-005  0.1394663E+03  0.7546771E-02  0.1215901E+00
         21   -1    0    0  501  502  0.00000000000E+00  0.00000000000E+00  0.22108333277E+03  0.22108333277E+03  0.00000000000E+00 0.  1.
          4   -1    0    0  503    0 -0.00000000000E+00 -0.00000000000E+00 -0.26133971891E+03  0.26133971891E+03  0.00000000000E+00 0. -1.
         24    2    1    2    0    0 -0.43360701887E+02 -0.81785608486E+02 -0.11672172936E+03  0.16860555716E+03  0.78960975037E+02 0.  0.
         23    2    1    2    0    0  0.91786289611E+02  0.13149761435E+03 -0.15613721506E+02  0.18347189604E+03  0.87759915660E+02 0.  0.
        -11    1    3    3    0    0  0.37561747278E+01 -0.70730451508E+02 -0.52379379551E+02  0.88093728615E+02  0.00000000000E+00 0.  1.
         12    1    3    3    0    0 -0.47116876615E+02 -0.11055156978E+02 -0.64342349806E+02  0.80511828549E+02  0.00000000000E+00 0. -1.
        -13    1    4    4    0    0  0.10891918500E+03  0.11653039863E+03 -0.89164426474E+01  0.15975677017E+03  0.00000000000E+00 0.  1.
         13    1    4    4    0    0 -0.17132895389E+02  0.14967215721E+02 -0.66972788585E+01  0.23715125868E+02  0.00000000000E+00 0. -1.
         21    1    1    2  503  502 -0.10794504655E+02 -0.50665264158E+02  0.68668483966E+02  0.86016574061E+02  0.00000000000E+00 0.  1.
          3    1    1    2  501    0 -0.37631083069E+02  0.95325829546E+00  0.23410580761E+02  0.44329024418E+02  0.00000000000E+00 0. -1.
<scales pt_clust_5="13000.00000" pt_clust_6="13000.00000" pt_clust_7="13000.00000" pt_clust_8="13000.00000" pt_clust_9="56.75437" pt_clust_10="37.64315"></scales>
<clustering>
<clus scale="   37.643">  1 10  2 -1</clus>
<clus scale="   56.754">  1  9  2 -1</clus>
<clus scale="   78.961">  5  6 -1 -1</clus>
<clus scale="   87.760">  7  8 -1 -1</clus>
<clus scale="  134.104">  2  5  1 -1</clus>
<clus scale="   37.643">  1  5  2 -1</clus>
</clustering>
</event>
<event>
10    4  0.7204077E-005  0.1378105E+03  0.7546771E-02  0.1219405E+00
         21   -1    0    0  501  502  0.00000000000E+00  0.00000000000E+00  0.51355104254E+02  0.51355104254E+02  0.00000000000E+00 0. -1.
          2   -1    0    0  503    0 -0.00000000000E+00 -0.00000000000E+00 -0.16044250412E+04  0.16044250412E+04  0.00000000000E+00 0. -1.
         24    2    1    2    0    0 -0.92879401231E+02  0.64326394165E+02 -0.82384696902E+03  0.83520105117E+03  0.77926243000E+02 0.  0.
         23    2    1    2    0    0  0.10664549999E+03  0.38420857951E+02 -0.36071296729E+03  0.38905135410E+03  0.91638891102E+02 0.  0.
        -13    1    3    3    0    0 -0.10081344668E+03  0.47738861747E+02 -0.57783440126E+03  0.58850228992E+03  0.00000000000E+00 0.  1.
         14    1    3    3    0    0  0.79340454488E+01  0.16587532418E+02 -0.24601256776E+03  0.24669876126E+03  0.00000000000E+00 0. -1.
        -11    1    4    4    0    0  0.20539566484E+02 -0.25870849653E+02 -0.13616778281E+03  0.14011723566E+03  0.00000000000E+00 0.  1.
         11    1    4    4    0    0  0.86105933504E+02  0.64291707603E+02 -0.22454518447E+03  0.24893411844E+03  0.00000000000E+00 0. -1.
         21    1    1    2  503  502  0.69414530586E+02  0.13513715614E+02 -0.65065541829E+02  0.96096421887E+02  0.00000000000E+00 0. -1.
          1    1    1    2  501    0 -0.83180629342E+02 -0.11626096773E+03 -0.30344445881E+03  0.33543131830E+03  0.00000000000E+00 0. -1.
<scales pt_clust_5="13000.00000" pt_clust_6="13000.00000" pt_clust_7="13000.00000" pt_clust_8="13000.00000" pt_clust_9="70.71773" pt_clust_10="121.96746"></scales>
<clustering>
<clus scale="   70.718">  1  9  2 -1</clus>
<clus scale="   77.926">  5  6 -1 -1</clus>
<clus scale="   91.639">  7  8 -1 -1</clus>
<clus scale="  121.967">  1 10  2 -1</clus>
<clus scale="  129.099">  2  5  1 -1</clus>
<clus scale="   70.718">  1  5  2 -1</clus>
</clustering>
</event>
<event>
10    4  0.7204077E-005  0.3722585E+03  0.7546771E-02  0.1105923E+00
          2   -1    0    0  503    0 -0.00000000000E+00  0.00000000000E+00  0.11167262973E+04  0.11167262973E+04  0.00000000000E+00 0. -1.
         21   -1    0    0  501  502  0.00000000000E+00 -0.00000000000E+00 -0.24998931569E+03  0.24998931569E+03  0.00000000000E+00 0. -1.
         23    2    1    2    0    0  0.27758291646E+02  0.56350287025E+02  0.78928587066E+02  0.12297268672E+03  0.70332654003E+02 0.  0.
         24    2    1    2    0    0  0.29586736916E+03  0.18377908665E+03  0.56831056353E+03  0.67151564382E+03  0.81511413003E+02 0.  0.
        -13    1    4    4    0    0  0.11462548108E+03  0.35864547543E+02  0.14920228364E+03  0.19153743271E+03  0.00000000000E+00 0.  1.
         14    1    4    4    0    0  0.18124188809E+03  0.14791453910E+03  0.41910827989E+03  0.47997821111E+03  0.00000000000E+00 0. -1.
        -13    1    3    3    0    0  0.24918850162E+02 -0.50131747492E+01  0.47727282821E+02  0.54073787919E+02  0.00000000000E+00 0.  1.
         13    1    3    3    0    0  0.28394414836E+01  0.61363461774E+02  0.31201304245E+02  0.68898898797E+02  0.00000000000E+00 0. -1.
         21    1    1    2  503  502 -0.34065697951E+02 -0.19459914225E+02 -0.87572122287E+02  0.95958515205E+02  0.00000000000E+00 0.  1.
          1    1    1    2  501    0 -0.28955996286E+03 -0.22066945945E+03  0.30706995325E+03  0.47626876720E+03  0.00000000000E+00 0. -1.
<scales pt_clust_5="13000.00000" pt_clust_6="13000.00000" pt_clust_7="13000.00000" pt_clust_8="13000.00000" pt_clust_9="39.23213" pt_clust_10="363.22482"></scales>
<clustering>
<clus scale="   39.232">  2  9  1 -1</clus>
<clus scale="   70.333">  7  8 -1 -1</clus>
<clus scale="   81.511">  5  6 -1 -1</clus>
<clus scale="   91.400">  1  7  2 -1</clus>
<clus scale="  363.225">  2 10  1 -1</clus>
<clus scale="   39.232">  2  5  1 -1</clus>
</clustering>
</event>
<event>
10    4  0.7204077E-005  0.1276995E+03  0.7546771E-02  0.1247675E+00
         21   -1    0    0  501  502  0.00000000000E+00  0.00000000000E+00  0.78455320046E+02  0.78455320046E+02  0.00000000000E+00 0. -1.
          2   -1    0    0  503    0 -0.00000000000E+00 -0.00000000000E+00 -0.65996765292E+03  0.65996765292E+03  0.00000000000E+00 0. -1.
         23    2    1    2    0    0 -0.26559295029E+02  0.15112218673E+02 -0.27248280030E+03  0.29966940601E+03  0.12091774532E+03 0.  0.
         24    2    1    2    0    0  0.44327372006E+02 -0.20575509107E+02 -0.21287604272E+03  0.23294858266E+03  0.80997315473E+02 0.  0.
        -13    1    4    4    0    0  0.22838562267E+02 -0.37725942912E+02 -0.19552699263E+03  0.20043864783E+03  0.00000000000E+00 0.  1.
         14    1    4    4    0    0  0.21488809739E+02  0.17150433805E+02 -0.17349050089E+02  0.32509934831E+02  0.00000000000E+00 0. -1.
        -11    1    3    3    0    0  0.33123219490E+02 -0.84585106802E+01 -0.20981854807E+02  0.40111498394E+02  0.00000000000E+00 0.  1.
         11    1    3    3    0    0 -0.59682514518E+02  0.23570729353E+02 -0.25150094549E+03  0.25955790761E+03  0.00000000000E+00 0. -1.
         21    1    1    2  503  502 -0.22310085865E+02  0.79043751955E+02  0.30739699722E+01  0.82189439381E+02  0.00000000000E+00 0. -1.
          1    1    1    2  501    0  0.45420088871E+01 -0.73580461521E+02 -0.99227459828E+02  0.12361554492E+03  0.00000000000E+00 0. -1.
<scales pt_clust_5="13000.00000" pt_clust_6="13000.00000" pt_clust_7="13000.00000" pt_clust_8="13000.00000" pt_clust_9="37.16135" pt_clust_10="73.72055"></scales>
<clustering>
<clus scale="   73.721">  1 10  2 -1</clus>
<clus scale="   37.161">  1  9  2 -1</clus>
<clus scale="   80.997">  5  6 -1 -1</clus>
<clus scale="   90.811">  1  5  2 -1</clus>
<clus scale="  120.918">  7  8 -1 -1</clus>
<clus scale="   73.721">  1  5  2 -1</clus>
</clustering>
</event>
<event>
10    4  0.7204077E-005  0.9807571E+02  0.7546771E-02  0.1289557E+00
         21   -1    0    0  503  502  0.00000000000E+00  0.00000000000E+00  0.26492751067E+02  0.26492751067E+02  0.00000000000E+00 0. -1.
          2   -1    0    0  502    0 -0.00000000000E+00 -0.00000000000E+00 -0.85785190332E+03  0.85785190332E+03  0.00000000000E+00 0. -1.
         23    2    1    2    0    0  0.30561165190E+02 -0.37189875745E+02 -0.27185453777E+03  0.29029162300E+03  0.89706549377E+02 0.  0.
         24    2    1    2    0    0  0.37796099262E+02  0.41932176207E+02 -0.24103796207E+03  0.26006728334E+03  0.79679609583E+02 0.  0.
        -11    1    4    4    0    0  0.30866051333E+00  0.47515291339E+02 -0.68187712137E+02  0.83110542465E+02  0.00000000000E+00 0.  1.
         12    1    4    4    0    0  0.37487438748E+02 -0.55831151320E+01 -0.17285024994E+03  0.17695674088E+03  0.00000000000E+00 0. -1.
        -13    1    3    3    0    0  0.32308491891E+02  0.14911216299E+02 -0.44193795985E+02  0.56738651934E+02  0.00000000000E+00 0.  1.
         13    1    3    3    0    0 -0.17473267002E+01 -0.52101092044E+02 -0.22766074179E+03  0.23355297106E+03  0.00000000000E+00 0. -1.
         21    1    1    2  503  501 -0.35448109309E+02  0.18521332925E+02 -0.58201949996E+02  0.70619226916E+02  0.00000000000E+00 0. -1.
          1    1    1    2  501    0 -0.32909155143E+02 -0.23263633388E+02 -0.26026470241E+03  0.26336652113E+03  0.00000000000E+00 0. -1.
<scales pt_clust_5="13000.00000" pt_clust_6="13000.00000" pt_clust_7="13000.00000" pt_clust_8="13000.00000" pt_clust_9="39.99510" pt_clust_10="41.78592"></scales>
<clustering>
<clus scale="   39.995">  1  9  2 -1</clus>
<clus scale="   41.786">  1 10  2 -1</clus>
<clus scale="   79.680">  5  6 -1 -1</clus>
<clus scale="   88.997">  1  5  2 -1</clus>
<clus scale="   89.707">  7  8 -1 -1</clus>
<clus scale="   39.995">  1  5  2 -1</clus>
</clustering>
</event>
<event>
10    4  0.7204077E-005  0.1024993E+03  0.7546771E-02  0.1280877E+00
         21   -1    0    0  501  502  0.00000000000E+00  0.00000000000E+00  0.60838783488E+02  0.60838783488E+02  0.00000000000E+00 0. -1.
          4   -1    0    0  503    0 -0.00000000000E+00 -0.00000000000E+00 -0.36987216194E+03  0.36987216194E+03  0.00000000000E+00 0. -1.
         24    2    1    2    0    0 -0.31769143543E+02 -0.25316580947E+02 -0.10900922486E+03  0.14026047020E+03  0.78356752383E+02 0.  0.
         23    2    1    2    0    0  0.67266371532E+02  0.10773812425E+02 -0.65485253547E+02  0.13092106824E+03  0.90615494835E+02 0.  0.
        -11    1    3    3    0    0  0.20761560706E+01  0.23236211987E+02 -0.11057849897E+02  0.25816816533E+02  0.00000000000E+00 0.  1.
         12    1    3    3    0    0 -0.33845299614E+02 -0.48552792934E+02 -0.97951374967E+02  0.11444365367E+03  0.00000000000E+00 0. -1.
        -13    1    4    4    0    0 -0.19099001588E+02  0.18432173329E+02 -0.17934059947E+02  0.32033535263E+02  0.00000000000E+00 0.  1.
         13    1    4    4    0    0  0.86365373120E+02 -0.76583609037E+01 -0.47551193600E+02  0.98887532979E+02  0.00000000000E+00 0. -1.
         21    1    1    2  503  502  0.23083171767E+02  0.59742692303E+01 -0.22367926115E+02  0.32693253591E+02  0.00000000000E+00 0.  1.
          3    1    1    2  501    0 -0.58580399756E+02  0.85684992916E+01 -0.11217097393E+03  0.12683615339E+03  0.00000000000E+00 0. -1.
<scales pt_clust_5="13000.00000" pt_clust_6="13000.00000" pt_clust_7="13000.00000" pt_clust_8="13000.00000" pt_clust_9="23.84376" pt_clust_10="56.32276"></scales>
<clustering>
<clus scale="   23.844">  1  9  2 -1</clus>
<clus scale="   56.323">  1 10  2 -1</clus>
<clus scale="   78.357">  5  6 -1 -1</clus>
<clus scale="   90.615">  7  8 -1 -1</clus>
<clus scale="   91.841">  2  5  1 -1</clus>
<clus scale="   23.844">  1  5  2 -1</clus>
</clustering>
</event>
<event>
10    4  0.7204077E-005  0.3194058E+03  0.7546771E-02  0.1076211E+00
          2   -1    0    0  503    0 -0.00000000000E+00  0.00000000000E+00  0.10674281589E+04  0.10674281589E+04  0.00000000000E+00 0. -1.
         21   -1    0    0  501  502  0.00000000000E+00 -0.00000000000E+00 -0.19362691092E+03  0.19362691092E+03  0.00000000000E+00 0. -1.
         23    2    1    2    0    0  0.18435179918E+03  0.25558644025E+03  0.82463759618E+03  0.88737731163E+03  0.90007298968E+02 0.  0.
         24    2    1    2    0    0 -0.12293975076E+03 -0.24532489037E+03  0.35380622868E+02  0.28821377025E+03  0.80727348132E+02 0.  0.
        -13    1    4    4    0    0  0.68140009049E+01 -0.56516681424E+02  0.59538934017E+01  0.57236480798E+02  0.00000000000E+00 0.  1.
         14    1    4    4    0    0 -0.12975375166E+03 -0.18880820894E+03  0.29426729467E+02  0.23097728945E+03  0.00000000000E+00 0. -1.
        -13    1    3    3    0    0  0.13341905576E+03  0.23978897768E+03  0.69183730099E+03  0.74427027973E+03  0.00000000000E+00 0. -1.
         13    1    3    3    0    0  0.50932743416E+02  0.15797462566E+02  0.13280029519E+03  0.14310703190E+03  0.00000000000E+00 0.  1.
         21    1    1    2  503  502 -0.11241972852E+02 -0.18914071254E+02 -0.15330308806E+02  0.26816830780E+02  0.00000000000E+00 0. -1.
          1    1    1    2  501    0 -0.50170075565E+02  0.86525213749E+01  0.29113337719E+02  0.58647157147E+02  0.00000000000E+00 0. -1.
<scales pt_clust_5="13000.00000" pt_clust_6="13000.00000" pt_clust_7="13000.00000" pt_clust_8="13000.00000" pt_clust_9="22.00282" pt_clust_10="51.61368"></scales>
<clustering>
<clus scale="   22.003">  2  9  1 -1</clus>
<clus scale="   51.614">  2 10  1 -1</clus>
<clus scale="   80.727">  5  6 -1 -1</clus>
<clus scale="   90.007">  7  8 -1 -1</clus>
<clus scale="  316.916">  2  5  1 -1</clus>
<clus scale="   22.003">  2  5  1 -1</clus>
</clustering>
</event>
<event>
10    4  0.7204077E-005  0.1670347E+03  0.7546771E-02  0.1209710E+00
         21   -1    0    0  501  502  0.00000000000E+00  0.00000000000E+00  0.21163360959E+03  0.21163360959E+03  0.00000000000E+00 0. -1.
          2   -1    0    0  503    0 -0.00000000000E+00 -0.00000000000E+00 -0.64453971632E+03  0.64453971632E+03  0.00000000000E+00 0. -1.
         24    2    1    2    0    0  0.29773149145E+02 -0.18447254985E+02 -0.58851299794E+02  0.10441683906E+03  0.78820423530E+02 0.  0.
         23    2    1    2    0    0 -0.78169567749E+01 -0.12280780686E+03 -0.46556575575E+03  0.48972025239E+03  0.89059476961E+02 0.  0.
        -11    1    3    3    0    0  0.43231330192E+02  0.15671076389E+02 -0.47289763146E+02  0.65960990318E+02  0.00000000000E+00 0.  1.
         12    1    3    3    0    0 -0.13458181047E+02 -0.34118331374E+02 -0.11561536648E+02  0.38455848742E+02  0.00000000000E+00 0. -1.
        -11    1    4    4    0    0 -0.21060439815E+02  0.62547205322E+01 -0.59145311906E+02  0.63093831510E+02  0.00000000000E+00 0.  1.
         11    1    4    4    0    0  0.13243483041E+02 -0.12906252739E+03 -0.40642044384E+03  0.42662642088E+03  0.00000000000E+00 0. -1.
         21    1    1    2  503  502  0.33570334180E+02  0.33952710410E+00  0.10474953025E+03  0.10999793954E+03  0.00000000000E+00 0. -1.
          1    1    1    2  501    0 -0.55526526550E+02  0.14091553474E+03 -0.13238581438E+02  0.15203829492E+03  0.00000000000E+00 0. -1.
<scales pt_clust_5="13000.00000" pt_clust_6="13000.00000" pt_clust_7="13000.00000" pt_clust_8="13000.00000" pt_clust_9="33.57205" pt_clust_10="141.31170"></scales>
<clustering>
<clus scale="   33.572">  1  9  2 -1</clus>
<clus scale="   78.820">  5  6 -1 -1</clus>
<clus scale="   89.035">  2  5  1 -1</clus>
<clus scale="   89.059">  7  8 -1 -1</clus>
<clus scale="  141.312">  1 10  2 -1</clus>
<clus scale="   33.572">  1  5  2 -1</clus>
</clustering>
</event>
<event>
10    4  0.7204077E-005  0.9872057E+02  0.7546771E-02  0.1288933E+00
         21   -1    0    0  501  502  0.00000000000E+00  0.00000000000E+00  0.46340244543E+02  0.46340244543E+02  0.00000000000E+00 0. -1.
          2   -1    0    0  503    0 -0.00000000000E+00 -0.00000000000E+00 -0.57882883258E+03  0.57882883258E+03  0.00000000000E+00 0. -1.
         23    2    1    2    0    0  0.31740452250E+02  0.52989798597E+02 -0.30881663884E+03  0.32824360257E+03  0.92524435370E+02 0.  0.
         24    2    1    2    0    0 -0.23213903464E+02  0.93533662405E+01 -0.18838679528E+03  0.20670342770E+03  0.81304068866E+02 0.  0.
        -13    1    4    4    0    0 -0.49673356741E+02  0.22360703312E+02 -0.10558954771E+03  0.11881328212E+03  0.00000000000E+00 0.  1.
         14    1    4    4    0    0  0.26459453277E+02 -0.13007337072E+02 -0.82797247567E+02  0.87890145580E+02  0.00000000000E+00 0. -1.
        -13    1    3    3    0    0 -0.11429961254E+02 -0.21203242070E+02 -0.90698565417E+02  0.93842694213E+02  0.00000000000E+00 0.  1.
         13    1    3    3    0    0  0.43170413504E+02  0.74193040667E+02 -0.21811807342E+03  0.23440090836E+03  0.00000000000E+00 0. -1.
         21    1    1    2  503  502  0.15784290161E+02 -0.27418699198E+02  0.45140744215E+01  0.31957874608E+02  0.00000000000E+00 0. -1.
          1    1    1    2  501    0 -0.24310838947E+02 -0.34924465640E+02 -0.39799228338E+02  0.58264172240E+02  0.00000000000E+00 0. -1.
<scales pt_clust_5="13000.00000" pt_clust_6="13000.00000" pt_clust_7="13000.00000" pt_clust_8="13000.00000" pt_clust_9="31.63746" pt_clust_10="47.91434"></scales>
<clustering>
<clus scale="   31.637">  1  9  2 -1</clus>
<clus scale="   47.914">  1 10  2 -1</clus>
<clus scale="   81.304">  5  6 -1 -1</clus>
<clus scale="   88.291">  1  5  2 -1</clus>
<clus scale="   92.524">  7  8 -1 -1</clus>
<clus scale="   31.637">  1  5  2 -1</clus>
</clustering>
</event>
<event>
10    4  0.7204077E-005  0.1287756E+03  0.7546771E-02  0.1250736E+00
          4   -1    0    0  502    0 -0.00000000000E+00  0.00000000000E+00  0.17709091675E+03  0.17709091675E+03  0.00000000000E+00 0. -1.
         21   -1    0    0  503  502  0.00000000000E+00 -0.00000000000E+00 -0.16229094099E+03  0.16229094099E+03  0.00000000000E+00 0. -1.
         24    2    1    2    0    0  0.24280297612E+02  0.38029320482E+01  0.26617577341E+02  0.86064598054E+02  0.78068075873E+02 0.  0.
         23    2    1    2    0    0  0.30800941024E+02  0.66009182412E+02 -0.83287430648E+01  0.12699509060E+03  0.10369414132E+03 0.  0.
        -13    1    3    3    0    0 -0.23858175192E+02 -0.16969006584E+02  0.11954496664E+02  0.31623878612E+02  0.00000000000E+00 0.  1.
         14    1    3    3    0    0  0.48138472804E+02  0.20771938633E+02  0.14663080677E+02  0.54440719442E+02  0.00000000000E+00 0. -1.
        -13    1    4    4    0    0  0.26554158529E+02 -0.57509234768E+01 -0.40070607303E+02  0.48413324877E+02  0.00000000000E+00 0.  1.
         13    1    4    4    0    0  0.42467824952E+01  0.71760105888E+02  0.31741864238E+02  0.78581765722E+02  0.00000000000E+00 0. -1.
         21    1    1    2  503  501  0.21149047154E+02 -0.28336112592E+02 -0.15694163764E+02  0.38684935680E+02  0.00000000000E+00 0. -1.
          3    1    1    2  501    0 -0.76230285789E+02 -0.41476001867E+02  0.12205305247E+02  0.87637233404E+02  0.00000000000E+00 0. -1.
<scales pt_clust_5="13000.00000" pt_clust_6="13000.00000" pt_clust_7="13000.00000" pt_clust_8="13000.00000" pt_clust_9="35.35841" pt_clust_10="76.35895"></scales>
<clustering>
<clus scale="   35.358">  2  9  1 -1</clus>
<clus scale="   78.068">  5  6 -1 -1</clus>
<clus scale="   83.293">  1  5  2 -1</clus>
<clus scale="   76.359">  2 10  1 -1</clus>
<clus scale="  103.694">  7  8 -1 -1</clus>
<clus scale="   35.358">  2  5  1 -1</clus>
</clustering>
</event>
<event>
10    4  0.7204077E-005  0.3333369E+03  0.7546771E-02  0.1103958E+00
         21   -1    0    0  503  502  0.00000000000E+00  0.00000000000E+00  0.14061299491E+03  0.14061299491E+03  0.00000000000E+00 0. -1.
          2   -1    0    0  502    0 -0.00000000000E+00 -0.00000000000E+00 -0.44090427270E+04  0.44090427270E+04  0.00000000000E+00 0. -1.
         24    2    1    2    0    0  0.10459331971E+03  0.20260185620E+02 -0.94661278023E+03  0.95603562092E+03  0.81105580115E+02 0.  0.
         23    2    1    2    0    0 -0.29724938278E+03  0.62530522782E+02 -0.10402729430E+04  0.10876677587E+04  0.92661187023E+02 0.  0.
        -13    1    3    3    0    0  0.76231626048E+02 -0.72800631544E+01 -0.35809762922E+03  0.36619417279E+03  0.00000000000E+00 0.  1.
         14    1    3    3    0    0  0.28361693664E+02  0.27540248775E+02 -0.58851515101E+03  0.58984144813E+03  0.00000000000E+00 0. -1.
        -11    1    4    4    0    0 -0.11341060372E+03  0.63725289312E+02 -0.51406282286E+03  0.53026735085E+03  0.00000000000E+00 0.  1.
         11    1    4    4    0    0 -0.18383877906E+03 -0.11947665298E+01 -0.52621012016E+03  0.55740040789E+03  0.00000000000E+00 0. -1.
         21    1    1    2  503  501 -0.10105030266E+03 -0.12015167311E+03  0.42881597710E+02  0.16274648887E+03  0.00000000000E+00 0. -1.
          1    1    1    2  501    0  0.29370636572E+03  0.37360964707E+02 -0.23244256065E+04  0.23432058534E+04  0.00000000000E+00 0. -1.
<scales pt_clust_5="13000.00000" pt_clust_6="13000.00000" pt_clust_7="13000.00000" pt_clust_8="13000.00000" pt_clust_9="155.56420" pt_clust_10="320.19911"></scales>
<clustering>
<clus scale="   81.106">  5  6 -1 -1</clus>
<clus scale="   92.661">  7  8 -1 -1</clus>
<clus scale="  133.897">  2  5  1 -1</clus>
<clus scale="  155.564">  1  9  2 -1</clus>
<clus scale="  320.199">  1 10  2 -1</clus>
<clus scale="  155.564">  1  5  2 -1</clus>
</clustering>
</event>
<event>
10    4  0.7204077E-005  0.1089618E+03  0.7546771E-02  0.1267359E+00
          2   -1    0    0  502    0 -0.00000000000E+00  0.00000000000E+00  0.30452348887E+03  0.30452348887E+03  0.00000000000E+00 0. -1.
         21   -1    0    0  503  502  0.00000000000E+00 -0.00000000000E+00 -0.13775505687E+03  0.13775505687E+03  0.00000000000E+00 0. -1.
         24    2    1    2    0    0  0.43004656884E+02 -0.36839308819E+02  0.15774035274E+03  0.18620387791E+03  0.81137722896E+02 0.  0.
         23    2    1    2    0    0 -0.57488162553E+02  0.20448464592E+02  0.20331982849E+02  0.11299202512E+03  0.92901989621E+02 0.  0.
        -11    1    3    3    0    0  0.28701289941E+02  0.21845264673E+02  0.39911664653E+02  0.53795172723E+02  0.00000000000E+00 0.  1.
         12    1    3    3    0    0  0.14303366943E+02 -0.58684573493E+02  0.11782868809E+03  0.13240870519E+03  0.00000000000E+00 0. -1.
        -11    1    4    4    0    0 -0.27263524414E+02  0.16928538630E+02 -0.36453982931E+02  0.48567149959E+02  0.00000000000E+00 0. -1.
         11    1    4    4    0    0 -0.30224638139E+02  0.35199259619E+01  0.56785965781E+02  0.64424875157E+02  0.00000000000E+00 0.  1.
         21    1    1    2  503  501  0.60677732415E+01 -0.28914818008E+02 -0.65553465466E+02  0.71903695365E+02  0.00000000000E+00 0. -1.
          1    1    1    2  501    0  0.84157324271E+01  0.45305662236E+02  0.54249561875E+02  0.71178947355E+02  0.00000000000E+00 0. -1.
<scales pt_clust_5="13000.00000" pt_clust_6="13000.00000" pt_clust_7="13000.00000" pt_clust_8="13000.00000" pt_clust_9="29.54462" pt_clust_10="42.75265"></scales>
<clustering>
<clus scale="   29.545">  2  9  1 -1</clus>
<clus scale="   42.753">  2 10  1 -1</clus>
<clus scale="   81.138">  5  6 -1 -1</clus>
<clus scale="   92.902">  7  8 -1 -1</clus>
<clus scale="   99.122">  1  5  2 -1</clus>
<clus scale="   29.545">  2  5  1 -1</clus>
</clustering>
</event>
<event>
10    4  0.7204077E-005  0.3289726E+03  0.7546771E-02  0.1071592E+00
          2   -1    0    0  503    0 -0.00000000000E+00  0.00000000000E+00  0.89141457674E+03  0.89141457674E+03  0.00000000000E+00 0. -1.
         21   -1    0    0  501  502  0.00000000000E+00 -0.00000000000E+00 -0.21416115011E+03  0.21416115011E+03  0.00000000000E+00 0. -1.
         24    2    1    2    0    0 -0.10327997347E+03  0.25459768480E+02  0.12871721054E+03  0.18864512736E+03  0.87771926370E+02 0.  0.
         23    2    1    2    0    0 -0.12206596778E+03 -0.92048899357E+02  0.19171725503E+03  0.26152936890E+03  0.90934067100E+02 0.  0.
        -11    1    3    3    0    0 -0.29085558622E+02 -0.23476747197E+02  0.71556751112E+01  0.38056945038E+02  0.00000000000E+00 0.  1.
         12    1    3    3    0    0 -0.74194414849E+02  0.48936515677E+02  0.12156153542E+03  0.15058818233E+03  0.00000000000E+00 0. -1.
        -11    1    4    4    0    0 -0.93383162045E+01 -0.56840990873E+02  0.82857437479E+02  0.10091311777E+03  0.00000000000E+00 0.  1.
         11    1    4    4    0    0 -0.11272765158E+03 -0.35207908484E+02  0.10885981755E+03  0.16061625113E+03  0.00000000000E+00 0. -1.
         21    1    1    2  503  502 -0.25053788487E+02 -0.59669386994E+01 -0.11418961283E+03  0.11705795296E+03  0.00000000000E+00 0. -1.
          1    1    1    2  501    0  0.25039972974E+03  0.72556069577E+02  0.47100857389E+03  0.53834327762E+03  0.00000000000E+00 0. -1.
<scales pt_clust_5="13000.00000" pt_clust_6="13000.00000" pt_clust_7="13000.00000" pt_clust_8="13000.00000" pt_clust_9="25.75455" pt_clust_10="251.91098"></scales>
<clustering>
<clus scale="   25.755">  2  9  1 -1</clus>
<clus scale="   87.772">  5  6 -1 -1</clus>
<clus scale="   90.934">  7  8 -1 -1</clus>
<clus scale="  130.234">  5  7 -1 -1</clus>
<clus scale="  251.911">  2 10  1 -1</clus>
<clus scale="   25.755">  2  5  1 -1</clus>
</clustering>
</event>
<event>
10    4  0.7204077E-005  0.3219992E+03  0.7546771E-02  0.1090083E+00
          2   -1    0    0  502    0 -0.00000000000E+00  0.00000000000E+00  0.71608705139E+03  0.71608705139E+03  0.00000000000E+00 0. -1.
         21   -1    0    0  503  502  0.00000000000E+00 -0.00000000000E+00 -0.39130799241E+03  0.39130799241E+03  0.00000000000E+00 0. -1.
         23    2    1    2    0    0 -0.13716902121E+03  0.13381400403E+03 -0.50845215586E+01  0.21224489010E+03  0.91107150987E+02 0.  0.
         24    2    1    2    0    0 -0.56513066806E+02  0.19933711340E+03  0.33725404112E+03  0.40469767646E+03  0.84326209337E+02 0.  0.
        -11    1    4    4    0    0  0.18994102523E+02  0.79609542445E+02  0.11353008086E+03  0.13995547306E+03  0.00000000000E+00 0.  1.
         12    1    4    4    0    0 -0.75507169330E+02  0.11972757096E+03  0.22372396026E+03  0.26474220341E+03  0.00000000000E+00 0. -1.
        -13    1    3    3    0    0 -0.24934108106E+02  0.87110743120E+02 -0.32263584550E+01  0.90666425445E+02  0.00000000000E+00 0.  1.
         13    1    3    3    0    0 -0.11223491310E+03  0.46703260914E+02 -0.18581631036E+01  0.12157846466E+03  0.00000000000E+00 0. -1.
         21    1    1    2  503  501 -0.20392288277E+02 -0.16878925617E+02 -0.95002107232E+02  0.98621214400E+02  0.00000000000E+00 0. -1.
          1    1    1    2  501    0  0.21407437629E+03 -0.31627219182E+03  0.87611646650E+02  0.39183126283E+03  0.00000000000E+00 0. -1.
<scales pt_clust_5="13000.00000" pt_clust_6="13000.00000" pt_clust_7="13000.00000" pt_clust_8="13000.00000" pt_clust_9="26.47156" pt_clust_10="310.76127"></scales>
<clustering>
<clus scale="   26.472">  2  9  1 -1</clus>
<clus scale="   84.326">  5  6 -1 -1</clus>
<clus scale="   91.107">  7  8 -1 -1</clus>
<clus scale="  213.342">  1  7  2 -1</clus>
<clus scale="  310.761">  2 10  1 -1</clus>
<clus scale="   26.472">  2  5  1 -1</clus>
</clustering>
</event>
<event>
10    4  0.7204077E-005  0.1633807E+03  0.7546771E-02  0.1197129E+00
         21   -1    0    0  503  502  0.00000000000E+00  0.00000000000E+00  0.22213070222E+03  0.22213070222E+03  0.00000000000E+00 0. -1.
          2   -1    0    0  502    0 -0.00000000000E+00 -0.00000000000E+00 -0.78723558743E+03  0.78723558743E+03  0.00000000000E+00 0. -1.
         23    2    1    2    0    0 -0.69912253729E+02  0.48741022935E+02  0.36853908918E+02  0.12971673291E+03  0.90580404364E+02 0.  0.
         24    2    1    2    0    0  0.15929849188E+03  0.84128588641E+02 -0.66227472869E+03  0.69141904119E+03  0.83659101842E+02 0.  0.
        -11    1    4    4    0    0  0.11769612345E+03  0.30634533151E+02 -0.31641450008E+03  0.33898228266E+03  0.00000000000E+00 0.  1.
         12    1    4    4    0    0  0.41602368435E+02  0.53494055490E+02 -0.34586022861E+03  0.35243675853E+03  0.00000000000E+00 0. -1.
        -13    1    3    3    0    0  0.84063603576E-02 -0.23430210931E+02  0.27042583400E+01  0.23585755619E+02  0.00000000000E+00 0.  1.
         13    1    3    3    0    0 -0.69920660090E+02  0.72171233866E+02  0.34149650578E+02  0.10613097729E+03  0.00000000000E+00 0. -1.
         21    1    1    2  503  501 -0.18735973924E+02 -0.31533807965E+02  0.53034434213E+02  0.64483090620E+02  0.00000000000E+00 0. -1.
          1    1    1    2  501    0 -0.70650264229E+02 -0.10133580361E+03  0.72815003514E+01  0.12374742493E+03  0.00000000000E+00 0. -1.
<scales pt_clust_5="13000.00000" pt_clust_6="13000.00000" pt_clust_7="13000.00000" pt_clust_8="13000.00000" pt_clust_9="36.67994" pt_clust_10="140.33673"></scales>
<clustering>
<clus scale="   36.680">  1  9  2 -1</clus>
<clus scale="   83.659">  5  6 -1 -1</clus>
<clus scale="   90.580">  7  8 -1 -1</clus>
<clus scale="  124.845">  2  7  1 -1</clus>
<clus scale="  140.337">  1 10  2 -1</clus>
<clus scale="   36.680">  1  5  2 -1</clus>
</clustering>
</event>
<event>
10    4  0.7204077E-005  0.9976638E+02  0.7546771E-02  0.1286801E+00
         -1   -1    0    0    0  501 -0.00000000000E+00  0.00000000000E+00  0.52706698298E+03  0.52706698298E+03  0.00000000000E+00 0.  1.
         21   -1    0    0  503  502  0.00000000000E+00 -0.00000000000E+00 -0.46630495699E+02  0.46630495699E+02  0.00000000000E+00 0.  1.
         23    2    1    2    0    0  0.32338769328E+02  0.69274070333E+01  0.35583572272E+03  0.36916985875E+03  0.92593401890E+02 0.  0.
         24    2    1    2    0    0 -0.43696521675E+02 -0.19016666977E+02  0.11962905044E+03  0.15208709150E+03  0.80921901009E+02 0.  0.
        -11    1    4    4    0    0  0.17230934217E+02  0.16013345552E+02  0.26896919858E+02  0.35732011245E+02  0.00000000000E+00 0.  1.
         12    1    4    4    0    0 -0.60927455892E+02 -0.35030012529E+02  0.92732130581E+02  0.11635508026E+03  0.00000000000E+00 0. -1.
        -13    1    3    3    0    0 -0.22410696447E+02  0.30567201663E+02  0.16160897175E+03  0.16599413509E+03  0.00000000000E+00 0. -1.
         13    1    3    3    0    0  0.54749465775E+02 -0.23639794630E+02  0.19422675097E+03  0.20317572366E+03  0.00000000000E+00 0.  1.
         21    1    1    2  503  501  0.23261799625E+02 -0.11367347129E+02  0.19717946925E+01  0.25965667272E+02  0.00000000000E+00 0.  1.
         -2    1    1    2    0  502 -0.11904047278E+02  0.23456607073E+02  0.29999194315E+01  0.26474861162E+02  0.00000000000E+00 0.  1.
<scales pt_clust_5="13000.00000" pt_clust_6="13000.00000" pt_clust_7="13000.00000" pt_clust_8="13000.00000" pt_clust_9="25.89069" pt_clust_10="20.01219"></scales>
<clustering>
<clus scale="   25.891">  2  9  1 -1</clus>
<clus scale="   20.012">  2 10  1 -1</clus>
<clus scale="   80.922">  5  6 -1 -1</clus>
<clus scale="   89.040">  2  5  1 -1</clus>
<clus scale="   92.593">  7  8 -1 -1</clus>
<clus scale="   25.891">  2  5  1 -1</clus>
</clustering>
</event>
<event>
10    4  0.7204077E-005  0.1220450E+03  0.7546771E-02  0.1260602E+00
         -1   -1    0    0    0  501 -0.00000000000E+00  0.00000000000E+00  0.31887154783E+03  0.31887154783E+03  0.00000000000E+00 0.  1.
         21   -1    0    0  503  502  0.00000000000E+00 -0.00000000000E+00 -0.75828969900E+02  0.75828969900E+02  0.00000000000E+00 0.  1.
         24    2    1    2    0    0  0.74712232308E+01 -0.19532436443E+01  0.70277281097E+02  0.10703839313E+03  0.80365956892E+02 0.  0.
         23    2    1    2    0    0  0.14596859868E+02 -0.75272594949E+02  0.76647146788E+02  0.14174707582E+03  0.91314930453E+02 0.  0.
        -11    1    3    3    0    0  0.20351323710E+02  0.32533237539E+02  0.55265649616E+02  0.67282092335E+02  0.00000000000E+00 0.  1.
         12    1    3    3    0    0 -0.12880100479E+02 -0.34486481184E+02  0.15011631480E+02  0.39756300790E+02  0.00000000000E+00 0. -1.
        -11    1    4    4    0    0  0.43528202868E+02 -0.42938344841E+02  0.96086341449E+01  0.61892905512E+02  0.00000000000E+00 0.  1.
         11    1    4    4    0    0 -0.28931342999E+02 -0.32334250108E+02  0.67038512643E+02  0.79854170305E+02  0.00000000000E+00 0. -1.
         21    1    1    2  503  501 -0.19514452752E+02 -0.70761059579E+01  0.42227750997E+01  0.21182940572E+02  0.00000000000E+00 0.  1.
         -2    1    1    2    0  502 -0.25536303466E+01  0.84301944551E+02  0.91895374942E+02  0.12473210821E+03  0.00000000000E+00 0.  1.
<scales pt_clust_5="13000.00000" pt_clust_6="13000.00000" pt_clust_7="13000.00000" pt_clust_8="13000.00000" pt_clust_9="20.75777" pt_clust_10="80.97270"></scales>
<clustering>
<clus scale="   20.758">  2  9  1 -1</clus>
<clus scale="   80.366">  5  6 -1 -1</clus>
<clus scale="   80.488">  1  5  2 -1</clus>
<clus scale="   80.973">  2 10  1 -1</clus>
<clus scale="   91.315">  7  8 -1 -1</clus>
<clus scale="   20.758">  2  5  1 -1</clus>
</clustering>
</event>
<event>
10    4  0.7204077E-005  0.1062069E+03  0.7546771E-02  0.1275667E+00
          2   -1    0    0  503    0 -0.00000000000E+00  0.00000000000E+00  0.52222440493E+03  0.52222440493E+03  0.00000000000E+00 0. -1.
         21   -1    0    0  501  502  0.00000000000E+00 -0.00000000000E+00 -0.20805987621E+03  0.20805987621E+03  0.00000000000E+00 0. -1.
         24    2    1    2    0    0  0.50078854098E+02 -0.85580263498E+00  0.28972465250E+03  0.30385448790E+03  0.76671712672E+02 0.  0.
         23    2    1    2    0    0 -0.33855399015E+02  0.13954741652E+02 -0.12979981916E+03  0.16441628623E+03  0.94041476302E+02 0.  0.
        -11    1    3    3    0    0  0.22674097421E+02  0.37318649530E+02  0.11816504763E+03  0.12597529432E+03  0.00000000000E+00 0.  1.
         12    1    3    3    0    0  0.27404756677E+02 -0.38174452165E+02  0.17155960487E+03  0.17787919358E+03  0.00000000000E+00 0. -1.
        -13    1    4    4    0    0 -0.57252497092E+02 -0.17997628915E+02 -0.64966923191E+02  0.88444695594E+02  0.00000000000E+00 0. -1.
         13    1    4    4    0    0  0.23397098077E+02  0.31952370567E+02 -0.64832895972E+02  0.75971590633E+02  0.00000000000E+00 0.  1.
         21    1    1    2  503  502  0.18723610690E+02  0.13630704249E+02 -0.48930125892E+02  0.54134341368E+02  0.00000000000E+00 0.  1.
          1    1    1    2  501    0 -0.34947065773E+02 -0.26729643266E+02  0.20316982128E+03  0.20787916565E+03  0.00000000000E+00 0. -1.
<scales pt_clust_5="13000.00000" pt_clust_6="13000.00000" pt_clust_7="13000.00000" pt_clust_8="13000.00000" pt_clust_9="23.15966" pt_clust_10="43.64913"></scales>
<clustering>
<clus scale="   23.160">  2  9  1 -1</clus>
<clus scale="   43.649">  2 10  1 -1</clus>
<clus scale="   76.672">  5  6 -1 -1</clus>
<clus scale="   91.185">  1  5  2 -1</clus>
<clus scale="   94.041">  7  8 -1 -1</clus>
<clus scale="   23.160">  2  5  1 -1</clus>
</clustering>
</event>
<event>
10    4  0.7204077E-005  0.1354114E+03  0.7546771E-02  0.1222252E+00
          2   -1    0    0  503    0 -0.00000000000E+00  0.00000000000E+00  0.87159776708E+03  0.87159776708E+03  0.00000000000E+00 0. -1.
         21   -1    0    0  501  502  0.00000000000E+00 -0.00000000000E+00 -0.21460770064E+03  0.21460770064E+03  0.00000000000E+00 0. -1.
         23    2    1    2    0    0  0.22421939301E+02  0.10395976213E+03  0.59404328592E+03  0.61035371801E+03  0.91289977792E+02 0.  0.
         24    2    1    2    0    0  0.11779776553E+03 -0.82000352365E+02  0.14765762185E+03  0.22098669292E+03  0.80199587333E+02 0.  0.
        -11    1    4    4    0    0 -0.38413406583E+01 -0.27347070517E+02  0.10110033204E+02  0.29408008013E+02  0.00000000000E+00 0.  1.
         12    1    4    4    0    0  0.12163910618E+03 -0.54653281848E+02  0.13754758864E+03  0.19157868491E+03  0.00000000000E+00 0. -1.
        -13    1    3    3    0    0 -0.26374527750E+02  0.25748843867E+02  0.79647519618E+02  0.87763010750E+02  0.00000000000E+00 0.  1.
         13    1    3    3    0    0  0.48796467051E+02  0.78210918263E+02  0.51439576630E+03  0.52259070726E+03  0.00000000000E+00 0. -1.
         21    1    1    2  503  502 -0.25511994371E+02 -0.26664574038E+02 -0.12720413191E+03  0.13244905639E+03  0.00000000000E+00 0. -1.
          1    1    1    2  501    0 -0.11470771046E+03  0.47051642733E+01  0.42493290582E+02  0.12241600040E+03  0.00000000000E+00 0. -1.
<scales pt_clust_5="13000.00000" pt_clust_6="13000.00000" pt_clust_7="13000.00000" pt_clust_8="13000.00000" pt_clust_9="36.90341" pt_clust_10="126.97642"></scales>
<clustering>
<clus scale="   36.903">  2  9  1 -1</clus>
<clus scale="   80.200">  5  6 -1 -1</clus>
<clus scale="   91.290">  7  8 -1 -1</clus>
<clus scale="  126.976">  2 10  1 -1</clus>
<clus scale="  128.197">  2  5  1 -1</clus>
<clus scale="   36.903">  2  5  1 -1</clus>
</clustering>
</event>
<event>
10    4  0.7204077E-005  0.1386317E+03  0.7546771E-02  0.1225649E+00
         21   -1    0    0  501  502  0.00000000000E+00  0.00000000000E+00  0.11768225926E+03  0.11768225926E+03  0.00000000000E+00 0. -1.
          2   -1    0    0  503    0 -0.00000000000E+00 -0.00000000000E+00 -0.58706060651E+03  0.58706060651E+03  0.00000000000E+00 0. -1.
         23    2    1    2    0    0 -0.21731649703E+02  0.53196022854E+02 -0.30985810095E+03  0.32831807943E+03  0.92079515122E+02 0.  0.
         24    2    1    2    0    0  0.30024473374E+02  0.70610033027E+02 -0.65521732591E+02  0.13137687743E+03  0.84140006634E+02 0.  0.
        -11    1    4    4    0    0  0.29753611770E+02 -0.66927510156E+01 -0.39305200487E+02  0.49749061447E+02  0.00000000000E+00 0.  1.
         12    1    4    4    0    0  0.27086160431E+00  0.77302784043E+02 -0.26216532104E+02  0.81627815984E+02  0.00000000000E+00 0. -1.
        -13    1    3    3    0    0  0.35921542652E+02  0.22847753082E+02 -0.14256707663E+03  0.14878759487E+03  0.00000000000E+00 0.  1.
         13    1    3    3    0    0 -0.57653192355E+02  0.30348269772E+02 -0.16729102432E+03  0.17953048456E+03  0.00000000000E+00 0. -1.
         21    1    1    2  503  502 -0.55117836840E+02  0.28420952080E+02 -0.40710376535E+01  0.62147403828E+02  0.00000000000E+00 0.  1.
          1    1    1    2  501    0  0.46825013168E+02 -0.15222700796E+03 -0.89927476057E+02  0.18290050509E+03  0.00000000000E+00 0. -1.
<scales pt_clust_5="13000.00000" pt_clust_6="13000.00000" pt_clust_7="13000.00000" pt_clust_8="13000.00000" pt_clust_9="62.01392" pt_clust_10="110.17812"></scales>
<clustering>
<clus scale="   62.014">  1  9  2 -1</clus>
<clus scale="   84.140">  5  6 -1 -1</clus>
<clus scale="   92.080">  7  8 -1 -1</clus>
<clus scale="  111.296">  2  7  1 -1</clus>
<clus scale="  110.178">  1 10  2 -1</clus>
<clus scale="   62.014">  1  5  2 -1</clus>
</clustering>
</event>
<event>
10    4  0.7204077E-005  0.1049193E+03  0.7546771E-02  0.1275886E+00
         21   -1    0    0  501  502  0.00000000000E+00  0.00000000000E+00  0.64385696043E+02  0.64385696043E+02  0.00000000000E+00 0. -1.
         -1   -1    0    0    0  501 -0.00000000000E+00 -0.00000000000E+00 -0.75858788261E+03  0.75858788261E+03  0.00000000000E+00 0.  1.
         24    2    1    2    0    0  0.55038890344E+01  0.30325368910E+02 -0.29292860364E+03  0.30521226166E+03  0.79983979916E+02 0.  0.
         23    2    1    2    0    0 -0.10947661535E+03 -0.81883749046E+02 -0.27779861036E+03  0.32310431853E+03  0.92381031975E+02 0.  0.
        -11    1    3    3    0    0 -0.22157830200E+02 -0.15645605415E+02 -0.15230349869E+03  0.15470006504E+03  0.00000000000E+00 0.  1.
         12    1    3    3    0    0  0.27661719234E+02  0.45970974324E+02 -0.14062510494E+03  0.15051219662E+03  0.00000000000E+00 0. -1.
        -11    1    4    4    0    0 -0.28349633337E+02 -0.73467402393E+02 -0.98365686348E+02  0.12600384588E+03  0.00000000000E+00 0.  1.
         11    1    4    4    0    0 -0.81126982011E+02 -0.84163466535E+01 -0.17943292401E+03  0.19710047265E+03  0.00000000000E+00 0. -1.
         21    1    1    2  503  502  0.42291240823E+02  0.25605672244E+02  0.51087497776E+01  0.49702100818E+02  0.00000000000E+00 0. -1.
         -2    1    1    2    0  503  0.61681485492E+02  0.25952707892E+02 -0.12858372235E+03  0.14495489765E+03  0.00000000000E+00 0.  1.
<scales pt_clust_5="13000.00000" pt_clust_6="13000.00000" pt_clust_7="13000.00000" pt_clust_8="13000.00000" pt_clust_9="49.43885" pt_clust_10="77.76196"></scales>
<clustering>
<clus scale="   49.439">  1  9  2 -1</clus>
<clus scale="   77.762">  1 10  2 -1</clus>
<clus scale="   79.984">  5  6 -1 -1</clus>
<clus scale="   92.381">  7  8 -1 -1</clus>
<clus scale="   94.187">  2  5  1 -1</clus>
<clus scale="   49.439">  1  5  2 -1</clus>
</clustering>
</event>
<event>
10    4  0.7204077E-005  0.1080112E+03  0.7546771E-02  0.1268410E+00
          2   -1    0    0  503    0 -0.00000000000E+00  0.00000000000E+00  0.39024513240E+03  0.39024513240E+03  0.00000000000E+00 0. -1.
         21   -1    0    0  501  502  0.00000000000E+00 -0.00000000000E+00 -0.49061127854E+03  0.49061127854E+03  0.00000000000E+00 0. -1.
         23    2    1    2    0    0  0.64640929744E+01 -0.61701431590E+02  0.31286016936E+03  0.33155190991E+03  0.90533597247E+02 0.  0.
         24    2    1    2    0    0  0.58042420237E+02  0.39662030495E+02 -0.18841687704E+02  0.10848327466E+03  0.80446332892E+02 0.  0.
        -11    1    4    4    0    0  0.13977253510E+02  0.24595099985E+02 -0.46419493654E+02  0.54360389532E+02  0.00000000000E+00 0.  1.
         12    1    4    4    0    0  0.44065166727E+02  0.15066930510E+02  0.27577805951E+02  0.54122885130E+02  0.00000000000E+00 0. -1.
        -13    1    3    3    0    0  0.46695745778E+02 -0.19469373804E+02  0.12517955071E+03  0.13501655123E+03  0.00000000000E+00 0.  1.
         13    1    3    3    0    0 -0.40231652803E+02 -0.42232057786E+02  0.18768061866E+03  0.19653535868E+03  0.00000000000E+00 0. -1.
         21    1    1    2  503  502 -0.96775715247E+02 -0.93129615636E+01 -0.38196865176E+03  0.39414758815E+03  0.00000000000E+00 0. -1.
          1    1    1    2  501    0  0.32269202035E+02  0.31352362659E+02 -0.12415976041E+02  0.46673638227E+02  0.00000000000E+00 0. -1.
<scales pt_clust_5="13000.00000" pt_clust_6="13000.00000" pt_clust_7="13000.00000" pt_clust_8="13000.00000" pt_clust_9="71.67964" pt_clust_10="44.99191"></scales>
<clustering>
<clus scale="   44.992">  2 10  1 -1</clus>
<clus scale="   71.680">  2  9  1 -1</clus>
<clus scale="   80.446">  5  6 -1 -1</clus>
<clus scale="   90.534">  7  8 -1 -1</clus>
<clus scale="   99.708">  2  5  1 -1</clus>
<clus scale="   44.992">  2  5  1 -1</clus>
</clustering>
</event>
<event>
10    4  0.7204077E-005  0.1516798E+03  0.7546771E-02  0.1198523E+00
         21   -1    0    0  501  502  0.00000000000E+00  0.00000000000E+00  0.66952230108E+02  0.66952230108E+02  0.00000000000E+00 0. -1.
          4   -1    0    0  503    0 -0.00000000000E+00 -0.00000000000E+00 -0.12214810304E+04  0.12214810304E+04  0.00000000000E+00 0. -1.
         23    2    1    2    0    0 -0.56095083969E+02  0.77393151949E+02 -0.33563021667E+03  0.36022214376E+03  0.89308409998E+02 0.  0.
         24    2    1    2    0    0  0.12010466444E+03 -0.10816926412E+03 -0.47200090135E+03  0.50693735518E+03  0.89860509015E+02 0.  0.
        -11    1    4    4    0    0  0.27809969382E+02  0.53989659187E+01 -0.15786354204E+03  0.16038528965E+03  0.00000000000E+00 0.  1.
         12    1    4    4    0    0  0.92294695055E+02 -0.11356823003E+03 -0.31413735931E+03  0.34655206553E+03  0.00000000000E+00 0. -1.
        -11    1    3    3    0    0 -0.94900233770E+01  0.80623963253E+02 -0.17455563352E+03  0.19250961843E+03  0.00000000000E+00 0. -1.
         11    1    3    3    0    0 -0.46605060592E+02 -0.32308113048E+01 -0.16107458315E+03  0.16771252533E+03  0.00000000000E+00 0.  1.
         21    1    1    2  503  502  0.15866553953E+01 -0.54529978169E+02  0.35578650153E+01  0.54668952779E+02  0.00000000000E+00 0. -1.
          3    1    1    2  501    0 -0.65596235863E+02  0.85306090337E+02 -0.35045554730E+03  0.36660480880E+03  0.00000000000E+00 0. -1.
<scales pt_clust_5="13000.00000" pt_clust_6="13000.00000" pt_clust_7="13000.00000" pt_clust_8="13000.00000" pt_clust_9="54.55306" pt_clust_10="98.41640"></scales>
<clustering>
<clus scale="   54.553">  1  9  2 -1</clus>
<clus scale="   89.308">  7  8 -1 -1</clus>
<clus scale="   89.861">  5  6 -1 -1</clus>
<clus scale="   98.416">  1 10  2 -1</clus>
<clus scale="  151.353">  2  7  1 -1</clus>
<clus scale="   54.553">  1  5  2 -1</clus>
</clustering>
</event>
<event>
10    4  0.7204077E-005  0.4793779E+03  0.7546771E-02  0.1019343E+00
          2   -1    0    0  502    0 -0.00000000000E+00  0.00000000000E+00  0.33914050376E+04  0.33914050376E+04  0.00000000000E+00 0. -1.
         21   -1    0    0  503  502  0.00000000000E+00 -0.00000000000E+00 -0.12840661130E+03  0.12840661130E+03  0.00000000000E+00 0. -1.
         23    2    1    2    0    0 -0.42019460471E+03 -0.19445805248E+03  0.16818781742E+04  0.17468540679E+04  0.91692429811E+02 0.  0.
         24    2    1    2    0    0  0.52340722117E+03 -0.35133875252E+02  0.11320514600E+04  0.12508518558E+04  0.88883904657E+02 0.  0.
        -13    1    4    4    0    0  0.19549791512E+03 -0.45515015883E+02  0.36424098868E+03  0.41588766430E+03  0.00000000000E+00 0.  1.
         14    1    4    4    0    0  0.32790930606E+03  0.10381140631E+02  0.76781047136E+03  0.83496419145E+03  0.00000000000E+00 0. -1.
        -11    1    3    3    0    0 -0.13239290445E+03 -0.91341158151E+02  0.71163428556E+03  0.72958511820E+03  0.00000000000E+00 0.  1.
         11    1    3    3    0    0 -0.28780170027E+03 -0.10311689433E+03  0.97024388861E+03  0.10172689497E+04  0.00000000000E+00 0. -1.
         21    1    1    2  503  501 -0.52079463011E+01  0.20264767186E+02  0.50400195527E+01  0.21521739959E+02  0.00000000000E+00 0. -1.
          1    1    1    2  501    0 -0.98004670161E+02  0.20932716055E+03  0.44402877252E+03  0.50058398530E+03  0.00000000000E+00 0. -1.
<scales pt_clust_5="13000.00000" pt_clust_6="13000.00000" pt_clust_7="13000.00000" pt_clust_8="13000.00000" pt_clust_9="20.92328" pt_clust_10="235.97392"></scales>
<clustering>
<clus scale="   20.923">  2  9  1 -1</clus>
<clus scale="   88.884">  5  6 -1 -1</clus>
<clus scale="   91.692">  7  8 -1 -1</clus>
<clus scale="  235.974">  2 10  1 -1</clus>
<clus scale="  478.849">  2  5  1 -1</clus>
<clus scale="   20.923">  2  5  1 -1</clus>
</clustering>
</event>
<event>
10    4  0.7204077E-005  0.1476144E+03  0.7546771E-02  0.1204709E+00
         21   -1    0    0  503  502  0.00000000000E+00  0.00000000000E+00  0.34738594170E+03  0.34738594170E+03  0.00000000000E+00 0. -1.
          4   -1    0    0  502    0 -0.00000000000E+00 -0.00000000000E+00 -0.21273171680E+03  0.21273171680E+03  0.00000000000E+00 0. -1.
         24    2    1    2    0    0 -0.89571693889E+02  0.86964681947E+02 -0.53425125159E+02  0.15743960862E+03  0.79668325642E+02 0.  0.
         23    2    1    2    0    0  0.61577009288E+02 -0.86983426174E+02  0.10485160152E+03  0.17281029002E+03  0.86670026506E+02 0.  0.
        -13    1    3    3    0    0 -0.23887681434E+02 -0.41041219230E+01 -0.36604621336E+02  0.43901747621E+02  0.00000000000E+00 0.  1.
         14    1    3    3    0    0 -0.65684012454E+02  0.91068803870E+02 -0.16820503823E+02  0.11353786099E+03  0.00000000000E+00 0. -1.
        -11    1    4    4    0    0  0.27001880002E+02 -0.72484489770E+02  0.11051274614E+03  0.13489317937E+03  0.00000000000E+00 0. -1.
         11    1    4    4    0    0  0.34575129286E+02 -0.14498936404E+02 -0.56611446193E+01  0.37917110655E+02  0.00000000000E+00 0.  1.
         21    1    1    2  503  501 -0.12242282241E+02  0.54718025741E+02  0.13388330278E+03  0.14515052387E+03  0.00000000000E+00 0.  1.
          3    1    1    2  501    0  0.40236966842E+02 -0.54699281513E+02 -0.50655554248E+02  0.84717235996E+02  0.00000000000E+00 0. -1.
<scales pt_clust_5="13000.00000" pt_clust_6="13000.00000" pt_clust_7="13000.00000" pt_clust_8="13000.00000" pt_clust_9="56.07081" pt_clust_10="63.72577"></scales>
<clustering>
<clus scale="   56.071">  1  9  2 -1</clus>
<clus scale="   63.726">  1 10  2 -1</clus>
<clus scale="   79.668">  5  6 -1 -1</clus>
<clus scale="   86.670">  7  8 -1 -1</clus>
<clus scale="  143.615">  2  5  1 -1</clus>
<clus scale="   56.071">  1  5  2 -1</clus>
</clustering>
</event>
<event>
10    4  0.7204077E-005  0.2013508E+03  0.7546771E-02  0.1149675E+00
         21   -1    0    0  501  502  0.00000000000E+00  0.00000000000E+00  0.44322232271E+03  0.44322232271E+03  0.00000000000E+00 0.  1.
          2   -1    0    0  503    0 -0.00000000000E+00 -0.00000000000E+00 -0.38900124655E+03  0.38900124655E+03  0.00000000000E+00 0. -1.
         24    2    1    2    0    0 -0.17888731371E+03 -0.26222915977E+01 -0.28515059273E+03  0.34607153880E+03  0.80293847898E+02 0.  0.
         23    2    1    2    0    0  0.18011764560E+03  0.57701882297E+01  0.78475843094E+02  0.21700304089E+03  0.91957601517E+02 0.  0.
        -11    1    3    3    0    0 -0.14505926642E+03  0.16692397849E+02 -0.16785713176E+03  0.22247886102E+03  0.00000000000E+00 0.  1.
         12    1    3    3    0    0 -0.33828047291E+02 -0.19314689447E+02 -0.11729346098E+03  0.12359267778E+03  0.00000000000E+00 0. -1.
        -11    1    4    4    0    0  0.15853282702E+03 -0.29205203616E+02  0.63629607682E+02  0.17330414921E+03  0.00000000000E+00 0.  1.
         11    1    4    4    0    0  0.21584818588E+02  0.34975391845E+02  0.14846235413E+02  0.43698891681E+02  0.00000000000E+00 0. -1.
         21    1    1    2  503  502 -0.13911825840E+02  0.27514027919E+02  0.15980501905E+03  0.16275197308E+03  0.00000000000E+00 0.  1.
          1    1    1    2  501    0  0.12681493945E+02 -0.30661924551E+02  0.10109080675E+03  0.10639701648E+03  0.00000000000E+00 0. -1.
<scales pt_clust_5="13000.00000" pt_clust_6="13000.00000" pt_clust_7="13000.00000" pt_clust_8="13000.00000" pt_clust_9="30.83116" pt_clust_10="21.88597"></scales>
<clustering>
<clus scale="   30.831">  1  9  2 -1</clus>
<clus scale="   21.886">  1 10  2 -1</clus>
<clus scale="   80.294">  5  6 -1 -1</clus>
<clus scale="   91.958">  7  8 -1 -1</clus>
<clus scale="  196.298">  2  5  1 -1</clus>
<clus scale="   30.831">  1  5  2 -1</clus>
</clustering>
</event>
<event>
10    4  0.7204077E-005  0.1008501E+03  0.7546771E-02  0.1285583E+00
         21   -1    0    0  501  502  0.00000000000E+00  0.00000000000E+00  0.33396527399E+02  0.33396527399E+02  0.00000000000E+00 0.  1.
          2   -1    0    0  503    0 -0.00000000000E+00 -0.00000000000E+00 -0.53456965221E+03  0.53456965221E+03  0.00000000000E+00 0. -1.
         24    2    1    2    0    0 -0.15605573114E+02 -0.32467603856E+02 -0.21056933516E+03  0.22797550025E+03  0.79597139355E+02 0.  0.
         23    2    1    2    0    0 -0.82359267614E+01  0.47609740872E+02 -0.11868176182E+03  0.15857707053E+03  0.93417390217E+02 0.  0.
        -13    1    3    3    0    0  0.44981494250E+01 -0.56135239708E+02 -0.13613698142E+03  0.14732506982E+03  0.00000000000E+00 0.  1.
         14    1    3    3    0    0 -0.20103722539E+02  0.23667635853E+02 -0.74432353733E+02  0.80650430433E+02  0.00000000000E+00 0. -1.
        -13    1    4    4    0    0  0.33242228789E+02 -0.55179298390E+01 -0.20358756216E+02  0.39369687315E+02  0.00000000000E+00 0. -1.
         13    1    4    4    0    0 -0.41478155551E+02  0.53127670711E+02 -0.98323005602E+02  0.11920738322E+03  0.00000000000E+00 0.  1.
         21    1    1    2  503  502  0.20637300013E+02  0.61799052748E+01 -0.25363675184E+02  0.33277701241E+02  0.00000000000E+00 0.  1.
          1    1    1    2  501    0  0.32041998624E+01 -0.21322042291E+02 -0.14655835265E+03  0.14813590759E+03  0.00000000000E+00 0. -1.
<scales pt_clust_5="13000.00000" pt_clust_6="13000.00000" pt_clust_7="13000.00000" pt_clust_8="13000.00000" pt_clust_9="21.54273" pt_clust_10="21.48750"></scales>
<clustering>
<clus scale="   21.543">  1  9  2 -1</clus>
<clus scale="   21.487">  1 10  2 -1</clus>
<clus scale="   79.597">  5  6 -1 -1</clus>
<clus scale="   88.202">  2  5  1 -1</clus>
<clus scale="   93.417">  7  8 -1 -1</clus>
<clus scale="   21.543">  1  5  2 -1</clus>
</clustering>
</event>
<event>
10    4  0.7204077E-005  0.1066395E+03  0.7546771E-02  0.1275144E+00
         21   -1    0    0  501  502  0.00000000000E+00  0.00000000000E+00  0.45527110287E+03  0.45527110287E+03  0.00000000000E+00 0. -1.
          2   -1    0    0  503    0 -0.00000000000E+00 -0.00000000000E+00 -0.92210996492E+02  0.92210996492E+02  0.00000000000E+00 0. -1.
         23    2    1    2    0    0 -0.55643263546E+02 -0.33090384195E+01  0.45480101387E+01  0.82050498763E+02  0.60037300387E+02 0.  0.
         24    2    1    2    0    0  0.11806821412E+03  0.10854712890E+02  0.14183096229E+03  0.20216754845E+03  0.81839891279E+02 0.  0.
        -13    1    4    4    0    0  0.99828552419E+02 -0.25806372629E+02  0.10041518476E+03  0.14392678026E+03  0.00000000000E+00 0.  1.
         14    1    4    4    0    0  0.18239661697E+02  0.36661085520E+02  0.41415777533E+02  0.58240768187E+02  0.00000000000E+00 0. -1.
        -11    1    3    3    0    0 -0.38942830583E+02  0.19277371309E+02  0.22279970274E+02  0.48831938051E+02  0.00000000000E+00 0. -1.
         11    1    3    3    0    0 -0.16700432963E+02 -0.22586409728E+02 -0.17731960135E+02  0.33218560713E+02  0.00000000000E+00 0.  1.
         21    1    1    2  503  502 -0.12352975467E+02  0.38304690957E+02  0.18319151819E+03  0.18756059738E+03  0.00000000000E+00 0. -1.
          1    1    1    2  501    0 -0.50071975103E+02 -0.45850365427E+02  0.33489615752E+02  0.75703454768E+02  0.00000000000E+00 0. -1.
<scales pt_clust_5="13000.00000" pt_clust_6="13000.00000" pt_clust_7="13000.00000" pt_clust_8="13000.00000" pt_clust_9="40.24730" pt_clust_10="64.92644"></scales>
<clustering>
<clus scale="   40.247">  1  9  2 -1</clus>
<clus scale="   60.037">  7  8 -1 -1</clus>
<clus scale="   64.926">  1 10  2 -1</clus>
<clus scale="   81.840">  5  6 -1 -1</clus>
<clus scale="   90.987">  2  7  1 -1</clus>
<clus scale="   40.247">  1  5  2 -1</clus>
</clustering>
</event>
<event>
10    4  0.7204077E-005  0.2259110E+03  0.7546771E-02  0.1132053E+00
          2   -1    0    0  503    0 -0.00000000000E+00  0.00000000000E+00  0.11498371452E+04  0.11498371452E+04  0.00000000000E+00 0. -1.
         21   -1    0    0  501  502  0.00000000000E+00 -0.00000000000E+00 -0.90944528576E+02  0.90944528576E+02  0.00000000000E+00 0.  1.
         24    2    1    2    0    0 -0.14101583508E+03 -0.11559255625E+03  0.54166122606E+03  0.57713687047E+03  0.80268166996E+02 0.  0.
         23    2    1    2    0    0  0.18380783085E+03  0.11961772693E+03  0.53392277649E+03  0.58779531992E+03  0.11106794133E+03 0.  0.
        -13    1    3    3    0    0 -0.32073810979E+02 -0.55038472953E+02  0.10295875697E+03  0.12107216234E+03  0.00000000000E+00 0.  1.
         14    1    3    3    0    0 -0.10894202410E+03 -0.60554083301E+02  0.43870246908E+03  0.45606470813E+03  0.00000000000E+00 0. -1.
        -11    1    4    4    0    0  0.10983101424E+03  0.94413786551E+01  0.19816961485E+03  0.22676681320E+03  0.00000000000E+00 0.  1.
         11    1    4    4    0    0  0.73976816611E+02  0.11017634827E+03  0.33575316164E+03  0.36102850672E+03  0.00000000000E+00 0. -1.
         21    1    1    2  503  502 -0.46094869256E+01 -0.28341750064E+02 -0.59382130695E+01  0.29321741777E+02  0.00000000000E+00 0. -1.
          1    1    1    2  501    0 -0.38182508837E+02  0.24316579391E+02 -0.10753172842E+02  0.46527741623E+02  0.00000000000E+00 0. -1.
<scales pt_clust_5="13000.00000" pt_clust_6="13000.00000" pt_clust_7="13000.00000" pt_clust_8="13000.00000" pt_clust_9="28.71415" pt_clust_10="42.11986"></scales>
<clustering>
<clus scale="   28.714">  2  9  1 -1</clus>
<clus scale="   42.120">  2 10  1 -1</clus>
<clus scale="   80.268">  5  6 -1 -1</clus>
<clus scale="  111.068">  7  8 -1 -1</clus>
<clus scale="  212.468">  1  5  2 -1</clus>
<clus scale="   28.714">  2  5  1 -1</clus>
</clustering>
</event>
<event>
10    4  0.7204077E-005  0.2974163E+03  0.7546771E-02  0.1129069E+00
         21   -1    0    0  501  502  0.00000000000E+00  0.00000000000E+00  0.14240626209E+03  0.14240626209E+03  0.00000000000E+00 0. -1.
          2   -1    0    0  503    0 -0.00000000000E+00 -0.00000000000E+00 -0.10839984007E+04  0.10839984007E+04  0.00000000000E+00 0. -1.
         23    2    1    2    0    0  0.28326270026E+02  0.15927954771E+02 -0.21094960866E+03  0.23377166543E+03  0.95359199054E+02 0.  0.
         24    2    1    2    0    0 -0.22755264261E+03  0.18628191449E+03 -0.46441127463E+03  0.55584492154E+03  0.82489926487E+02 0.  0.
        -11    1    4    4    0    0 -0.58602270817E+02  0.10257060851E+02 -0.11781539540E+03  0.13198447195E+03  0.00000000000E+00 0.  1.
         12    1    4    4    0    0 -0.16895037179E+03  0.17602485364E+03 -0.34659587923E+03  0.42386044959E+03  0.00000000000E+00 0. -1.
        -11    1    3    3    0    0  0.48372204207E+02 -0.32882403358E+01 -0.47132615458E+02  0.67617794287E+02  0.00000000000E+00 0. -1.
         11    1    3    3    0    0 -0.20045934182E+02  0.19216195106E+02 -0.16381699321E+03  0.16615387114E+03  0.00000000000E+00 0.  1.
         21    1    1    2  503  502 -0.10377417512E+02 -0.17763264356E+02  0.25643511201E+02  0.32875736060E+02  0.00000000000E+00 0. -1.
          1    1    1    2  501    0  0.20960379010E+03 -0.18444660490E+03 -0.29187476649E+03  0.40391233974E+03  0.00000000000E+00 0. -1.
<scales pt_clust_5="13000.00000" pt_clust_6="13000.00000" pt_clust_7="13000.00000" pt_clust_8="13000.00000" pt_clust_9="20.57242" pt_clust_10="285.74787"></scales>
<clustering>
<clus scale="   20.572">  1  9  2 -1</clus>
<clus scale="   82.490">  5  6 -1 -1</clus>
<clus scale="   95.359">  7  8 -1 -1</clus>
<clus scale="  100.187">  2  7  1 -1</clus>
<clus scale="  285.748">  1 10  2 -1</clus>
<clus scale="   20.572">  1  5  2 -1</clus>
</clustering>
</event>
<event>
10    4  0.7204077E-005  0.2315096E+03  0.7546771E-02  0.1148452E+00
          2   -1    0    0  502    0 -0.00000000000E+00  0.00000000000E+00  0.19229401143E+04  0.19229401143E+04  0.00000000000E+00 0. -1.
         21   -1    0    0  503  502  0.00000000000E+00 -0.00000000000E+00 -0.56267542961E+02  0.56267542961E+02  0.00000000000E+00 0. -1.
         24    2    1    2    0    0 -0.20963917937E+01 -0.10157675735E+03  0.29262933298E+03  0.32008178758E+03  0.80611362268E+02 0.  0.
         23    2    1    2    0    0 -0.64072462755E+02  0.26367437723E+03  0.90722495679E+03  0.95150446263E+03  0.93135183922E+02 0.  0.
        -13    1    3    3    0    0 -0.39833075680E+02 -0.69581715340E+02  0.18491222304E+03  0.20154607230E+03  0.00000000000E+00 0.  1.
         14    1    3    3    0    0  0.37736683886E+02 -0.31995042010E+02  0.10771710994E+03  0.11853571528E+03  0.00000000000E+00 0. -1.
        -13    1    4    4    0    0 -0.68793114119E+02  0.19585278200E+03  0.78121838567E+03  0.80832726719E+03  0.00000000000E+00 0.  1.
         13    1    4    4    0    0  0.47206513642E+01  0.67821595229E+02  0.12600657112E+03  0.14317719544E+03  0.00000000000E+00 0. -1.
         21    1    1    2  503  501 -0.19660398633E+02 -0.13139933017E+02  0.54400924063E+01  0.24264865949E+02  0.00000000000E+00 0.  1.
          1    1    1    2  501    0  0.85829253182E+02 -0.14895768686E+03  0.66137818920E+03  0.68335654115E+03  0.00000000000E+00 0. -1.
<scales pt_clust_5="13000.00000" pt_clust_6="13000.00000" pt_clust_7="13000.00000" pt_clust_8="13000.00000" pt_clust_9="23.64718" pt_clust_10="211.94935"></scales>
<clustering>
<clus scale="   23.647">  2  9  1 -1</clus>
<clus scale="   80.611">  5  6 -1 -1</clus>
<clus scale="   93.135">  7  8 -1 -1</clus>
<clus scale="  132.946">  1  5  2 -1</clus>
<clus scale="  211.949">  2 10  1 -1</clus>
<clus scale="   23.647">  2  5  1 -1</clus>
</clustering>
</event>
<event>
10    4  0.7204077E-005  0.1343827E+03  0.7546771E-02  0.1223774E+00
         21   -1    0    0  503  502  0.00000000000E+00  0.00000000000E+00  0.16188217253E+03  0.16188217253E+03  0.00000000000E+00 0. -1.
          4   -1    0    0  502    0 -0.00000000000E+00 -0.00000000000E+00 -0.83903982330E+03  0.83903982330E+03  0.00000000000E+00 0. -1.
         23    2    1    2    0    0  0.53361556665E+02  0.50051424603E+02 -0.19552775040E+03  0.22811685151E+03  0.91943438778E+02 0.  0.
         24    2    1    2    0    0  0.23892826953E+02 -0.14529561089E+03 -0.40007933644E+03  0.43391670291E+03  0.80861287993E+02 0.  0.
        -13    1    4    4    0    0 -0.29305546928E+02 -0.54309963089E+02 -0.16970791490E+03  0.18058007518E+03  0.00000000000E+00 0.  1.
         14    1    4    4    0    0  0.53198373881E+02 -0.90985647799E+02 -0.23037142153E+03  0.25333662773E+03  0.00000000000E+00 0. -1.
        -11    1    3    3    0    0  0.10356585930E-01 -0.22730442566E+02 -0.69421398725E+02  0.73047954985E+02  0.00000000000E+00 0.  1.
         11    1    3    3    0    0  0.53351200079E+02  0.72781867169E+02 -0.12610635167E+03  0.15506889653E+03  0.00000000000E+00 0. -1.
         21    1    1    2  503  501 -0.30450722944E+02  0.35988723694E+02  0.11717371474E+03  0.12630167927E+03  0.00000000000E+00 0. -1.
          3    1    1    2  501    0 -0.46803660674E+02  0.59255462591E+02 -0.19872427868E+03  0.21258676214E+03  0.00000000000E+00 0. -1.
<scales pt_clust_5="13000.00000" pt_clust_6="13000.00000" pt_clust_7="13000.00000" pt_clust_8="13000.00000" pt_clust_9="47.14271" pt_clust_10="83.64562"></scales>
<clustering>
<clus scale="   47.143">  1  9  2 -1</clus>
<clus scale="   80.861">  5  6 -1 -1</clus>
<clus scale="   83.646">  1 10  2 -1</clus>
<clus scale="   91.943">  7  8 -1 -1</clus>
<clus scale="  127.058">  1  5  2 -1</clus>
<clus scale="   47.143">  1  5  2 -1</clus>
</clustering>
</event>
<event>
10    4  0.7204077E-005  0.1683779E+03  0.7546771E-02  0.1212881E+00
          2   -1    0    0  502    0 -0.00000000000E+00  0.00000000000E+00  0.21252991824E+03  0.21252991824E+03  0.00000000000E+00 0. -1.
         21   -1    0    0  503  502  0.00000000000E+00 -0.00000000000E+00 -0.30211654474E+03  0.30211654474E+03  0.00000000000E+00 0. -1.
         24    2    1    2    0    0 -0.33294283751E+02 -0.23821292899E+02 -0.17514719695E+02  0.85844142403E+02  0.73392697545E+02 0.  0.
         23    2    1    2    0    0 -0.41546768958E+02  0.17128402556E+03 -0.44028125333E+01  0.19720064794E+03  0.88342285260E+02 0.  0.
        -13    1    3    3    0    0  0.19321502431E+02  0.87295685517E+01 -0.10246018480E+02  0.23547966323E+02  0.00000000000E+00 0.  1.
         14    1    3    3    0    0 -0.52615786182E+02 -0.32550861451E+02 -0.72687012154E+01  0.62296176079E+02  0.00000000000E+00 0. -1.
        -11    1    4    4    0    0 -0.12215461479E+02  0.12945153409E+03  0.32679974901E+02  0.13407049615E+03  0.00000000000E+00 0. -1.
         11    1    4    4    0    0 -0.29331307479E+02  0.41832491471E+02 -0.37082787434E+02  0.63130151790E+02  0.00000000000E+00 0.  1.
         21    1    1    2  503  501  0.66476659473E+02 -0.27135345130E+02 -0.83301071815E+02  0.10997518709E+03  0.00000000000E+00 0. -1.
          1    1    1    2  501    0  0.83643932359E+01 -0.12032738753E+03  0.15631977546E+02  0.12162648555E+03  0.00000000000E+00 0. -1.
<scales pt_clust_5="13000.00000" pt_clust_6="13000.00000" pt_clust_7="13000.00000" pt_clust_8="13000.00000" pt_clust_9="71.80162" pt_clust_10="143.34151"></scales>
<clustering>
<clus scale="   71.802">  2  9  1 -1</clus>
<clus scale="   73.393">  5  6 -1 -1</clus>
<clus scale="   81.243">  1  5  2 -1</clus>
<clus scale="   88.342">  7  8 -1 -1</clus>
<clus scale="  143.342">  2 10  1 -1</clus>
<clus scale="   71.802">  2  5  1 -1</clus>
</clustering>
</event>
<event>
10    4  0.7204077E-005  0.2075377E+03  0.7546771E-02  0.1164254E+00
         21   -1    0    0  503  502  0.00000000000E+00  0.00000000000E+00  0.13579140588E+03  0.13579140588E+03  0.00000000000E+00 0. -1.
          2   -1    0    0  502    0 -0.00000000000E+00 -0.00000000000E+00 -0.15318173642E+04  0.15318173642E+04  0.00000000000E+00 0. -1.
         23    2    1    2    0    0 -0.56983769948E+02  0.26052096940E+02  0.22798511583E+02  0.11254397008E+03  0.90667035233E+02 0.  0.
         24    2    1    2    0    0 -0.14788701734E+03  0.60736250789E+02 -0.33270131267E+03  0.37823870389E+03  0.82552356806E+02 0.  0.
        -13    1    4    4    0    0 -0.28696952427E+02 -0.12887889537E+02 -0.25127380325E+02  0.40261619656E+02  0.00000000000E+00 0.  1.
         14    1    4    4    0    0 -0.11919006491E+03  0.73624140326E+02 -0.30757393234E+03  0.33797708423E+03  0.00000000000E+00 0. -1.
        -11    1    3    3    0    0  0.21993217776E+02  0.69604855230E+01 -0.97120388958E+01  0.25029456374E+02  0.00000000000E+00 0.  1.
         11    1    3    3    0    0 -0.78976987723E+02  0.19091611417E+02  0.32510550479E+02  0.87514513704E+02  0.00000000000E+00 0. -1.
         21    1    1    2  503  501 -0.50937296811E+02 -0.41782932139E+02 -0.62753266117E+01  0.66180067608E+02  0.00000000000E+00 0. -1.
          1    1    1    2  501    0  0.25580808409E+03 -0.45005415590E+02 -0.10798478306E+04  0.11106460285E+04  0.00000000000E+00 0. -1.
<scales pt_clust_5="13000.00000" pt_clust_6="13000.00000" pt_clust_7="13000.00000" pt_clust_8="13000.00000" pt_clust_9="65.88188" pt_clust_10="190.41281"></scales>
<clustering>
<clus scale="   65.882">  1  9  2 -1</clus>
<clus scale="   82.552">  5  6 -1 -1</clus>
<clus scale="   90.667">  7  8 -1 -1</clus>
<clus scale="  127.438">  2  7  1 -1</clus>
<clus scale="  190.413">  1 10  2 -1</clus>
<clus scale="   65.882">  1  5  2 -1</clus>
</clustering>
</event>
<event>
10    4  0.7204077E-005  0.1686581E+03  0.7546771E-02  0.1180217E+00
         -1   -1    0    0    0  501 -0.00000000000E+00  0.00000000000E+00  0.12709804499E+04  0.12709804499E+04  0.00000000000E+00 0.  1.
         21   -1    0    0  501  502  0.00000000000E+00 -0.00000000000E+00 -0.74781661925E+02  0.74781661925E+02  0.00000000000E+00 0.  1.
         24    2    1    2    0    0  0.68469811594E+02 -0.15664854320E+03  0.45126766735E+03  0.48924587507E+03  0.80573801562E+02 0.  0.
         23    2    1    2    0    0  0.37385848222E+02  0.11991818814E+03  0.18289170838E+03  0.23858935077E+03  0.87734986259E+02 0.  0.
        -11    1    3    3    0    0  0.81615915292E+02 -0.94979528656E+02  0.27955944951E+03  0.30632622203E+03  0.00000000000E+00 0.  1.
         12    1    3    3    0    0 -0.13146103698E+02 -0.61669014541E+02  0.17170821784E+03  0.18291965305E+03  0.00000000000E+00 0. -1.
        -11    1    4    4    0    0  0.20464750012E+02  0.99806089669E+02  0.72330790650E+02  0.12494720807E+03  0.00000000000E+00 0.  1.
         11    1    4    4    0    0  0.16921098210E+02  0.20112098476E+02  0.11056091773E+03  0.11364214271E+03  0.00000000000E+00 0. -1.
         21    1    1    2  503  502 -0.23243233430E+02  0.22698082895E+02 -0.14323000597E+02  0.35504918159E+02  0.00000000000E+00 0.  1.
         -2    1    1    2    0  503 -0.82612426387E+02  0.14032272157E+02  0.57636241285E+03  0.58242196782E+03  0.00000000000E+00 0.  1.
<scales pt_clust_5="13000.00000" pt_clust_6="13000.00000" pt_clust_7="13000.00000" pt_clust_8="13000.00000" pt_clust_9="32.48770" pt_clust_10="85.42628"></scales>
<clustering>
<clus scale="   32.488">  2  9  1 -1</clus>
<clus scale="   80.574">  5  6 -1 -1</clus>
<clus scale="   85.426">  2 10  1 -1</clus>
<clus scale="   87.735">  7  8 -1 -1</clus>
<clus scale="  165.046">  1  5  2 -1</clus>
<clus scale="   32.488">  2  5  1 -1</clus>
</clustering>
</event>
<event>
10    4  0.7204077E-005  0.1910053E+03  0.7546771E-02  0.1190274E+00
          2   -1    0    0  502    0 -0.00000000000E+00  0.00000000000E+00  0.50240353483E+03  0.50240353483E+03  0.00000000000E+00 0. -1.
         21   -1    0    0  503  502  0.00000000000E+00 -0.00000000000E+00 -0.14899733407E+03  0.14899733407E+03  0.00000000000E+00 0.  1.
         23    2    1    2    0    0 -0.31780636253E+01  0.13600994503E+02  0.90644409424E+02  0.12867718957E+03  0.90256983195E+02 0.  0.
         24    2    1    2    0    0 -0.15407730008E+03  0.79277574164E+02  0.23352126677E+03  0.30170263816E+03  0.80421089737E+02 0.  0.
        -11    1    4    4    0    0 -0.14862071561E+03  0.93627692210E+02  0.21600735001E+03  0.27841235086E+03  0.00000000000E+00 0.  1.
         12    1    4    4    0    0 -0.54565844702E+01 -0.14350118046E+02  0.17513916768E+02  0.23290287301E+02  0.00000000000E+00 0. -1.
        -13    1    3    3    0    0 -0.38531343572E+02 -0.19181896695E+02  0.45370044554E+02  0.62538392537E+02  0.00000000000E+00 0.  1.
         13    1    3    3    0    0  0.35353279947E+02  0.32782891198E+02  0.45274364870E+02  0.66138797031E+02  0.00000000000E+00 0. -1.
         21    1    1    2  503  501  0.47014503464E+01 -0.22015506629E+02 -0.34453908970E+02  0.41156506300E+02  0.00000000000E+00 0.  1.
          1    1    1    2  501    0  0.15255391335E+03 -0.70863062038E+02  0.63694433527E+02  0.17986453487E+03  0.00000000000E+00 0. -1.
<scales pt_clust_5="13000.00000" pt_clust_6="13000.00000" pt_clust_7="13000.00000" pt_clust_8="13000.00000" pt_clust_9="22.51191" pt_clust_10="173.24975"></scales>
<clustering>
<clus scale="   22.512">  2  9  1 -1</clus>
<clus scale="   80.421">  5  6 -1 -1</clus>
<clus scale="   90.257">  7  8 -1 -1</clus>
<clus scale="   90.822">  1  7  2 -1</clus>
<clus scale="  173.250">  2 10  1 -1</clus>
<clus scale="   22.512">  2  5  1 -1</clus>
</clustering>
</event>
<event>
10    4  0.7204077E-005  0.1406445E+03  0.7546771E-02  0.1234041E+00
          2   -1    0    0  502    0 -0.00000000000E+00  0.00000000000E+00  0.25818737523E+03  0.25818737523E+03  0.00000000000E+00 0. -1.
         21   -1    0    0  503  502  0.00000000000E+00 -0.00000000000E+00 -0.22102075016E+03  0.22102075016E+03  0.00000000000E+00 0. -1.
         24    2    1    2    0    0  0.29989236233E+02  0.20703624256E+02  0.19412213462E+02  0.89803572012E+02  0.79748687560E+02 0.  0.
         23    2    1    2    0    0  0.72994901981E+02  0.63932368754E+01  0.97729857062E+02  0.15362496635E+03  0.93168536167E+02 0.  0.
        -11    1    3    3    0    0 -0.23613753475E+02  0.23394027435E+02  0.13238658831E+02  0.35779211288E+02  0.00000000000E+00 0.  1.
         12    1    3    3    0    0  0.53602989708E+02 -0.26904031787E+01  0.61735546308E+01  0.54024360724E+02  0.00000000000E+00 0. -1.
        -13    1    4    4    0    0 -0.58111308234E+01 -0.26728493541E+02  0.55528673562E+01  0.27910857104E+02  0.00000000000E+00 0.  1.
         13    1    4    4    0    0  0.78806032804E+02  0.33121730416E+02  0.92176989706E+02  0.12571410925E+03  0.00000000000E+00 0. -1.
         21    1    1    2  503  501  0.25740127727E+02 -0.15901666269E+02 -0.10049452201E+03  0.10495030310E+03  0.00000000000E+00 0. -1.
          1    1    1    2  501    0 -0.12872426594E+03 -0.11195194862E+02  0.20519076555E+02  0.13082928393E+03  0.00000000000E+00 0. -1.
<scales pt_clust_5="13000.00000" pt_clust_6="13000.00000" pt_clust_7="13000.00000" pt_clust_8="13000.00000" pt_clust_9="30.25586" pt_clust_10="105.35890"></scales>
<clustering>
<clus scale="   30.256">  2  9  1 -1</clus>
<clus scale="   79.749">  5  6 -1 -1</clus>
<clus scale="   89.623">  1  5  2 -1</clus>
<clus scale="   93.169">  7  8 -1 -1</clus>
<clus scale="  105.359">  2 10  1 -1</clus>
<clus scale="   30.256">  2  5  1 -1</clus>
</clustering>
</event>
<event>
10    4  0.7204077E-005  0.1336757E+03  0.7546771E-02  0.1243105E+00
         21   -1    0    0  503  502  0.00000000000E+00  0.00000000000E+00  0.12085109285E+03  0.12085109285E+03  0.00000000000E+00 0. -1.
          2   -1    0    0  502    0 -0.00000000000E+00 -0.00000000000E+00 -0.42057935636E+03  0.42057935636E+03  0.00000000000E+00 0. -1.
         24    2    1    2    0    0  0.11697002507E+02 -0.35588070264E+02 -0.54809543915E+02  0.10415024785E+03  0.80248722168E+02 0.  0.
         23    2    1    2    0    0 -0.10312690712E+03 -0.76990193004E+02 -0.17105616017E+03  0.23234620985E+03  0.90343248278E+02 0.  0.
        -11    1    3    3    0    0  0.10703199641E+02 -0.17169531741E+02 -0.74483095220E+02  0.77182140268E+02  0.00000000000E+00 0.  1.
         12    1    3    3    0    0  0.99380286591E+00 -0.18418538522E+02  0.19673551305E+02  0.26968107579E+02  0.00000000000E+00 0. -1.
        -11    1    4    4    0    0 -0.62229169169E+02  0.24234205731E+01 -0.10171279532E+03  0.11926372120E+03  0.00000000000E+00 0.  1.
         11    1    4    4    0    0 -0.40897737947E+02 -0.79413613577E+02 -0.69343364850E+02  0.11308248865E+03  0.00000000000E+00 0. -1.
         21    1    1    2  503  501  0.41655059627E+02  0.44377099068E+02  0.32607531679E+02  0.69048693227E+02  0.00000000000E+00 0. -1.
          1    1    1    2  501    0  0.49774844981E+02  0.68201164200E+02 -0.10647009110E+03  0.13588529829E+03  0.00000000000E+00 0. -1.
<scales pt_clust_5="13000.00000" pt_clust_6="13000.00000" pt_clust_7="13000.00000" pt_clust_8="13000.00000" pt_clust_9="60.86436" pt_clust_10="98.52564"></scales>
<clustering>
<clus scale="   60.864">  1  9  2 -1</clus>
<clus scale="   80.249">  5  6 -1 -1</clus>
<clus scale="   86.796">  2  5  1 -1</clus>
<clus scale="   90.343">  7  8 -1 -1</clus>
<clus scale="   98.526">  1 10  2 -1</clus>
<clus scale="   60.864">  1  5  2 -1</clus>
</clustering>
</event>
<event>
10    4  0.7204077E-005  0.1461878E+03  0.7546771E-02  0.1207257E+00
         21   -1    0    0  503  502  0.00000000000E+00  0.00000000000E+00  0.80378209815E+02  0.80378209815E+02  0.00000000000E+00 0. -1.
         -3   -1    0    0    0  501 -0.00000000000E+00 -0.00000000000E+00 -0.70932954018E+03  0.70932954018E+03  0.00000000000E+00 0.  1.
         23    2    1    2    0    0 -0.26820057710E+02 -0.10066928805E+03 -0.13417801239E+03  0.19224525915E+03  0.90004886570E+02 0.  0.
         24    2    1    2    0    0 -0.55827307014E+02  0.13148159695E+03 -0.15738200350E+03  0.22693009032E+03  0.79524036125E+02 0.  0.
        -11    1    4    4    0    0 -0.44849951759E+02  0.16635935317E+02 -0.52313976155E+02  0.70887408034E+02  0.00000000000E+00 0.  1.
         12    1    4    4    0    0 -0.10977355255E+02  0.11484566164E+03 -0.10506802734E+03  0.15604268229E+03  0.00000000000E+00 0. -1.
        -11    1    3    3    0    0 -0.48784738628E+02 -0.33192997939E+02 -0.93181193282E+02  0.11029261361E+03  0.00000000000E+00 0.  1.
         11    1    3    3    0    0  0.21964680918E+02 -0.67476290110E+02 -0.40996819105E+02  0.81952645543E+02  0.00000000000E+00 0. -1.
         21    1    1    2  503  501 -0.21881686015E+02 -0.28377929701E+02 -0.33114000065E+02  0.48791926353E+02  0.00000000000E+00 0. -1.
         -4    1    1    2    0  502  0.10452905074E+03 -0.24343792037E+01 -0.30427731442E+03  0.32174047417E+03  0.00000000000E+00 0.  1.
<scales pt_clust_5="13000.00000" pt_clust_6="13000.00000" pt_clust_7="13000.00000" pt_clust_8="13000.00000" pt_clust_9="35.83455" pt_clust_10="102.06300"></scales>
<clustering>
<clus scale="   35.835">  1  9  2 -1</clus>
<clus scale="   79.524">  5  6 -1 -1</clus>
<clus scale="   90.005">  7  8 -1 -1</clus>
<clus scale="  102.063">  1 10  2 -1</clus>
<clus scale="  139.979">  1  5  2 -1</clus>
<clus scale="   35.835">  1  5  2 -1</clus>
</clustering>
</event>
<event>
10    4  0.7204077E-005  0.1086030E+03  0.7546771E-02  0.1269731E+00
          4   -1    0    0  503    0 -0.00000000000E+00  0.00000000000E+00  0.30665936112E+03  0.30665936112E+03  0.00000000000E+00 0. -1.
         21   -1    0    0  501  502  0.00000000000E+00 -0.00000000000E+00 -0.65547916881E+03  0.65547916881E+03  0.00000000000E+00 0. -1.
         23    2    1    2    0    0 -0.73069378135E+02  0.55738004490E+01  0.17594585205E+03  0.21148691827E+03  0.91649181532E+02 0.  0.
         24    2    1    2    0    0  0.58912341482E+01  0.48361669975E+02 -0.27534090849E+02  0.94220612996E+02  0.75801319197E+02 0.  0.
        -11    1    4    4    0    0 -0.29039037167E+02  0.33625130324E+02  0.44075461021E+01  0.44646853545E+02  0.00000000000E+00 0.  1.
         12    1    4    4    0    0  0.34930271315E+02  0.14736539651E+02 -0.31941636951E+02  0.49573759451E+02  0.00000000000E+00 0. -1.
        -11    1    3    3    0    0  0.14339658890E+02  0.23581213032E+02  0.33648076945E+02  0.43518875299E+02  0.00000000000E+00 0.  1.
         11    1    3    3    0    0 -0.87409037025E+02 -0.18007412583E+02  0.14229777510E+03  0.16796804298E+03  0.00000000000E+00 0. -1.
         21    1    1    2  503  502  0.55455899734E+02 -0.13305763428E+03 -0.54467880045E+03  0.56343117283E+03  0.00000000000E+00 0. -1.
          3    1    1    2  501    0  0.11722244253E+02  0.79122163853E+02  0.47447231562E+02  0.92999825838E+02  0.00000000000E+00 0. -1.
<scales pt_clust_5="13000.00000" pt_clust_6="13000.00000" pt_clust_7="13000.00000" pt_clust_8="13000.00000" pt_clust_9="91.57487" pt_clust_10="79.98584"></scales>
<clustering>
<clus scale="   75.801">  5  6 -1 -1</clus>
<clus scale="   79.986">  2 10  1 -1</clus>
<clus scale="   91.575">  2  9  1 -1</clus>
<clus scale="   91.649">  7  8 -1 -1</clus>
<clus scale="   95.608">  2  5  1 -1</clus>
<clus scale="   79.986">  2  5  1 -1</clus>
</clustering>
</event>
<event>
10    4  0.7204077E-005  0.1364938E+03  0.7546771E-02  0.1241118E+00
          2   -1    0    0  503    0 -0.00000000000E+00  0.00000000000E+00  0.19876824146E+03  0.19876824146E+03  0.00000000000E+00 0. -1.
         21   -1    0    0  501  502  0.00000000000E+00 -0.00000000000E+00 -0.23680969237E+03  0.23680969237E+03  0.00000000000E+00 0. -1.
         24    2    1    2    0    0 -0.18991212093E+02  0.86868213273E+01 -0.53163019197E+02  0.99022700913E+02  0.80889193867E+02 0.  0.
         23    2    1    2    0    0 -0.10804012798E+02  0.44086136826E+02  0.90227121343E+02  0.13595281110E+03  0.91005050776E+02 0.  0.
        -13    1    3    3    0    0 -0.22190283768E+02 -0.24950198417E+02  0.29514938666E+01  0.33520626647E+02  0.00000000000E+00 0.  1.
         14    1    3    3    0    0  0.31990716745E+01  0.33637019744E+02 -0.56114513063E+02  0.65502074266E+02  0.00000000000E+00 0. -1.
        -13    1    4    4    0    0 -0.26199888652E+02 -0.21539734739E+02  0.24828793576E+02  0.42034073422E+02  0.00000000000E+00 0.  1.
         13    1    4    4    0    0  0.15395875854E+02  0.65625871565E+02  0.65398327767E+02  0.93918737676E+02  0.00000000000E+00 0. -1.
         21    1    1    2  503  502 -0.26237983962E+01  0.60354316585E+02  0.10661832173E+01  0.60420729846E+02  0.00000000000E+00 0.  1.
          1    1    1    2  501    0  0.32419023287E+02 -0.11312727474E+03 -0.76171736272E+02  0.14018169198E+03  0.00000000000E+00 0. -1.
<scales pt_clust_5="13000.00000" pt_clust_6="13000.00000" pt_clust_7="13000.00000" pt_clust_8="13000.00000" pt_clust_9="60.41132" pt_clust_10="101.72831"></scales>
<clustering>
<clus scale="   60.411">  1  9  2 -1</clus>
<clus scale="   80.889">  5  6 -1 -1</clus>
<clus scale="   84.876">  1  5  2 -1</clus>
<clus scale="   91.005">  7  8 -1 -1</clus>
<clus scale="  101.728">  2 10  1 -1</clus>
<clus scale="  101.728">  2  5  1 -1</clus>
</clustering>
</event>
<event>
10    4  0.7204077E-005  0.2778572E+03  0.7546771E-02  0.1131681E+00
          2   -1    0    0  502    0 -0.00000000000E+00  0.00000000000E+00  0.51821549456E+03  0.51821549456E+03  0.00000000000E+00 0. -1.
         21   -1    0    0  503  502  0.00000000000E+00 -0.00000000000E+00 -0.24168063013E+03  0.24168063013E+03  0.00000000000E+00 0. -1.
         23    2    1    2    0    0  0.27330368046E+02  0.68581301227E+02  0.13924002885E+03  0.18074084321E+03  0.88482330854E+02 0.  0.
         24    2    1    2    0    0 -0.10935258313E+03 -0.29070711612E+03  0.93610133283E+02  0.33373263094E+03  0.78396410015E+02 0.  0.
        -13    1    4    4    0    0 -0.31450929614E+02 -0.47236263907E+02  0.47441090041E+02  0.73966767036E+02  0.00000000000E+00 0.  1.
         14    1    4    4    0    0 -0.77901653514E+02 -0.24347085221E+03  0.46169043242E+02  0.25976586390E+03  0.00000000000E+00 0. -1.
        -11    1    3    3    0    0 -0.20531245352E+02  0.38643227495E+02  0.18604712480E+02  0.47549620329E+02  0.00000000000E+00 0. -1.
         11    1    3    3    0    0  0.47861613399E+02  0.29938073731E+02  0.12063531637E+03  0.13319122288E+03  0.00000000000E+00 0.  1.
         21    1    1    2  503  501  0.20219977194E+02  0.61774467544E+02 -0.91378046543E+01  0.65638645568E+02  0.00000000000E+00 0.  1.
          1    1    1    2  501    0  0.61802237888E+02  0.16035134735E+03  0.52822506944E+02  0.17978400497E+03  0.00000000000E+00 0. -1.
<scales pt_clust_5="13000.00000" pt_clust_6="13000.00000" pt_clust_7="13000.00000" pt_clust_8="13000.00000" pt_clust_9="29.21392" pt_clust_10="270.76746"></scales>
<clustering>
<clus scale="   29.214">  9 10 -1 -1</clus>
<clus scale="   78.396">  5  6 -1 -1</clus>
<clus scale="   88.482">  7  8 -1 -1</clus>
<clus scale="  115.237">  1  7  2 -1</clus>
<clus scale="  270.767">  2  9  1 -1</clus>
<clus scale="  270.767">  2  5  1 -1</clus>
</clustering>
</event>
<event>
10    4  0.7204077E-005  0.1553596E+03  0.7546771E-02  0.1224082E+00
         21   -1    0    0  501  502  0.00000000000E+00  0.00000000000E+00  0.71253156530E+03  0.71253156530E+03  0.00000000000E+00 0.  1.
          4   -1    0    0  503    0 -0.00000000000E+00 -0.00000000000E+00 -0.76514155382E+02  0.76514155382E+02  0.00000000000E+00 0. -1.
         24    2    1    2    0    0 -0.21220891214E+02 -0.13838909257E+01  0.13984820148E+03  0.16259838529E+03  0.80177765396E+02 0.  0.
         23    2    1    2    0    0  0.66601492394E+02  0.89240205428E+02  0.27046468793E+03  0.30807580612E+03  0.96746999158E+02 0.  0.
        -13    1    3    3    0    0 -0.47334761978E+02 -0.18175399199E+02  0.99637217051E+02  0.11179668980E+03  0.00000000000E+00 0.  1.
         14    1    3    3    0    0  0.26113870764E+02  0.16791508274E+02  0.40210984430E+02  0.50801695496E+02  0.00000000000E+00 0. -1.
        -13    1    4    4    0    0  0.11511186215E+02  0.47866325761E+02  0.29361153205E+02  0.57321635248E+02  0.00000000000E+00 0. -1.
         13    1    4    4    0    0  0.55090306179E+02  0.41373879667E+02  0.24110353472E+03  0.25075417087E+03  0.00000000000E+00 0.  1.
         21    1    1    2  503  502  0.19720242175E+02  0.13621248719E+02  0.19157629953E+03  0.19306968926E+03  0.00000000000E+00 0.  1.
          3    1    1    2  501    0 -0.65100843355E+02 -0.10147756322E+03  0.34128220974E+02  0.12530184001E+03  0.00000000000E+00 0. -1.
<scales pt_clust_5="13000.00000" pt_clust_6="13000.00000" pt_clust_7="13000.00000" pt_clust_8="13000.00000" pt_clust_9="23.96719" pt_clust_10="121.55921"></scales>
<clustering>
<clus scale="   23.967">  1  9  2 -1</clus>
<clus scale="   80.178">  5  6 -1 -1</clus>
<clus scale="   81.701">  2  5  1 -1</clus>
<clus scale="   96.747">  7  8 -1 -1</clus>
<clus scale="  121.559">  1 10  2 -1</clus>
<clus scale="   23.967">  1  5  2 -1</clus>
</clustering>
</event>
<event>
10    4  0.7204077E-005  0.1007442E+03  0.7546771E-02  0.1280708E+00
          2   -1    0    0  502    0 -0.00000000000E+00  0.00000000000E+00  0.28099613349E+03  0.28099613349E+03  0.00000000000E+00 0. -1.
         21   -1    0    0  503  502  0.00000000000E+00 -0.00000000000E+00 -0.35543882846E+03  0.35543882846E+03  0.00000000000E+00 0. -1.
         24    2    1    2    0    0 -0.20203124084E+02  0.43496291091E+02  0.24241462405E+03  0.26191799720E+03  0.86810677595E+02 0.  0.
         23    2    1    2    0    0 -0.14883885896E+02  0.92073176452E+01 -0.10533402684E+03  0.14025255735E+03  0.90935240019E+02 0.  0.
        -11    1    3    3    0    0  0.54870719501E+00  0.51462646466E+02  0.64010082254E+02  0.82134010562E+02  0.00000000000E+00 0.  1.
         12    1    3    3    0    0 -0.20751831279E+02 -0.79663553748E+01  0.17840454179E+03  0.17978398664E+03  0.00000000000E+00 0. -1.
        -11    1    4    4    0    0 -0.51516422616E+02  0.17630465005E+02 -0.54586497930E+02  0.77100329777E+02  0.00000000000E+00 0. -1.
         11    1    4    4    0    0  0.36632536719E+02 -0.84231473601E+01 -0.50747528906E+02  0.63152227578E+02  0.00000000000E+00 0.  1.
         21    1    1    2  503  501  0.44856953791E+02 -0.72783791331E+01 -0.15261516062E+03  0.15923727063E+03  0.00000000000E+00 0.  1.
          1    1    1    2  501    0 -0.97699438115E+01 -0.45425229603E+02 -0.58908131563E+02  0.75027136763E+02  0.00000000000E+00 0. -1.
<scales pt_clust_5="13000.00000" pt_clust_6="13000.00000" pt_clust_7="13000.00000" pt_clust_8="13000.00000" pt_clust_9="45.44360" pt_clust_10="48.15930"></scales>
<clustering>
<clus scale="   45.444">  2  9  1 -1</clus>
<clus scale="   48.159">  2 10  1 -1</clus>
<clus scale="   86.811">  5  6 -1 -1</clus>
<clus scale="   90.935">  7  8 -1 -1</clus>
<clus scale="   97.037">  1  5  2 -1</clus>
<clus scale="   45.444">  2  5  1 -1</clus>
</clustering>
</event>
<event>
10    4  0.7204077E-005  0.7216438E+03  0.7546771E-02  0.1026824E+00
         21   -1    0    0  501  502  0.00000000000E+00  0.00000000000E+00  0.23126657563E+03  0.23126657563E+03  0.00000000000E+00 0. -1.
          2   -1    0    0  503    0 -0.00000000000E+00 -0.00000000000E+00 -0.41674180724E+04  0.41674180724E+04  0.00000000000E+00 0. -1.
         24    2    1    2    0    0 -0.71601548540E+02  0.19958469155E+02 -0.58418028569E+03  0.59464031429E+03  0.82494696494E+02 0.  0.
         23    2    1    2    0    0 -0.55139406040E+03  0.34499920708E+03 -0.92262528530E+03  0.11325793900E+04  0.91862913874E+02 0.  0.
        -11    1    3    3    0    0 -0.72851079611E+02  0.44432487198E+02 -0.48689848450E+03  0.49431939061E+03  0.00000000000E+00 0.  1.
         12    1    3    3    0    0  0.12495310710E+01 -0.24474018042E+02 -0.97281801187E+02  0.10032092369E+03  0.00000000000E+00 0. -1.
        -13    1    4    4    0    0 -0.53942463090E+03  0.32125295520E+03 -0.90167085971E+03  0.10987232285E+04  0.00000000000E+00 0. -1.
         13    1    4    4    0    0 -0.11969429497E+02  0.23746251883E+02 -0.20954425587E+02  0.33856161517E+02  0.00000000000E+00 0.  1.
         21    1    1    2  503  502 -0.29909348511E+02  0.77467495191E+02  0.30354040200E+02  0.88414646388E+02  0.00000000000E+00 0. -1.
          1    1    1    2  501    0  0.65290495745E+03 -0.44242517143E+03 -0.24596999660E+04  0.25830502973E+04  0.00000000000E+00 0. -1.
<scales pt_clust_5="13000.00000" pt_clust_6="13000.00000" pt_clust_7="13000.00000" pt_clust_8="13000.00000" pt_clust_9="83.04085" pt_clust_10="715.77338"></scales>
<clustering>
<clus scale="   82.495">  5  6 -1 -1</clus>
<clus scale="   83.041">  1  9  2 -1</clus>
<clus scale="   91.863">  7  8 -1 -1</clus>
<clus scale="  112.077">  2  5  1 -1</clus>
<clus scale="  715.773">  1 10  2 -1</clus>
<clus scale="   83.041">  1  5  2 -1</clus>
</clustering>
</event>
<event>
10    4  0.7204077E-005  0.1275758E+03  0.7546771E-02  0.1236107E+00
         21   -1    0    0  503  502  0.00000000000E+00  0.00000000000E+00  0.49365772652E+03  0.49365772652E+03  0.00000000000E+00 0.  1.
         -1   -1    0    0    0  501 -0.00000000000E+00 -0.00000000000E+00 -0.14762857875E+03  0.14762857875E+03  0.00000000000E+00 0.  1.
         24    2    1    2    0    0  0.57668440284E+02  0.98931207561E+02 -0.15827344568E+02  0.13616481305E+03  0.71953586716E+02 0.  0.
         23    2    1    2    0    0  0.27963938984E+02 -0.61197976436E+02  0.80913651593E+02  0.13884112128E+03  0.90568558236E+02 0.  0.
        -11    1    3    3    0    0  0.48259175801E+02  0.10759285328E+03 -0.28643164390E+01  0.11795496782E+03  0.00000000000E+00 0.  1.
         12    1    3    3    0    0  0.94092644835E+01 -0.86616457188E+01 -0.12963028129E+02  0.18209845221E+02  0.00000000000E+00 0. -1.
        -13    1    4    4    0    0 -0.13757230544E+02 -0.68646536227E+02  0.56225837015E+02  0.89793947882E+02  0.00000000000E+00 0.  1.
         13    1    4    4    0    0  0.41721169528E+02  0.74485597914E+01  0.24687814578E+02  0.49047173398E+02  0.00000000000E+00 0. -1.
         21    1    1    2  503  501  0.19643208237E+02 -0.10642902050E+03  0.11255898390E+03  0.15614902142E+03  0.00000000000E+00 0.  1.
         -2    1    1    2    0  502 -0.10527558750E+03  0.68695789378E+02  0.16838385685E+03  0.21013134952E+03  0.00000000000E+00 0.  1.
<scales pt_clust_5="13000.00000" pt_clust_6="13000.00000" pt_clust_7="13000.00000" pt_clust_8="13000.00000" pt_clust_9="108.22658" pt_clust_10="95.76613"></scales>
<clustering>
<clus scale="   71.954">  5  6 -1 -1</clus>
<clus scale="   90.569">  7  8 -1 -1</clus>
<clus scale="  108.227">  1  9  2 -1</clus>
<clus scale="   95.766">  1 10  2 -1</clus>
<clus scale="  115.110">  2  5  1 -1</clus>
<clus scale="  108.227">  1  5  2 -1</clus>
</clustering>
</event>
<event>
10    4  0.7204077E-005  0.1228779E+03  0.7546771E-02  0.1242470E+00
          2   -1    0    0  503    0 -0.00000000000E+00  0.00000000000E+00  0.73596641381E+03  0.73596641381E+03  0.00000000000E+00 0. -1.
         21   -1    0    0  501  502  0.00000000000E+00 -0.00000000000E+00 -0.73775487020E+02  0.73775487020E+02  0.00000000000E+00 0. -1.
         23    2    1    2    0    0  0.28129279630E+02 -0.83392754221E+02  0.55909507129E+03  0.57368807186E+03  0.93728849436E+02 0.  0.
         24    2    1    2    0    0 -0.10664791112E+02  0.46017192402E+02  0.51201165760E+02  0.10654077689E+03  0.80610532804E+02 0.  0.
        -13    1    4    4    0    0 -0.31190571544E+02  0.20927250715E+02  0.61900094408E+02  0.72404580404E+02  0.00000000000E+00 0.  1.
         14    1    4    4    0    0  0.20525780432E+02  0.25089941687E+02 -0.10698928649E+02  0.34136196485E+02  0.00000000000E+00 0. -1.
        -13    1    3    3    0    0 -0.34623822015E+02 -0.24312587934E+02  0.17491574636E+03  0.17995952130E+03  0.00000000000E+00 0.  1.
         13    1    3    3    0    0  0.62753101645E+02 -0.59080166287E+02  0.38417932493E+03  0.39372855055E+03  0.00000000000E+00 0. -1.
         21    1    1    2  503  502 -0.32604431879E+02  0.10015983932E+02 -0.27736662005E+02  0.43962385416E+02  0.00000000000E+00 0. -1.
          1    1    1    2  501    0  0.15139943361E+02  0.27359577887E+02  0.79631351743E+02  0.85550666670E+02  0.00000000000E+00 0. -1.
<scales pt_clust_5="13000.00000" pt_clust_6="13000.00000" pt_clust_7="13000.00000" pt_clust_8="13000.00000" pt_clust_9="34.51971" pt_clust_10="31.26924"></scales>
<clustering>
<clus scale="   31.269">  2 10  1 -1</clus>
<clus scale="   34.520">  2  9  1 -1</clus>
<clus scale="   80.611">  5  6 -1 -1</clus>
<clus scale="   93.729">  7  8 -1 -1</clus>
<clus scale="  113.190">  2  5  1 -1</clus>
<clus scale="   31.269">  2  5  1 -1</clus>
</clustering>
</event>
<event>
10    4  0.7204077E-005  0.1936431E+03  0.7546771E-02  0.1187759E+00
          2   -1    0    0  503    0 -0.00000000000E+00  0.00000000000E+00  0.11806067643E+04  0.11806067643E+04  0.00000000000E+00 0. -1.
         21   -1    0    0  501  502  0.00000000000E+00 -0.00000000000E+00 -0.12571102470E+03  0.12571102470E+03  0.00000000000E+00 0. -1.
         24    2    1    2    0    0  0.32123427306E+02  0.38794040571E+02  0.29922957694E+03  0.31369113675E+03  0.79541796525E+02 0.  0.
         23    2    1    2    0    0  0.17085568886E+03 -0.14223569587E+00  0.33838603846E+03  0.38985840869E+03  0.91064708623E+02 0.  0.
        -13    1    3    3    0    0 -0.21464965532E+02 -0.78723581071E+01  0.63895980964E+02  0.67863209111E+02  0.00000000000E+00 0.  1.
         14    1    3    3    0    0  0.53588392838E+02  0.46666398679E+02  0.23533359597E+03  0.24582792764E+03  0.00000000000E+00 0. -1.
        -11    1    4    4    0    0  0.77798058866E+02  0.42051562639E+02  0.12329259500E+03  0.15172981205E+03  0.00000000000E+00 0.  1.
         11    1    4    4    0    0  0.93057629995E+02 -0.42193798335E+02  0.21509344346E+03  0.23812859664E+03  0.00000000000E+00 0. -1.
         21    1    1    2  503  502 -0.13418665442E+03 -0.10078587500E+02 -0.39272750737E+02  0.14017840454E+03  0.00000000000E+00 0. -1.
          1    1    1    2  501    0 -0.68792461750E+02 -0.28573217376E+02  0.45655287490E+03  0.46258983897E+03  0.00000000000E+00 0. -1.
<scales pt_clust_5="13000.00000" pt_clust_6="13000.00000" pt_clust_7="13000.00000" pt_clust_8="13000.00000" pt_clust_9="170.89434" pt_clust_10="74.49052"></scales>
<clustering>
<clus scale="   74.491">  2 10  1 -1</clus>
<clus scale="   79.542">  5  6 -1 -1</clus>
<clus scale="   91.065">  7  8 -1 -1</clus>
<clus scale="   92.152">  1  5  2 -1</clus>
<clus scale="  170.894">  2  9  1 -1</clus>
<clus scale="   74.491">  2  5  1 -1</clus>
</clustering>
</event>
<event>
10    4  0.7204077E-005  0.1478315E+03  0.7546771E-02  0.1204613E+00
          2   -1    0    0  502    0 -0.00000000000E+00  0.00000000000E+00  0.14623077366E+04  0.14623077366E+04  0.00000000000E+00 0. -1.
         21   -1    0    0  503  502  0.00000000000E+00 -0.00000000000E+00 -0.36311364193E+02  0.36311364193E+02  0.00000000000E+00 0.  1.
         24    2    1    2    0    0  0.80766343687E+02  0.65301754934E+02  0.39988599404E+03  0.42009189902E+03  0.76032058504E+02 0.  0.
         23    2    1    2    0    0 -0.24917488849E+02 -0.17255740618E+03  0.54526405058E+03  0.57863260213E+03  0.84296285283E+02 0.  0.
        -11    1    3    3    0    0  0.16303960013E+02  0.38986025789E+02  0.61513051677E+02  0.74629651249E+02  0.00000000000E+00 0.  1.
         12    1    3    3    0    0  0.64462383674E+02  0.26315729145E+02  0.33837294237E+03  0.34546224777E+03  0.00000000000E+00 0. -1.
        -13    1    4    4    0    0  0.27325187847E+02 -0.10004863434E+03  0.27056109417E+03  0.28975800386E+03  0.00000000000E+00 0.  1.
         13    1    4    4    0    0 -0.52242676696E+02 -0.72508771835E+02  0.27470295642E+03  0.28887459827E+03  0.00000000000E+00 0. -1.
         21    1    1    2  503  501  0.11210233507E+02  0.17747668227E+02  0.41122886198E+02  0.46170778985E+02  0.00000000000E+00 0.  1.
          1    1    1    2  501    0 -0.67059088345E+02  0.89507983018E+02  0.43972344158E+03  0.45372382065E+03  0.00000000000E+00 0. -1.
<scales pt_clust_5="13000.00000" pt_clust_6="13000.00000" pt_clust_7="13000.00000" pt_clust_8="13000.00000" pt_clust_9="20.99164" pt_clust_10="113.46486"></scales>
<clustering>
<clus scale="   20.992">  2  9  1 -1</clus>
<clus scale="   76.032">  5  6 -1 -1</clus>
<clus scale="   84.296">  7  8 -1 -1</clus>
<clus scale="  113.465">  2 10  1 -1</clus>
<clus scale="  143.280">  1  5  2 -1</clus>
<clus scale="   20.992">  2  5  1 -1</clus>
</clustering>
</event>
<event>
10    4  0.7204077E-005  0.2291561E+03  0.7546771E-02  0.1161861E+00
          2   -1    0    0  503    0 -0.00000000000E+00  0.00000000000E+00  0.79611010199E+03  0.79611010199E+03  0.00000000000E+00 0. -1.
         21   -1    0    0  501  502  0.00000000000E+00 -0.00000000000E+00 -0.28001597469E+03  0.28001597469E+03  0.00000000000E+00 0. -1.
         24    2    1    2    0    0 -0.35194419752E+02 -0.42827363569E+02  0.94357894831E+02  0.13544290592E+03  0.79803121458E+02 0.  0.
         23    2    1    2    0    0  0.24047740916E+03  0.82801342577E+02  0.40111902037E+03  0.48363739832E+03  0.91231671606E+02 0.  0.
        -13    1    3    3    0    0 -0.32607025121E+02 -0.64572714482E+02  0.56825530166E+02  0.91989099471E+02  0.00000000000E+00 0.  1.
         14    1    3    3    0    0 -0.25873946308E+01  0.21745350913E+02  0.37532364665E+02  0.43453806446E+02  0.00000000000E+00 0. -1.
        -11    1    4    4    0    0  0.15399970686E+03  0.29370238844E+02  0.17057398081E+03  0.23167650630E+03  0.00000000000E+00 0. -1.
         11    1    4    4    0    0  0.86477702295E+02  0.53431103733E+02  0.23054503956E+03  0.25196089202E+03  0.00000000000E+00 0.  1.
         21    1    1    2  503  502 -0.14399645406E+03 -0.56904451892E+01 -0.18802757936E+03  0.23690025443E+03  0.00000000000E+00 0. -1.
          1    1    1    2  501    0 -0.61286535339E+02 -0.34283533819E+02  0.20864479145E+03  0.22014551802E+03  0.00000000000E+00 0. -1.
<scales pt_clust_5="13000.00000" pt_clust_6="13000.00000" pt_clust_7="13000.00000" pt_clust_8="13000.00000" pt_clust_9="210.21246" pt_clust_10="70.22396"></scales>
<clustering>
<clus scale="   70.224">  2 10  1 -1</clus>
<clus scale="   79.803">  5  6 -1 -1</clus>
<clus scale="   91.232">  7  8 -1 -1</clus>
<clus scale="  100.060">  1  5  2 -1</clus>
<clus scale="  210.212">  2  9  1 -1</clus>
<clus scale="   70.224">  2  5  1 -1</clus>
</clustering>
</event>
<event>
10    4  0.7204077E-005  0.3150631E+03  0.7546771E-02  0.1124509E+00
          2   -1    0    0  503    0 -0.00000000000E+00  0.00000000000E+00  0.12377046928E+04  0.12377046928E+04  0.00000000000E+00 0. -1.
         21   -1    0    0  501  502  0.00000000000E+00 -0.00000000000E+00 -0.21109186173E+03  0.21109186173E+03  0.00000000000E+00 0.  1.
         24    2    1    2    0    0 -0.43179592767E+01  0.60591727484E+02 -0.81623724153E+02  0.13027979592E+03  0.81365783163E+02 0.  0.
         23    2    1    2    0    0  0.28141246149E+03  0.93901057863E+02  0.33998348958E+03  0.46033594877E+03  0.91159368112E+02 0.  0.
        -11    1    3    3    0    0  0.16465062628E+02  0.73981886818E+02 -0.69110630458E+02  0.10257044948E+03  0.00000000000E+00 0.  1.
         12    1    3    3    0    0 -0.20783021905E+02 -0.13390159334E+02 -0.12513093694E+02  0.27709346443E+02  0.00000000000E+00 0. -1.
        -13    1    4    4    0    0  0.92503336404E+02  0.68000401607E+02  0.89703132218E+02  0.14569685581E+03  0.00000000000E+00 0.  1.
         13    1    4    4    0    0  0.18890912508E+03  0.25900656256E+02  0.25028035736E+03  0.31463909296E+03  0.00000000000E+00 0. -1.
         21    1    1    2  503  502  0.75376422069E+01 -0.23905007385E+02 -0.35028303354E+01  0.25308797847E+02  0.00000000000E+00 0. -1.
          1    1    1    2  501    0 -0.28463214442E+03 -0.13058777796E+03  0.77175589598E+03  0.83287201199E+03  0.00000000000E+00 0. -1.
<scales pt_clust_5="13000.00000" pt_clust_6="13000.00000" pt_clust_7="13000.00000" pt_clust_8="13000.00000" pt_clust_9="25.06522" pt_clust_10="301.58715"></scales>
<clustering>
<clus scale="   25.065">  2  9  1 -1</clus>
<clus scale="   81.366">  5  6 -1 -1</clus>
<clus scale="   91.159">  7  8 -1 -1</clus>
<clus scale="   94.325">  1  5  2 -1</clus>
<clus scale="  301.587">  2 10  1 -1</clus>
<clus scale="   25.065">  2  5  1 -1</clus>
</clustering>
</event>
<event>
10    4  0.7204077E-005  0.6868718E+03  0.7546771E-02  0.9739950E-01
         21   -1    0    0  503  502  0.00000000000E+00  0.00000000000E+00  0.23265449506E+03  0.23265449506E+03  0.00000000000E+00 0. -1.
          2   -1    0    0  502    0 -0.00000000000E+00 -0.00000000000E+00 -0.27077388367E+04  0.27077388367E+04  0.00000000000E+00 0. -1.
         24    2    1    2    0    0 -0.10737072292E+03  0.72828870437E+02 -0.56960143427E+03  0.58959527216E+03  0.79650954265E+02 0.  0.
         23    2    1    2    0    0 -0.52094608404E+03  0.10142709109E+03 -0.12542901217E+04  0.13647642866E+04  0.87553249153E+02 0.  0.
        -13    1    3    3    0    0 -0.36166645648E+02  0.52169267078E+02 -0.14102917099E+03  0.15465731717E+03  0.00000000000E+00 0.  1.
         14    1    3    3    0    0 -0.71204077274E+02  0.20659603359E+02 -0.42857226328E+03  0.43493795499E+03  0.00000000000E+00 0. -1.
        -13    1    4    4    0    0 -0.45347061800E+03  0.65581244671E+02 -0.11227549061E+04  0.12126479622E+04  0.00000000000E+00 0. -1.
         13    1    4    4    0    0 -0.67475466037E+02  0.35845846423E+02 -0.13153521559E+03  0.15211632445E+03  0.00000000000E+00 0.  1.
         21    1    1    2  503  501  0.38692632655E+02 -0.29795690087E+02  0.42133255037E+02  0.64498946887E+02  0.00000000000E+00 0. -1.
          1    1    1    2  501    0  0.58962417431E+03 -0.14446027144E+03 -0.69332604075E+03  0.92153482611E+03  0.00000000000E+00 0. -1.
<scales pt_clust_5="13000.00000" pt_clust_6="13000.00000" pt_clust_7="13000.00000" pt_clust_8="13000.00000" pt_clust_9="48.83547" pt_clust_10="635.60928"></scales>
<clustering>
<clus scale="   48.835">  1  9  2 -1</clus>
<clus scale="   79.651">  5  6 -1 -1</clus>
<clus scale="   87.553">  7  8 -1 -1</clus>
<clus scale="  124.542">  5  7 -1 -1</clus>
<clus scale="  635.609">  1 10  2 -1</clus>
<clus scale="   48.835">  1  5  2 -1</clus>
</clustering>
</event>
<event>
10    4  0.7204077E-005  0.1552345E+03  0.7546771E-02  0.1211669E+00
         21   -1    0    0  501  502  0.00000000000E+00  0.00000000000E+00  0.12397973461E+04  0.12397973461E+04  0.00000000000E+00 0. -1.
          2   -1    0    0  503    0 -0.00000000000E+00 -0.00000000000E+00 -0.10912749566E+03  0.10912749566E+03  0.00000000000E+00 0. -1.
         23    2    1    2    0    0  0.31704696692E+02 -0.52700438452E+02  0.27423653245E+03  0.29523882733E+03  0.90430998172E+02 0.  0.
         24    2    1    2    0    0 -0.89641523721E+02  0.15842561974E+03  0.22487111428E+02  0.20029203919E+03  0.80479506819E+02 0.  0.
        -11    1    4    4    0    0 -0.14591908156E+02  0.10531542879E+03  0.20792093462E+02  0.10833547191E+03  0.00000000000E+00 0.  1.
         12    1    4    4    0    0 -0.75049615564E+02  0.53110190953E+02  0.16950179660E+01  0.91956567277E+02  0.00000000000E+00 0. -1.
        -11    1    3    3    0    0  0.62488781985E+02 -0.34171522573E+02  0.20842579730E+03  0.22025860666E+03  0.00000000000E+00 0.  1.
         11    1    3    3    0    0 -0.30784085293E+02 -0.18528915879E+02  0.65810735150E+02  0.74980220672E+02  0.00000000000E+00 0. -1.
         21    1    1    2  503  502 -0.94909277389E+00  0.26351829664E+02  0.53291448937E+02  0.59458373956E+02  0.00000000000E+00 0. -1.
          1    1    1    2  501    0  0.58885919803E+02 -0.13207701095E+03  0.78065475766E+03  0.79393560131E+03  0.00000000000E+00 0. -1.
<scales pt_clust_5="13000.00000" pt_clust_6="13000.00000" pt_clust_7="13000.00000" pt_clust_8="13000.00000" pt_clust_9="26.36892" pt_clust_10="132.74335"></scales>
<clustering>
<clus scale="   26.369">  1  9  2 -1</clus>
<clus scale="   80.480">  5  6 -1 -1</clus>
<clus scale="   90.431">  7  8 -1 -1</clus>
<clus scale="  106.385">  2  7  1 -1</clus>
<clus scale="  132.743">  1 10  2 -1</clus>
<clus scale="   26.369">  1  5  2 -1</clus>
</clustering>
</event>
<event>
10    4  0.7204077E-005  0.1013413E+03  0.7546771E-02  0.1280734E+00
         21   -1    0    0  503  502  0.00000000000E+00  0.00000000000E+00  0.50365613537E+02  0.50365613537E+02  0.00000000000E+00 0. -1.
         -3   -1    0    0    0  501 -0.00000000000E+00 -0.00000000000E+00 -0.64658644255E+03  0.64658644255E+03  0.00000000000E+00 0.  1.
         24    2    1    2    0    0 -0.20155423995E+02  0.21197489795E+01 -0.25000206960E+03  0.26949453159E+03  0.98567404850E+02 0.  0.
         23    2    1    2    0    0  0.14648816501E+01  0.52458465825E+02 -0.18094478425E+03  0.20980904056E+03  0.92329746237E+02 0.  0.
        -13    1    3    3    0    0  0.17580467823E+02 -0.27916989186E+02 -0.18835336825E+03  0.19122087351E+03  0.00000000000E+00 0.  1.
         14    1    3    3    0    0 -0.37735891818E+02  0.30036738165E+02 -0.61648701351E+02  0.78273658080E+02  0.00000000000E+00 0. -1.
        -13    1    4    4    0    0  0.21937492306E+02  0.71862250778E+02 -0.15106229363E+03  0.16871648767E+03  0.00000000000E+00 0. -1.
         13    1    4    4    0    0 -0.20472610656E+02 -0.19403784953E+02 -0.29882490618E+02  0.41092552891E+02  0.00000000000E+00 0.  1.
         21    1    1    2  503  501  0.47435842628E+01 -0.22798999133E+02  0.19049550876E+02  0.30086231763E+02  0.00000000000E+00 0. -1.
         -4    1    1    2    0  502  0.13946958082E+02 -0.31779215672E+02 -0.18432352604E+03  0.18756225218E+03  0.00000000000E+00 0.  1.
<scales pt_clust_5="13000.00000" pt_clust_6="13000.00000" pt_clust_7="13000.00000" pt_clust_8="13000.00000" pt_clust_9="23.28725" pt_clust_10="36.13641"></scales>
<clustering>
<clus scale="   23.287">  1  9  2 -1</clus>
<clus scale="   36.136">  1 10  2 -1</clus>
<clus scale="   92.330">  7  8 -1 -1</clus>
<clus scale="   95.285">  1  7  2 -1</clus>
<clus scale="   98.567">  5  6 -1 -1</clus>
<clus scale="   23.287">  1  5  2 -1</clus>
</clustering>
</event>
<event>
10    4  0.7204077E-005  0.1016914E+03  0.7546771E-02  0.1282050E+00
          2   -1    0    0  503    0 -0.00000000000E+00  0.00000000000E+00  0.21109009056E+03  0.21109009056E+03  0.00000000000E+00 0. -1.
         21   -1    0    0  501  502  0.00000000000E+00 -0.00000000000E+00 -0.21336959360E+03  0.21336959360E+03  0.00000000000E+00 0. -1.
         24    2    1    2    0    0  0.47904951609E+02  0.16188629183E+02  0.12710776275E+03  0.15870099343E+03  0.80452879756E+02 0.  0.
         23    2    1    2    0    0  0.10560167826E+02  0.97660021907E+01 -0.13803414904E+03  0.16617565159E+03  0.91400377110E+02 0.  0.
        -11    1    3    3    0    0  0.41149044270E+01 -0.30504670983E+02  0.46538881701E+02  0.55797266064E+02  0.00000000000E+00 0.  1.
         12    1    3    3    0    0  0.43790047182E+02  0.46693300165E+02  0.80568881050E+02  0.10290372737E+03  0.00000000000E+00 0. -1.
        -11    1    4    4    0    0 -0.15979835227E+02 -0.20651498788E+02 -0.11847525818E+03  0.12131869739E+03  0.00000000000E+00 0. -1.
         11    1    4    4    0    0  0.26540003053E+02  0.30417500979E+02 -0.19558890856E+02  0.44856954192E+02  0.00000000000E+00 0.  1.
         21    1    1    2  503  502  0.64430195764E+01 -0.31617136593E+02 -0.59558516322E+01  0.32812009940E+02  0.00000000000E+00 0. -1.
          1    1    1    2  501    0 -0.64908139011E+02  0.56625052199E+01  0.14602734879E+02  0.66771029205E+02  0.00000000000E+00 0. -1.
<scales pt_clust_5="13000.00000" pt_clust_6="13000.00000" pt_clust_7="13000.00000" pt_clust_8="13000.00000" pt_clust_9="32.26695" pt_clust_10="64.05736"></scales>
<clustering>
<clus scale="   32.267">  2  9  1 -1</clus>
<clus scale="   64.057">  2 10  1 -1</clus>
<clus scale="   80.453">  5  6 -1 -1</clus>
<clus scale="   91.400">  7  8 -1 -1</clus>
<clus scale="   91.977">  1  5  2 -1</clus>
<clus scale="   32.267">  2  5  1 -1</clus>
</clustering>
</event>
<event>
10    4  0.8521379E-005  0.3808210E+03  0.7546771E-02  0.1092100E+00
          2   -1    0    0  502    0 -0.00000000000E+00  0.00000000000E+00  0.18579307862E+04  0.18579307862E+04  0.00000000000E+00 0. -1.
         21   -1    0    0  503  502  0.00000000000E+00 -0.00000000000E+00 -0.12099089605E+03  0.12099089605E+03  0.00000000000E+00 0. -1.
         24    2    1    2    0    0 -0.58814185416E+02  0.60161170976E+02  0.35890538257E+03  0.37933717684E+03  0.89471477003E+02 0.  0.
         23    2    1    2    0    0  0.10349979442E+03  0.35020253853E+03  0.54239163007E+03  0.66024338935E+03  0.91534842428E+02 0.  0.
        -11    1    3    3    0    0 -0.19443360567E+02 -0.22867049516E+02  0.69809397740E+02  0.75988803363E+02  0.00000000000E+00 0.  1.
         12    1    3    3    0    0 -0.39370824849E+02  0.83028220492E+02  0.28909598483E+03  0.30334837348E+03  0.00000000000E+00 0. -1.
        -11    1    4    4    0    0  0.99187734727E+02  0.27892497649E+03  0.37145227127E+03  0.47498856730E+03  0.00000000000E+00 0. -1.
         11    1    4    4    0    0  0.43120596951E+01  0.71277562038E+02  0.17093935880E+03  0.18525482205E+03  0.00000000000E+00 0.  1.
         21    1    1    2  503  501 -0.87791268660E+01 -0.20940211065E+02  0.82107165390E+01  0.24145007229E+02  0.00000000000E+00 0. -1.
          1    1    1    2  501    0 -0.35906482141E+02 -0.38942349844E+03  0.82743216099E+03  0.91519610884E+03  0.00000000000E+00 0. -1.
<scales pt_clust_5="13000.00000" pt_clust_6="13000.00000" pt_clust_7="13000.00000" pt_clust_8="13000.00000" pt_clust_9="22.70607" pt_clust_10="369.65674"></scales>
<clustering>
<clus scale="   22.706">  2  9  1 -1</clus>
<clus scale="   89.471">  5  6 -1 -1</clus>
<clus scale="   91.535">  7  8 -1 -1</clus>
<clus scale="  122.284">  1  5  2 -1</clus>
<clus scale="  369.657">  2 10  1 -1</clus>
<clus scale="   22.706">  2  5  1 -1</clus>
</clustering>
</event>
<event>
10    4  0.7204077E-005  0.3570304E+03  0.7546771E-02  0.1082143E+00
         21   -1    0    0  501  502  0.00000000000E+00  0.00000000000E+00  0.46542157061E+03  0.46542157061E+03  0.00000000000E+00 0. -1.
          2   -1    0    0  503    0 -0.00000000000E+00 -0.00000000000E+00 -0.58496298704E+03  0.58496298704E+03  0.00000000000E+00 0. -1.
         24    2    1    2    0    0 -0.17365814516E+03  0.14954073227E+02 -0.18198070626E+03  0.26441468746E+03  0.80108512705E+02 0.  0.
         23    2    1    2    0    0 -0.13573284420E+03  0.27669981800E+03  0.49952598725E+02  0.32502754163E+03  0.90340724059E+02 0.  0.
        -11    1    3    3    0    0 -0.23155344049E+02 -0.23639143657E+02 -0.15007918685E+02  0.36334786281E+02  0.00000000000E+00 0.  1.
         12    1    3    3    0    0 -0.15050280111E+03  0.38593216884E+02 -0.16697278757E+03  0.22807990117E+03  0.00000000000E+00 0. -1.
        -11    1    4    4    0    0 -0.14122575624E+03  0.20449278747E+03  0.43812587064E+02  0.25235205000E+03  0.00000000000E+00 0. -1.
         11    1    4    4    0    0  0.54929120444E+01  0.72207030530E+02  0.61400116611E+01  0.72675491631E+02  0.00000000000E+00 0.  1.
         21    1    1    2  503  502 -0.19584455013E+02 -0.21346263774E+02  0.19812765292E+02  0.35096431782E+02  0.00000000000E+00 0. -1.
          1    1    1    2  501    0  0.32897544436E+03 -0.27030762745E+03 -0.73260741927E+01  0.42584589679E+03  0.00000000000E+00 0. -1.
<scales pt_clust_5="13000.00000" pt_clust_6="13000.00000" pt_clust_7="13000.00000" pt_clust_8="13000.00000" pt_clust_9="28.96919" pt_clust_10="345.41190"></scales>
<clustering>
<clus scale="   28.969">  1  9  2 -1</clus>
<clus scale="   80.109">  5  6 -1 -1</clus>
<clus scale="   90.341">  7  8 -1 -1</clus>
<clus scale="  193.354">  2  5  1 -1</clus>
<clus scale="  345.412">  1 10  2 -1</clus>
<clus scale="   28.969">  1  5  2 -1</clus>
</clustering>
</event>
<event>
10    4  0.7204077E-005  0.1395194E+03  0.7546771E-02  0.1230923E+00
          2   -1    0    0  503    0 -0.00000000000E+00  0.00000000000E+00  0.12121518158E+04  0.12121518158E+04  0.00000000000E+00 0. -1.
         21   -1    0    0  501  502  0.00000000000E+00 -0.00000000000E+00 -0.24561182970E+03  0.24561182970E+03  0.00000000000E+00 0. -1.
         23    2    1    2    0    0 -0.17653288653E+02 -0.26608171618E+02  0.77199668814E+02  0.12250439137E+03  0.89598569428E+02 0.  0.
         24    2    1    2    0    0 -0.52335239510E+02 -0.55933760194E+02  0.10412375613E+04  0.10470171596E+04  0.78750940390E+02 0.  0.
        -13    1    4    4    0    0 -0.51377952204E+01 -0.40323424671E+02  0.18856525889E+03  0.19289694756E+03  0.00000000000E+00 0.  1.
         14    1    4    4    0    0 -0.47197444290E+02 -0.15610335523E+02  0.85267230245E+03  0.85412021208E+03  0.00000000000E+00 0. -1.
        -13    1    3    3    0    0 -0.28111073413E+02 -0.55989843413E+02  0.60649449336E+02  0.87197767853E+02  0.00000000000E+00 0.  1.
         13    1    3    3    0    0  0.10457784760E+02  0.29381671796E+02  0.16550219478E+02  0.35306623520E+02  0.00000000000E+00 0. -1.
         21    1    1    2  503  502 -0.28123081270E+02 -0.22021164358E+02 -0.13986382048E+03  0.14435278889E+03  0.00000000000E+00 0. -1.
          1    1    1    2  501    0  0.98111609433E+02  0.10456309617E+03 -0.12033423555E+02  0.14388930561E+03  0.00000000000E+00 0. -1.
<scales pt_clust_5="13000.00000" pt_clust_6="13000.00000" pt_clust_7="13000.00000" pt_clust_8="13000.00000" pt_clust_9="35.71889" pt_clust_10="115.16923"></scales>
<clustering>
<clus scale="   35.719">  2  9  1 -1</clus>
<clus scale="   78.751">  5  6 -1 -1</clus>
<clus scale="   89.599">  7  8 -1 -1</clus>
<clus scale="   97.890">  1  7  2 -1</clus>
<clus scale="  115.169">  2 10  1 -1</clus>
<clus scale="   35.719">  2  5  1 -1</clus>
</clustering>
</event>
<event>
10    4  0.7204077E-005  0.1345552E+03  0.7546771E-02  0.1225376E+00
         21   -1    0    0  501  502  0.00000000000E+00  0.00000000000E+00  0.59605051263E+03  0.59605051263E+03  0.00000000000E+00 0. -1.
          2   -1    0    0  503    0 -0.00000000000E+00 -0.00000000000E+00 -0.83123865756E+02  0.83123865756E+02  0.00000000000E+00 0. -1.
         24    2    1    2    0    0  0.10900943068E+03  0.54942796963E+02  0.18143616104E+03  0.23047530771E+03  0.72787499030E+02 0.  0.
         23    2    1    2    0    0  0.40760408062E+01 -0.10658167553E+03  0.25191460886E+03  0.28853979107E+03  0.91749513383E+02 0.  0.
        -11    1    3    3    0    0  0.79070288908E+02  0.22830684784E+01  0.12345128010E+03  0.14662039949E+03  0.00000000000E+00 0.  1.
         12    1    3    3    0    0  0.29939141776E+02  0.52659728484E+02  0.57984880945E+02  0.83854908219E+02  0.00000000000E+00 0. -1.
        -13    1    4    4    0    0  0.29287724892E+02 -0.98094361545E+02  0.23671053797E+03  0.25789950248E+03  0.00000000000E+00 0. -1.
         13    1    4    4    0    0 -0.25211684085E+02 -0.84873139875E+01  0.15204070898E+02  0.30640288592E+02  0.00000000000E+00 0.  1.
         21    1    1    2  503  502 -0.10401907498E+02  0.32754693413E+02  0.23654656864E+02  0.41720647305E+02  0.00000000000E+00 0. -1.
          1    1    1    2  501    0 -0.10268356399E+03  0.18884185157E+02  0.55921220110E+02  0.11843863230E+03  0.00000000000E+00 0. -1.
<scales pt_clust_5="13000.00000" pt_clust_6="13000.00000" pt_clust_7="13000.00000" pt_clust_8="13000.00000" pt_clust_9="34.36669" pt_clust_10="111.95513"></scales>
<clustering>
<clus scale="   34.367">  2  9  1 -1</clus>
<clus scale="   72.787">  5  6 -1 -1</clus>
<clus scale="   91.750">  7  8 -1 -1</clus>
<clus scale="  111.955">  1 10  2 -1</clus>
<clus scale="  122.414">  2  5  1 -1</clus>
<clus scale="  111.955">  1  5  2 -1</clus>
</clustering>
</event>
<event>
10    4  0.7204077E-005  0.1502903E+03  0.7546771E-02  0.1210086E+00
         21   -1    0    0  501  502  0.00000000000E+00  0.00000000000E+00  0.85864929950E+02  0.85864929950E+02  0.00000000000E+00 0.  1.
          2   -1    0    0  503    0 -0.00000000000E+00 -0.00000000000E+00 -0.16943917908E+04  0.16943917908E+04  0.00000000000E+00 0. -1.
         23    2    1    2    0    0 -0.26722008993E+02 -0.82599699276E+02 -0.27503841217E+03  0.30235220879E+03  0.90741136819E+02 0.  0.
         24    2    1    2    0    0 -0.49974910977E+02  0.12391173631E+03 -0.91341637808E+03  0.92657408976E+03  0.79739914380E+02 0.  0.
        -13    1    4    4    0    0  0.25865650681E+01  0.41943801541E+02 -0.11879309318E+03  0.12600703074E+03  0.00000000000E+00 0.  1.
         14    1    4    4    0    0 -0.52561476045E+02  0.81967934769E+02 -0.79462328490E+03  0.80056705903E+03  0.00000000000E+00 0. -1.
        -13    1    3    3    0    0  0.25164550089E+02  0.54868723659E+00 -0.35313161075E+02  0.43365596779E+02  0.00000000000E+00 0.  1.
         13    1    3    3    0    0 -0.51886559082E+02 -0.83148386512E+02 -0.23972525109E+03  0.25898661202E+03  0.00000000000E+00 0. -1.
         21    1    1    2  503  502 -0.50203079988E+02  0.42686375598E+02  0.32773785773E+02  0.73597533490E+02  0.00000000000E+00 0.  1.
          1    1    1    2  501    0  0.12689999996E+03 -0.83998412633E+02 -0.45284585638E+03  0.47773288871E+03  0.00000000000E+00 0. -1.
<scales pt_clust_5="13000.00000" pt_clust_6="13000.00000" pt_clust_7="13000.00000" pt_clust_8="13000.00000" pt_clust_9="65.89747" pt_clust_10="127.39205"></scales>
<clustering>
<clus scale="   65.897">  1  9  2 -1</clus>
<clus scale="   79.740">  5  6 -1 -1</clus>
<clus scale="   90.741">  7  8 -1 -1</clus>
<clus scale="  121.258">  2  7  1 -1</clus>
<clus scale="  127.392">  1 10  2 -1</clus>
<clus scale="   65.897">  1  5  2 -1</clus>
</clustering>
</event>
<event>
10    4  0.7204077E-005  0.2300297E+03  0.7546771E-02  0.1132854E+00
          2   -1    0    0  503    0 -0.00000000000E+00  0.00000000000E+00  0.25760186050E+03  0.25760186050E+03  0.00000000000E+00 0. -1.
         21   -1    0    0  501  502  0.00000000000E+00 -0.00000000000E+00 -0.63135091674E+03  0.63135091674E+03  0.00000000000E+00 0. -1.
         24    2    1    2    0    0  0.18574682305E+03  0.73448365435E+02  0.68556117769E+01  0.21528007540E+03  0.80012291502E+02 0.  0.
         23    2    1    2    0    0 -0.42927858786E+02  0.18029406922E+03 -0.24764618561E+03  0.32240548213E+03  0.90928044081E+02 0.  0.
        -11    1    3    3    0    0  0.30955641279E+02  0.42804682172E+01 -0.28267424464E+02  0.42138123131E+02  0.00000000000E+00 0.  1.
         12    1    3    3    0    0  0.15479118177E+03  0.69167897217E+02  0.35123036240E+02  0.17314195227E+03  0.00000000000E+00 0. -1.
        -13    1    4    4    0    0 -0.19847501961E+02  0.66941538181E+02 -0.16807895673E+03  0.18200447402E+03  0.00000000000E+00 0. -1.
         13    1    4    4    0    0 -0.23080356824E+02  0.11335253104E+03 -0.79567228878E+02  0.14040100810E+03  0.00000000000E+00 0.  1.
         21    1    1    2  503  502 -0.15824863731E+03 -0.23433748849E+03 -0.15104470758E+03  0.32057946504E+03  0.00000000000E+00 0. -1.
          1    1    1    2  501    0  0.15429673039E+02 -0.19404946171E+02  0.18086225174E+02  0.30687754675E+02  0.00000000000E+00 0. -1.
<scales pt_clust_5="13000.00000" pt_clust_6="13000.00000" pt_clust_7="13000.00000" pt_clust_8="13000.00000" pt_clust_9="215.66565" pt_clust_10="24.79168"></scales>
<clustering>
<clus scale="   24.792">  2 10  1 -1</clus>
<clus scale="   80.012">  5  6 -1 -1</clus>
<clus scale="   90.928">  7  8 -1 -1</clus>
<clus scale="  197.357">  2  7  1 -1</clus>
<clus scale="  215.666">  2  9  1 -1</clus>
<clus scale="   24.792">  2  5  1 -1</clus>
</clustering>
</event>
<event>
10    4  0.7204077E-005  0.1897182E+03  0.7546771E-02  0.1185931E+00
         21   -1    0    0  503  502  0.00000000000E+00  0.00000000000E+00  0.57577824506E+03  0.57577824506E+03  0.00000000000E+00 0. -1.
          2   -1    0    0  502    0 -0.00000000000E+00 -0.00000000000E+00 -0.46364646189E+03  0.46364646189E+03  0.00000000000E+00 0. -1.
         23    2    1    2    0    0  0.33068578139E+02  0.37467722759E+02 -0.12603900898E+02  0.10282652683E+03  0.88977947791E+02 0.  0.
         24    2    1    2    0    0 -0.67536353724E+02  0.16921063044E+02 -0.26013258674E+03  0.28110623091E+03  0.80649047885E+02 0.  0.
        -13    1    4    4    0    0 -0.28179571309E+02 -0.31920406983E+02 -0.84762842927E+02  0.94856418667E+02  0.00000000000E+00 0.  1.
         14    1    4    4    0    0 -0.39356782414E+02  0.48841470027E+02 -0.17536974381E+03  0.18624981225E+03  0.00000000000E+00 0. -1.
        -11    1    3    3    0    0  0.29656911796E+02 -0.22068732551E+02 -0.21139709316E+02  0.42584606181E+02  0.00000000000E+00 0.  1.
         11    1    3    3    0    0  0.34116663426E+01  0.59536455309E+02  0.85358084180E+01  0.60241920648E+02  0.00000000000E+00 0. -1.
         21    1    1    2  503  501 -0.15963215732E+03 -0.10212349694E+03  0.41227096858E+03  0.45373889608E+03  0.00000000000E+00 0. -1.
          1    1    1    2  501    0  0.19409993291E+03  0.47734711138E+02 -0.27402697783E+02  0.20175305313E+03  0.00000000000E+00 0. -1.
<scales pt_clust_5="13000.00000" pt_clust_6="13000.00000" pt_clust_7="13000.00000" pt_clust_8="13000.00000" pt_clust_9="189.71817" pt_clust_10="13000.00000"></scales>
<clustering>
<clus scale="   80.649">  5  6 -1 -1</clus>
<clus scale="   88.978">  7  8 -1 -1</clus>
<clus scale="  102.051">  2  7  1 -1</clus>
<clus scale="  101.633">  2  5  1 -1</clus>
<clus scale="  189.718">  1  9  2 -1</clus>
<clus scale="  189.718">  1  5  2 -1</clus>
</clustering>
</event>
<event>
10    4  0.7204077E-005  0.1980359E+03  0.7546771E-02  0.1166728E+00
         21   -1    0    0  503  502  0.00000000000E+00  0.00000000000E+00  0.11313636653E+03  0.11313636653E+03  0.00000000000E+00 0.  1.
          2   -1    0    0  502    0 -0.00000000000E+00 -0.00000000000E+00 -0.13145431226E+04  0.13145431226E+04  0.00000000000E+00 0. -1.
         24    2    1    2    0    0 -0.21825850348E+02 -0.11028036481E+03 -0.37978214080E+03  0.40426393644E+03  0.80973632934E+02 0.  0.
         23    2    1    2    0    0  0.20569293503E+03 -0.69264033124E+02 -0.23436253689E+03  0.33045429017E+03  0.84659018315E+02 0.  0.
        -11    1    3    3    0    0 -0.16464731222E+02 -0.12329825636E+03 -0.34500837530E+03  0.36674831482E+03  0.00000000000E+00 0.  1.
         12    1    3    3    0    0 -0.53611191264E+01  0.13017891549E+02 -0.34773765499E+02  0.37515621622E+02  0.00000000000E+00 0. -1.
        -11    1    4    4    0    0  0.78337261174E+02 -0.58282915285E+02 -0.61250146583E+02  0.11526146433E+03  0.00000000000E+00 0.  1.
         11    1    4    4    0    0  0.12735567386E+03 -0.10981117839E+02 -0.17311239031E+03  0.21519282584E+03  0.00000000000E+00 0. -1.
         21    1    1    2  503  501 -0.13631831836E+03 -0.38659167169E+02 -0.18708676430E+03  0.23468845840E+03  0.00000000000E+00 0.  1.
          1    1    1    2  501    0 -0.47548766327E+02  0.21820356510E+03 -0.40017531408E+03  0.45827280412E+03  0.00000000000E+00 0. -1.
<scales pt_clust_5="13000.00000" pt_clust_6="13000.00000" pt_clust_7="13000.00000" pt_clust_8="13000.00000" pt_clust_9="155.07140" pt_clust_10="179.02823"></scales>
<clustering>
<clus scale="   80.974">  5  6 -1 -1</clus>
<clus scale="   84.659">  7  8 -1 -1</clus>
<clus scale="  138.546">  2  5  1 -1</clus>
<clus scale="  155.071">  1  9  2 -1</clus>
<clus scale="  179.028">  1 10  2 -1</clus>
<clus scale="  155.071">  1  5  2 -1</clus>
</clustering>
</event>
<event>
10    4  0.7204077E-005  0.1228630E+03  0.7546771E-02  0.1250033E+00
         21   -1    0    0  501  502  0.00000000000E+00  0.00000000000E+00  0.20429210063E+03  0.20429210063E+03  0.00000000000E+00 0. -1.
          2   -1    0    0  503    0 -0.00000000000E+00 -0.00000000000E+00 -0.20798408520E+03  0.20798408520E+03  0.00000000000E+00 0. -1.
         23    2    1    2    0    0  0.98113317515E+01  0.28366594854E+02  0.43293147544E+02  0.10530564673E+03  0.91181449184E+02 0.  0.
         24    2    1    2    0    0  0.99752894351E+02  0.10333515068E+01  0.46879219935E+02  0.13680190447E+03  0.81027106933E+02 0.  0.
        -13    1    4    4    0    0  0.50165547943E+01  0.27912912350E+02  0.15726202554E+01  0.28403690470E+02  0.00000000000E+00 0.  1.
         14    1    4    4    0    0  0.94736339556E+02 -0.26879560843E+02  0.45306599679E+02  0.10839821400E+03  0.00000000000E+00 0. -1.
        -13    1    3    3    0    0  0.29290582721E+02  0.13127504148E+02  0.64939314102E+02  0.72438830177E+02  0.00000000000E+00 0.  1.
         13    1    3    3    0    0 -0.19479250969E+02  0.15239090705E+02 -0.21646166559E+02  0.32866816556E+02  0.00000000000E+00 0. -1.
         21    1    1    2  503  502 -0.39235553734E+02  0.29453257817E+02 -0.22531838068E+02  0.53987098455E+02  0.00000000000E+00 0.  1.
          1    1    1    2  501    0 -0.70328672368E+02 -0.58853204178E+02 -0.71332513979E+02  0.11618153618E+03  0.00000000000E+00 0. -1.
<scales pt_clust_5="13000.00000" pt_clust_6="13000.00000" pt_clust_7="13000.00000" pt_clust_8="13000.00000" pt_clust_9="49.06040" pt_clust_10="92.35762"></scales>
<clustering>
<clus scale="   49.060">  2  9  1 -1</clus>
<clus scale="   81.027">  5  6 -1 -1</clus>
<clus scale="   91.181">  7  8 -1 -1</clus>
<clus scale="   97.262">  2  7  1 -1</clus>
<clus scale="   92.358">  1 10  2 -1</clus>
<clus scale="   92.358">  1  5  2 -1</clus>
</clustering>
</event>
<event>
10    4  0.7204077E-005  0.1255114E+03  0.7546771E-02  0.1239745E+00
         -3   -1    0    0    0  501 -0.00000000000E+00  0.00000000000E+00  0.77204222336E+02  0.77204222336E+02  0.00000000000E+00 0.  1.
         21   -1    0    0  503  502  0.00000000000E+00 -0.00000000000E+00 -0.56238303393E+03  0.56238303393E+03  0.00000000000E+00 0. -1.
         24    2    1    2    0    0  0.66299702514E+02 -0.10243416358E+02 -0.10041923872E+03  0.14200718652E+03  0.74709031481E+02 0.  0.
         23    2    1    2    0    0 -0.13786853917E+03 -0.26822539857E+02 -0.29682293301E+03  0.34141852308E+03  0.93464279845E+02 0.  0.
        -13    1    3    3    0    0  0.57229434273E+02 -0.18961801927E+02 -0.11050582832E+03  0.12588207248E+03  0.00000000000E+00 0.  1.
         14    1    3    3    0    0  0.90702682411E+01  0.87183855692E+01  0.10086589599E+02  0.16125114035E+02  0.00000000000E+00 0. -1.
        -13    1    4    4    0    0 -0.42582324842E+02  0.29021779820E+02 -0.14339271847E+03  0.15237122367E+03  0.00000000000E+00 0.  1.
         13    1    4    4    0    0 -0.95286214330E+02 -0.55844319677E+02 -0.15343021453E+03  0.18904729941E+03  0.00000000000E+00 0. -1.
         21    1    1    2  503  501 -0.12239383090E+02 -0.20326689498E+02 -0.33200425002E+01  0.23958286386E+02  0.00000000000E+00 0.  1.
         -4    1    1    2    0  502  0.83808219748E+02  0.57392645713E+02 -0.84616597369E+02  0.13220326028E+03  0.00000000000E+00 0.  1.
<scales pt_clust_5="13000.00000" pt_clust_6="13000.00000" pt_clust_7="13000.00000" pt_clust_8="13000.00000" pt_clust_9="23.72713" pt_clust_10="93.96375"></scales>
<clustering>
<clus scale="   23.727">  1  9  2 -1</clus>
<clus scale="   74.709">  5  6 -1 -1</clus>
<clus scale="   93.464">  7  8 -1 -1</clus>
<clus scale="   93.964">  2 10  1 -1</clus>
<clus scale="  112.245">  1  5  2 -1</clus>
<clus scale="   93.964">  2  5  1 -1</clus>
</clustering>
</event>
<event>
10    4  0.7204077E-005  0.9239340E+02  0.7546771E-02  0.1304270E+00
          2   -1    0    0  503    0 -0.00000000000E+00  0.00000000000E+00  0.43753625861E+03  0.43753625861E+03  0.00000000000E+00 0. -1.
         21   -1    0    0  501  502  0.00000000000E+00 -0.00000000000E+00 -0.54903280013E+02  0.54903280013E+02  0.00000000000E+00 0.  1.
         24    2    1    2    0    0 -0.13090632119E+02  0.10111537425E+02  0.26205036564E+03  0.27433381266E+03  0.79467218391E+02 0.  0.
         23    2    1    2    0    0  0.10997541264E+02 -0.64722565005E+01  0.29777956552E+02  0.96602312459E+02  0.91007934039E+02 0.  0.
        -13    1    3    3    0    0 -0.36209308889E+02 -0.93916274123E+01  0.65163355450E+02  0.75137072136E+02  0.00000000000E+00 0.  1.
         14    1    3    3    0    0  0.23118676770E+02  0.19503164837E+02  0.19688701019E+03  0.19919674053E+03  0.00000000000E+00 0. -1.
        -13    1    4    4    0    0 -0.17607897117E+01  0.35979947286E+02  0.37057209335E+02  0.51680690309E+02  0.00000000000E+00 0. -1.
         13    1    4    4    0    0  0.12758330975E+02 -0.42452203786E+02 -0.72792527826E+01  0.44921622151E+02  0.00000000000E+00 0.  1.
         21    1    1    2  503  502 -0.27582616980E+02 -0.19546282674E+02  0.12112546588E+02  0.35910607217E+02  0.00000000000E+00 0. -1.
          1    1    1    2  501    0  0.29675707835E+02  0.15907001750E+02  0.78692109812E+02  0.85592806280E+02  0.00000000000E+00 0. -1.
<scales pt_clust_5="13000.00000" pt_clust_6="13000.00000" pt_clust_7="13000.00000" pt_clust_8="13000.00000" pt_clust_9="26.09773" pt_clust_10="33.67019"></scales>
<clustering>
<clus scale="   33.670">  2 10  1 -1</clus>
<clus scale="   26.098">  2  9  1 -1</clus>
<clus scale="   79.467">  5  6 -1 -1</clus>
<clus scale="   81.050">  1  5  2 -1</clus>
<clus scale="   91.008">  7  8 -1 -1</clus>
<clus scale="   33.670">  2  5  1 -1</clus>
</clustering>
</event>
<event>
10    4  0.7204077E-005  0.1621289E+03  0.7546771E-02  0.1191990E+00
          2   -1    0    0  503    0 -0.00000000000E+00  0.00000000000E+00  0.44197143699E+03  0.44197143699E+03  0.00000000000E+00 0. -1.
         21   -1    0    0  501  502  0.00000000000E+00 -0.00000000000E+00 -0.20432484485E+03  0.20432484485E+03  0.00000000000E+00 0. -1.
         24    2    1    2    0    0 -0.81634208957E+02 -0.90913977873E+02  0.21022885556E+03  0.25644212445E+03  0.81467146979E+02 0.  0.
         23    2    1    2    0    0  0.12524097192E+03 -0.62930308670E+02  0.32229190920E+02  0.16950341079E+03  0.89705968158E+02 0.  0.
        -11    1    3    3    0    0 -0.28838712095E+02  0.11804832539E+02  0.39342120358E+02  0.50187925050E+02  0.00000000000E+00 0.  1.
         12    1    3    3    0    0 -0.52795496862E+02 -0.10271881041E+03  0.17088673521E+03  0.20625419940E+03  0.00000000000E+00 0. -1.
        -11    1    4    4    0    0  0.14792173830E+02 -0.16665197288E+02  0.43856733643E+02  0.49192990285E+02  0.00000000000E+00 0.  1.
         11    1    4    4    0    0  0.11044879809E+03 -0.46265111382E+02 -0.11627542724E+02  0.12031042050E+03  0.00000000000E+00 0. -1.
         21    1    1    2  503  502  0.18815907176E+02  0.21877184665E+02 -0.58158023205E+02  0.64923071669E+02  0.00000000000E+00 0.  1.
          1    1    1    2  501    0 -0.62422670140E+02  0.13196710188E+03  0.53346568865E+02  0.15542767493E+03  0.00000000000E+00 0. -1.
<scales pt_clust_5="13000.00000" pt_clust_6="13000.00000" pt_clust_7="13000.00000" pt_clust_8="13000.00000" pt_clust_9="28.85567" pt_clust_10="135.05047"></scales>
<clustering>
<clus scale="   28.856">  2  9  1 -1</clus>
<clus scale="   81.467">  5  6 -1 -1</clus>
<clus scale="   89.706">  7  8 -1 -1</clus>
<clus scale="  142.994">  1  5  2 -1</clus>
<clus scale="  135.050">  2 10  1 -1</clus>
<clus scale="   28.856">  2  5  1 -1</clus>
</clustering>
</event>
<event>
10    4  0.7204077E-005  0.9700019E+02  0.7546771E-02  0.1293847E+00
          2   -1    0    0  503    0 -0.00000000000E+00  0.00000000000E+00  0.38638464079E+03  0.38638464079E+03  0.00000000000E+00 0. -1.
         21   -1    0    0  501  502  0.00000000000E+00 -0.00000000000E+00 -0.12783228156E+03  0.12783228156E+03  0.00000000000E+00 0. -1.
         23    2    1    2    0    0  0.37556891414E+02  0.12619911932E+01  0.30372749832E+03  0.31943703779E+03  0.91528766843E+02 0.  0.
         24    2    1    2    0    0 -0.84509481525E+01  0.28295462050E+02  0.23717738283E+02  0.87247219757E+02  0.78597039059E+02 0.  0.
        -13    1    4    4    0    0  0.50330880517E+00 -0.27420776189E+02  0.57204277925E+01  0.28015631006E+02  0.00000000000E+00 0.  1.
         14    1    4    4    0    0 -0.89542569577E+01  0.55716238238E+02  0.17997310490E+02  0.59231588751E+02  0.00000000000E+00 0. -1.
        -13    1    3    3    0    0  0.18347343774E+01  0.40890649647E+02  0.18174351016E+03  0.18629577280E+03  0.00000000000E+00 0.  1.
         13    1    3    3    0    0  0.35722157036E+02 -0.39628658454E+02  0.12198398816E+03  0.13314126499E+03  0.00000000000E+00 0. -1.
         21    1    1    2  503  502  0.22527505167E+02  0.10221264521E+01 -0.19365387976E+02  0.29724593908E+02  0.00000000000E+00 0.  1.
          1    1    1    2  501    0 -0.51633448428E+02 -0.30579579695E+02 -0.49527489391E+02  0.77808070894E+02  0.00000000000E+00 0. -1.
<scales pt_clust_5="13000.00000" pt_clust_6="13000.00000" pt_clust_7="13000.00000" pt_clust_8="13000.00000" pt_clust_9="22.55068" pt_clust_10="48.18530"></scales>
<clustering>
<clus scale="   22.551">  2  9  1 -1</clus>
<clus scale="   48.185">  2 10  1 -1</clus>
<clus scale="   78.597">  5  6 -1 -1</clus>
<clus scale="   84.906">  2  5  1 -1</clus>
<clus scale="   91.529">  7  8 -1 -1</clus>
<clus scale="   22.551">  2  5  1 -1</clus>
</clustering>
</event>
<event>
10    4  0.7204077E-005  0.9926079E+02  0.7546771E-02  0.1286053E+00
         -1   -1    0    0    0  501 -0.00000000000E+00  0.00000000000E+00  0.37923842794E+03  0.37923842794E+03  0.00000000000E+00 0.  1.
         21   -1    0    0  503  502  0.00000000000E+00 -0.00000000000E+00 -0.66333634680E+02  0.66333634680E+02  0.00000000000E+00 0.  1.
         23    2    1    2    0    0  0.28733162873E+02 -0.26512690934E+02  0.15758336667E+03  0.18541230298E+03  0.89535954876E+02 0.  0.
         24    2    1    2    0    0 -0.36270481255E+02  0.32898921140E+02  0.76146192053E+02  0.12152098402E+03  0.81063062926E+02 0.  0.
        -11    1    4    4    0    0 -0.61428173959E+02  0.13425126697E+02  0.51516336248E+02  0.81287068364E+02  0.00000000000E+00 0.  1.
         12    1    4    4    0    0  0.25157692704E+02  0.19473794443E+02  0.24629855805E+02  0.40233915658E+02  0.00000000000E+00 0. -1.
        -11    1    3    3    0    0 -0.32100740736E+02 -0.44072345432E+01  0.62329051078E+02  0.70248073855E+02  0.00000000000E+00 0. -1.
         11    1    3    3    0    0  0.60833903610E+02 -0.22105456391E+02  0.95254315595E+02  0.11516422913E+03  0.00000000000E+00 0.  1.
         21    1    1    2  503  501 -0.13720680774E+01 -0.59425913024E+02  0.34551317956E+02  0.68754020115E+02  0.00000000000E+00 0.  1.
         -2    1    1    2    0  502  0.89093864587E+01  0.53039682818E+02  0.44623916576E+02  0.69884755498E+02  0.00000000000E+00 0.  1.
<scales pt_clust_5="13000.00000" pt_clust_6="13000.00000" pt_clust_7="13000.00000" pt_clust_8="13000.00000" pt_clust_9="42.56108" pt_clust_10="53.78276"></scales>
<clustering>
<clus scale="   53.783">  2 10  1 -1</clus>
<clus scale="   42.561">  2  9  1 -1</clus>
<clus scale="   81.063">  5  6 -1 -1</clus>
<clus scale="   89.536">  7  8 -1 -1</clus>
<clus scale="   91.691">  2  5  1 -1</clus>
<clus scale="   53.783">  2  5  1 -1</clus>
</clustering>
</event>
<event>
10    4  0.7204077E-005  0.1063898E+03  0.7546771E-02  0.1271555E+00
          2   -1    0    0  503    0 -0.00000000000E+00  0.00000000000E+00  0.78581836407E+03  0.78581836407E+03  0.00000000000E+00 0. -1.
         21   -1    0    0  501  502  0.00000000000E+00 -0.00000000000E+00 -0.10594143487E+03  0.10594143487E+03  0.00000000000E+00 0.  1.
         23    2    1    2    0    0 -0.59026424865E+02  0.33085407046E+02  0.56984231335E+03  0.58096174708E+03  0.90650573612E+02 0.  0.
         24    2    1    2    0    0  0.45281808546E+01 -0.35915629698E+02  0.11678805762E+03  0.14658735663E+03  0.80857688832E+02 0.  0.
        -13    1    4    4    0    0 -0.17376743669E+02 -0.12661390891E+02 -0.38051221709E+01  0.21834399341E+02  0.00000000000E+00 0.  1.
         14    1    4    4    0    0  0.21904924524E+02 -0.23254238807E+02  0.12059317979E+03  0.12475295729E+03  0.00000000000E+00 0. -1.
        -13    1    3    3    0    0 -0.65828890351E+02 -0.12479102197E+02  0.34609928636E+03  0.35252501587E+03  0.00000000000E+00 0.  1.
         13    1    3    3    0    0  0.68024654854E+01  0.45564509242E+02  0.22374302699E+03  0.22843673121E+03  0.00000000000E+00 0. -1.
         21    1    1    2  503  502  0.34957574601E+02  0.84153395515E+01 -0.80260147354E+02  0.87946240483E+02  0.00000000000E+00 0.  1.
          1    1    1    2  501    0  0.19540669410E+02 -0.55851168993E+01  0.73506705582E+02  0.76264454743E+02  0.00000000000E+00 0. -1.
<scales pt_clust_5="13000.00000" pt_clust_6="13000.00000" pt_clust_7="13000.00000" pt_clust_8="13000.00000" pt_clust_9="50.82642" pt_clust_10="20.32318"></scales>
<clustering>
<clus scale="   20.323">  2 10  1 -1</clus>
<clus scale="   50.826">  2  9  1 -1</clus>
<clus scale="   80.858">  5  6 -1 -1</clus>
<clus scale="   90.651">  7  8 -1 -1</clus>
<clus scale="   98.180">  2  5  1 -1</clus>
<clus scale="   20.323">  2  5  1 -1</clus>
</clustering>
</event>
<event>
10    4  0.7204077E-005  0.9410192E+02  0.7546771E-02  0.1299913E+00
         21   -1    0    0  503  502  0.00000000000E+00  0.00000000000E+00  0.13205027701E+03  0.13205027701E+03  0.00000000000E+00 0. -1.
          2   -1    0    0  502    0 -0.00000000000E+00 -0.00000000000E+00 -0.23219947636E+03  0.23219947636E+03  0.00000000000E+00 0. -1.
         24    2    1    2    0    0  0.14467216860E+02 -0.82728294013E+01 -0.79422074089E+02  0.11400432010E+03  0.80071087666E+02 0.  0.
         23    2    1    2    0    0 -0.76009159261E+01 -0.85762556532E+02 -0.46753713742E+02  0.13400794384E+03  0.91428820603E+02 0.  0.
        -11    1    3    3    0    0  0.65235484914E+01 -0.34127346911E+02 -0.79712079587E+02  0.86955437577E+02  0.00000000000E+00 0.  1.
         12    1    3    3    0    0  0.79436683681E+01  0.25854517510E+02  0.29000549837E+00  0.27048882528E+02  0.00000000000E+00 0. -1.
        -13    1    4    4    0    0  0.14569424549E+02 -0.81249103580E+02 -0.64901190133E+02  0.10500404490E+03  0.00000000000E+00 0. -1.
         13    1    4    4    0    0 -0.22170340475E+02 -0.45134529523E+01  0.18147476390E+02  0.29003898939E+02  0.00000000000E+00 0.  1.
         21    1    1    2  503  501  0.31043438022E+01  0.33549898036E+02  0.41064645618E+02  0.53118148767E+02  0.00000000000E+00 0. -1.
          1    1    1    2  501    0 -0.99706447356E+01  0.60485487898E+02 -0.15038057135E+02  0.63119340658E+02  0.00000000000E+00 0. -1.
<scales pt_clust_5="13000.00000" pt_clust_6="13000.00000" pt_clust_7="13000.00000" pt_clust_8="13000.00000" pt_clust_9="33.69321" pt_clust_10="70.56723"></scales>
<clustering>
<clus scale="   33.693">  1  9  2 -1</clus>
<clus scale="   70.567">  1 10  2 -1</clus>
<clus scale="   80.071">  5  6 -1 -1</clus>
<clus scale="   83.110">  2  5  1 -1</clus>
<clus scale="   91.429">  7  8 -1 -1</clus>
<clus scale="   33.693">  1  5  2 -1</clus>
</clustering>
</event>
<event>
10    4  0.8540356E-005  0.4022355E+03  0.7546771E-02  0.1061275E+00
         21   -1    0    0  501  502  0.00000000000E+00  0.00000000000E+00  0.11223872001E+04  0.11223872001E+04  0.00000000000E+00 0. -1.
          4   -1    0    0  503    0 -0.00000000000E+00 -0.00000000000E+00 -0.84769728001E+03  0.84769728001E+03  0.00000000000E+00 0. -1.
         23    2    1    2    0    0  0.17865153829E+03  0.10845123275E+03  0.27693119139E+03  0.35891281803E+03  0.91921075733E+02 0.  0.
         24    2    1    2    0    0 -0.39753416764E+03 -0.43361834577E+03 -0.62751763051E+03  0.86337690985E+03  0.74719660261E+02 0.  0.
        -11    1    4    4    0    0 -0.16714725542E+02 -0.34981590693E+02 -0.22384519996E+02  0.44767850885E+02  0.00000000000E+00 0.  1.
         12    1    4    4    0    0 -0.38081944210E+03 -0.39863675508E+03 -0.60513311051E+03  0.81860905897E+03  0.00000000000E+00 0. -1.
        -13    1    3    3    0    0  0.68590435965E+02  0.85303592969E+02  0.17883527158E+03  0.20967452216E+03  0.00000000000E+00 0. -1.
         13    1    3    3    0    0  0.11006110233E+03  0.23147639782E+02  0.98095919806E+02  0.14923829588E+03  0.00000000000E+00 0.  1.
         21    1    1    2  503  502  0.37651831657E+02  0.10856248558E+02  0.11642255331E+03  0.12284026001E+03  0.00000000000E+00 0. -1.
          3    1    1    2  501    0  0.18123079769E+03  0.31431086446E+03  0.50885380585E+03  0.62495449217E+03  0.00000000000E+00 0. -1.
<scales pt_clust_5="13000.00000" pt_clust_6="13000.00000" pt_clust_7="13000.00000" pt_clust_8="13000.00000" pt_clust_9="39.18569" pt_clust_10="395.23462"></scales>
<clustering>
<clus scale="   39.186">  1  9  2 -1</clus>
<clus scale="   74.720">  5  6 -1 -1</clus>
<clus scale="   91.921">  7  8 -1 -1</clus>
<clus scale="  239.361">  2  7  1 -1</clus>
<clus scale="  395.235">  1 10  2 -1</clus>
<clus scale="   39.186">  1  5  2 -1</clus>
</clustering>
</event>
<event>
10    4  0.1101474E-004  0.3445152E+03  0.7546771E-02  0.1082792E+00
          2   -1    0    0  503    0 -0.00000000000E+00  0.00000000000E+00  0.22459634054E+04  0.22459634054E+04  0.00000000000E+00 0. -1.
         21   -1    0    0  501  502  0.00000000000E+00 -0.00000000000E+00 -0.13961113716E+03  0.13961113716E+03  0.00000000000E+00 0. -1.
         23    2    1    2    0    0 -0.87630919185E+02 -0.16182476194E+03  0.39122585118E+03  0.44206813351E+03  0.92196184624E+02 0.  0.
         24    2    1    2    0    0  0.36222681161E+03  0.44704627136E+02  0.28275074880E+03  0.46905862148E+03  0.82832588419E+02 0.  0.
        -11    1    4    4    0    0  0.17083992900E+02 -0.12388712073E+02  0.33992548339E+01  0.21375170962E+02  0.00000000000E+00 0.  1.
         12    1    4    4    0    0  0.34514281871E+03  0.57093339209E+02  0.27935149397E+03  0.44768345052E+03  0.00000000000E+00 0. -1.
        -13    1    3    3    0    0 -0.20698709631E+02 -0.63259995105E+02  0.24269702511E+03  0.25165871643E+03  0.00000000000E+00 0.  1.
         13    1    3    3    0    0 -0.66932209555E+02 -0.98564766833E+02  0.14852882608E+03  0.19040941708E+03  0.00000000000E+00 0. -1.
         21    1    1    2  503  502 -0.11995951317E+02 -0.31563092829E+02  0.56110963605E+02  0.65487188928E+02  0.00000000000E+00 0. -1.
          1    1    1    2  501    0 -0.26259994110E+03  0.14868322763E+03  0.13762647047E+04  0.14089605987E+04  0.00000000000E+00 0. -1.
<scales pt_clust_5="13000.00000" pt_clust_6="13000.00000" pt_clust_7="13000.00000" pt_clust_8="13000.00000" pt_clust_9="33.76584" pt_clust_10="334.40935"></scales>
<clustering>
<clus scale="   33.766">  2  9  1 -1</clus>
<clus scale="   82.833">  5  6 -1 -1</clus>
<clus scale="   92.196">  7  8 -1 -1</clus>
<clus scale="  211.490">  1  7  2 -1</clus>
<clus scale="  334.409">  2 10  1 -1</clus>
<clus scale="   33.766">  2  5  1 -1</clus>
</clustering>
</event>
<event>
10    4  0.7204077E-005  0.1668726E+03  0.7546771E-02  0.1201942E+00
          2   -1    0    0  503    0 -0.00000000000E+00  0.00000000000E+00  0.15835792253E+04  0.15835792253E+04  0.00000000000E+00 0. -1.
         21   -1    0    0  501  502  0.00000000000E+00 -0.00000000000E+00 -0.49720946621E+02  0.49720946621E+02  0.00000000000E+00 0. -1.
         23    2    1    2    0    0 -0.15764199978E+02 -0.69395255458E+02  0.40798778074E+03  0.42373470808E+03  0.89626235615E+02 0.  0.
         24    2    1    2    0    0 -0.54363545317E+02  0.14061049774E+03  0.19051295753E+03  0.25505457124E+03  0.77659128165E+02 0.  0.
        -13    1    4    4    0    0  0.15839361607E+02  0.60568247934E+02  0.80227520998E+02  0.10176371239E+03  0.00000000000E+00 0.  1.
         14    1    4    4    0    0 -0.70202906924E+02  0.80042249808E+02  0.11028543653E+03  0.15329085885E+03  0.00000000000E+00 0. -1.
        -13    1    3    3    0    0  0.35398965825E+02 -0.28658174112E+02  0.22087009660E+03  0.22551713304E+03  0.00000000000E+00 0.  1.
         13    1    3    3    0    0 -0.51163165803E+02 -0.40737081346E+02  0.18711768415E+03  0.19821757503E+03  0.00000000000E+00 0. -1.
         21    1    1    2  503  502  0.34926261221E+00  0.49960454230E+02  0.27665619674E+03  0.28113132192E+03  0.00000000000E+00 0. -1.
          1    1    1    2  501    0  0.69778482682E+02 -0.12117569651E+03  0.65870134363E+03  0.67337957065E+03  0.00000000000E+00 0. -1.
<scales pt_clust_5="13000.00000" pt_clust_6="13000.00000" pt_clust_7="13000.00000" pt_clust_8="13000.00000" pt_clust_9="49.96168" pt_clust_10="147.70092"></scales>
<clustering>
<clus scale="   49.962">  1  9  2 -1</clus>
<clus scale="   77.659">  5  6 -1 -1</clus>
<clus scale="   89.626">  7  8 -1 -1</clus>
<clus scale="  105.532">  1  7  2 -1</clus>
<clus scale="  147.701">  2 10  1 -1</clus>
<clus scale="  147.701">  2  5  1 -1</clus>
</clustering>
</event>
<event>
10    4  0.7204077E-005  0.3483600E+03  0.7546771E-02  0.1063290E+00
         21   -1    0    0  503  502  0.00000000000E+00  0.00000000000E+00  0.33351875844E+03  0.33351875844E+03  0.00000000000E+00 0. -1.
          2   -1    0    0  502    0 -0.00000000000E+00 -0.00000000000E+00 -0.13567635955E+04  0.13567635955E+04  0.00000000000E+00 0. -1.
         24    2    1    2    0    0  0.79334443929E+02  0.10627789179E+03 -0.52422722474E+03  0.54581264951E+03  0.74218063418E+02 0.  0.
         23    2    1    2    0    0  0.11007483538E+03  0.16542873493E+03 -0.42902292460E+03  0.48153566993E+03  0.91284149031E+02 0.  0.
        -11    1    3    3    0    0  0.44875065087E+02  0.16807441939E+02 -0.10003345829E+03  0.11091868350E+03  0.00000000000E+00 0.  1.
         12    1    3    3    0    0  0.34459378842E+02  0.89470449850E+02 -0.42419376644E+03  0.43489396601E+03  0.00000000000E+00 0. -1.
        -13    1    4    4    0    0  0.81518045167E+02  0.68330629322E+02 -0.14363493889E+03  0.17873237609E+03  0.00000000000E+00 0. -1.
         13    1    4    4    0    0  0.28556790217E+02  0.97098105608E+02 -0.28538798570E+03  0.30280329384E+03  0.00000000000E+00 0.  1.
         21    1    1    2  503  501 -0.30572400604E+02 -0.85319520840E+02  0.24657392425E+03  0.26270285958E+03  0.00000000000E+00 0. -1.
          1    1    1    2  501    0 -0.15883687871E+03 -0.18638710588E+03 -0.31656861195E+03  0.40023117488E+03  0.00000000000E+00 0. -1.
<scales pt_clust_5="13000.00000" pt_clust_6="13000.00000" pt_clust_7="13000.00000" pt_clust_8="13000.00000" pt_clust_9="90.63163" pt_clust_10="290.33835"></scales>
<clustering>
<clus scale="   74.218">  5  6 -1 -1</clus>
<clus scale="   90.632">  1  9  2 -1</clus>
<clus scale="   91.284">  7  8 -1 -1</clus>
<clus scale="  123.372">  5  7 -1 -1</clus>
<clus scale="  290.338">  1 10  2 -1</clus>
<clus scale="   90.632">  1  5  2 -1</clus>
</clustering>
</event>
<event>
10    4  0.7204077E-005  0.1309878E+03  0.7546771E-02  0.1237221E+00
         21   -1    0    0  501  502  0.00000000000E+00  0.00000000000E+00  0.24036146833E+02  0.24036146833E+02  0.00000000000E+00 0. -1.
         -1   -1    0    0    0  501 -0.00000000000E+00 -0.00000000000E+00 -0.18154630923E+04  0.18154630923E+04  0.00000000000E+00 0.  1.
         24    2    1    2    0    0  0.61871265977E+02 -0.56257080971E+02 -0.85480684538E+03  0.86161653491E+03  0.68522971340E+02 0.  0.
         23    2    1    2    0    0 -0.76630788798E+02 -0.94869641203E+01 -0.27163541586E+03  0.30132101135E+03  0.10510124857E+03 0.  0.
        -13    1    3    3    0    0  0.45031446815E+02  0.10307499449E+01 -0.26566869064E+03  0.26946010249E+03  0.00000000000E+00 0.  1.
         14    1    3    3    0    0  0.16839819162E+02 -0.57287830916E+02 -0.58913815474E+03  0.59215643241E+03  0.00000000000E+00 0. -1.
        -13    1    4    4    0    0 -0.47693030456E+02 -0.53633529797E+02 -0.19887869367E+03  0.21143300468E+03  0.00000000000E+00 0.  1.
         13    1    4    4    0    0 -0.28937758342E+02  0.44146565677E+02 -0.72756722190E+02  0.89888006668E+02  0.00000000000E+00 0. -1.
         21    1    1    2  503  502 -0.21344678562E+02 -0.12771106174E+02 -0.53486955674E+02  0.58987718070E+02  0.00000000000E+00 0. -1.
         -2    1    1    2    0  503  0.36104201382E+02  0.78515151265E+02 -0.61149772851E+03  0.61757397477E+03  0.00000000000E+00 0.  1.
<scales pt_clust_5="13000.00000" pt_clust_6="13000.00000" pt_clust_7="13000.00000" pt_clust_8="13000.00000" pt_clust_9="24.87361" pt_clust_10="83.51365"></scales>
<clustering>
<clus scale="   24.874">  1  9  2 -1</clus>
<clus scale="   68.523">  5  6 -1 -1</clus>
<clus scale="   83.514">  1 10  2 -1</clus>
<clus scale="  103.956">  2  5  1 -1</clus>
<clus scale="  105.101">  7  8 -1 -1</clus>
<clus scale="   24.874">  1  5  2 -1</clus>
</clustering>
</event>
<event>
10    4  0.7204077E-005  0.2207579E+03  0.7546771E-02  0.1134194E+00
          2   -1    0    0  502    0 -0.00000000000E+00  0.00000000000E+00  0.17354197979E+04  0.17354197979E+04  0.00000000000E+00 0. -1.
         21   -1    0    0  503  502  0.00000000000E+00 -0.00000000000E+00 -0.72040421015E+02  0.72040421015E+02  0.00000000000E+00 0.  1.
         23    2    1    2    0    0  0.23793742547E+02  0.17053105575E+03  0.68891707007E+03  0.71609659276E+03  0.92415461754E+02 0.  0.
         24    2    1    2    0    0  0.39056259922E+01 -0.28699421943E+03  0.50771089742E+03  0.58877429494E+03  0.80646631237E+02 0.  0.
        -13    1    4    4    0    0  0.27755908871E+02 -0.22057903222E+03  0.42813420965E+03  0.48241517534E+03  0.00000000000E+00 0.  1.
         14    1    4    4    0    0 -0.23850282878E+02 -0.66415187212E+02  0.79576687772E+02  0.10635911960E+03  0.00000000000E+00 0. -1.
        -11    1    3    3    0    0 -0.19732011203E+02  0.14170633860E+03  0.49260794315E+03  0.51296454490E+03  0.00000000000E+00 0.  1.
         11    1    3    3    0    0  0.43525753750E+02  0.28824717154E+02  0.19630912692E+03  0.20313204787E+03  0.00000000000E+00 0. -1.
         21    1    1    2  503  501  0.30719291165E+02 -0.35182274541E+01  0.21218781387E+02  0.37500526098E+02  0.00000000000E+00 0. -1.
          1    1    1    2  501    0 -0.58418659704E+02  0.11998139113E+03  0.44553262804E+03  0.46508880514E+03  0.00000000000E+00 0. -1.
<scales pt_clust_5="13000.00000" pt_clust_6="13000.00000" pt_clust_7="13000.00000" pt_clust_8="13000.00000" pt_clust_9="30.92010" pt_clust_10="130.96666"></scales>
<clustering>
<clus scale="   30.920">  2  9  1 -1</clus>
<clus scale="   80.647">  5  6 -1 -1</clus>
<clus scale="   92.415">  7  8 -1 -1</clus>
<clus scale="  130.967">  2 10  1 -1</clus>
<clus scale="  216.096">  2  5  1 -1</clus>
<clus scale="   30.920">  2  5  1 -1</clus>
</clustering>
</event>
<event>
10    4  0.7204077E-005  0.1553134E+03  0.7546771E-02  0.1211402E+00
         21   -1    0    0  501  502  0.00000000000E+00  0.00000000000E+00  0.11057833899E+03  0.11057833899E+03  0.00000000000E+00 0.  1.
          2   -1    0    0  503    0 -0.00000000000E+00 -0.00000000000E+00 -0.72689516221E+03  0.72689516221E+03  0.00000000000E+00 0. -1.
         24    2    1    2    0    0  0.40168057290E+02  0.43287120073E+02 -0.30700632047E+02  0.10454496940E+03  0.80621797469E+02 0.  0.
         23    2    1    2    0    0  0.82588273128E+02 -0.64458677681E+02 -0.33635482785E+03  0.36336118918E+03  0.89000222477E+02 0.  0.
        -13    1    3    3    0    0  0.48726957814E+02  0.34689601129E+02  0.11261272508E+02  0.60864612895E+02  0.00000000000E+00 0.  1.
         14    1    3    3    0    0 -0.85589005237E+01  0.85975189434E+01 -0.41961904555E+02  0.43680356501E+02  0.00000000000E+00 0. -1.
        -11    1    4    4    0    0  0.60148995313E+02 -0.85070876881E+02 -0.22567960494E+03  0.24856838056E+03  0.00000000000E+00 0.  1.
         11    1    4    4    0    0  0.22439277815E+02  0.20612199200E+02 -0.11067522291E+03  0.11479280862E+03  0.00000000000E+00 0. -1.
         21    1    1    2  503  502  0.30065943689E+02 -0.21787071173E+01  0.34874458194E+02  0.46097023428E+02  0.00000000000E+00 0.  1.
          1    1    1    2  501    0 -0.15282227411E+03  0.23350264725E+02 -0.28413582152E+03  0.32347031919E+03  0.00000000000E+00 0. -1.
<scales pt_clust_5="13000.00000" pt_clust_6="13000.00000" pt_clust_7="13000.00000" pt_clust_8="13000.00000" pt_clust_9="30.14478" pt_clust_10="127.28401"></scales>
<clustering>
<clus scale="   30.145">  1  9  2 -1</clus>
<clus scale="   80.622">  5  6 -1 -1</clus>
<clus scale="   89.000">  7  8 -1 -1</clus>
<clus scale="  106.828">  2  5  1 -1</clus>
<clus scale="  127.284">  1 10  2 -1</clus>
<clus scale="   30.145">  1  5  2 -1</clus>
</clustering>
</event>
<event>
10    4  0.7204077E-005  0.1238497E+03  0.7546771E-02  0.1245501E+00
         21   -1    0    0  503  502  0.00000000000E+00  0.00000000000E+00  0.45310133817E+02  0.45310133817E+02  0.00000000000E+00 0. -1.
          2   -1    0    0  502    0 -0.00000000000E+00 -0.00000000000E+00 -0.90615357516E+03  0.90615357516E+03  0.00000000000E+00 0. -1.
         23    2    1    2    0    0 -0.40818086916E+02  0.17510699273E+02 -0.39886018835E+03  0.41203143637E+03  0.93315132179E+02 0.  0.
         24    2    1    2    0    0 -0.52119584294E+02  0.60034287016E+02 -0.14156347628E+03  0.18101604761E+03  0.80037647356E+02 0.  0.
        -13    1    4    4    0    0  0.14439309678E+02  0.25966661862E+02 -0.13305323672E+02  0.32554459452E+02  0.00000000000E+00 0.  1.
         14    1    4    4    0    0 -0.66558893972E+02  0.34067625155E+02 -0.12825815260E+03  0.14846158816E+03  0.00000000000E+00 0. -1.
        -11    1    3    3    0    0 -0.58816577116E+02 -0.11284627284E+02 -0.32838919673E+03  0.33380562770E+03  0.00000000000E+00 0. -1.
         11    1    3    3    0    0  0.17998490201E+02  0.28795326558E+02 -0.70470991626E+02  0.78225808669E+02  0.00000000000E+00 0.  1.
         21    1    1    2  503  501 -0.20301603280E+02 -0.30755237909E+02 -0.56702290931E+02  0.67625361747E+02  0.00000000000E+00 0. -1.
          1    1    1    2  501    0  0.11323927449E+03 -0.46789748380E+02 -0.26371748579E+03  0.29079086325E+03  0.00000000000E+00 0. -1.
<scales pt_clust_5="13000.00000" pt_clust_6="13000.00000" pt_clust_7="13000.00000" pt_clust_8="13000.00000" pt_clust_9="36.85159" pt_clust_10="94.51318"></scales>
<clustering>
<clus scale="   36.852">  1  9  2 -1</clus>
<clus scale="   80.038">  5  6 -1 -1</clus>
<clus scale="   93.315">  7  8 -1 -1</clus>
<clus scale="  103.988">  2  7  1 -1</clus>
<clus scale="   94.513">  1 10  2 -1</clus>
<clus scale="   36.852">  1  5  2 -1</clus>
</clustering>
</event>
<event>
10    4  0.7204077E-005  0.2461685E+03  0.7546771E-02  0.1116358E+00
         21   -1    0    0  501  502  0.00000000000E+00  0.00000000000E+00  0.20034983165E+03  0.20034983165E+03  0.00000000000E+00 0. -1.
          2   -1    0    0  503    0 -0.00000000000E+00 -0.00000000000E+00 -0.10868907005E+04  0.10868907005E+04  0.00000000000E+00 0. -1.
         24    2    1    2    0    0 -0.19898048500E+03  0.61868575290E+02 -0.43884850084E+03  0.49299330276E+03  0.83865582126E+02 0.  0.
         23    2    1    2    0    0  0.21065589494E+03 -0.15330780723E+03 -0.48701920780E+03  0.56029291817E+03  0.94134242184E+02 0.  0.
        -13    1    3    3    0    0 -0.64413059030E+02  0.32903843347E+02 -0.24352859589E+03  0.25404307134E+03  0.00000000000E+00 0.  1.
         14    1    3    3    0    0 -0.13456742597E+03  0.28964731944E+02 -0.19531990495E+03  0.23895023142E+03  0.00000000000E+00 0. -1.
        -13    1    4    4    0    0  0.65603360144E+02 -0.17550737356E+02 -0.65738687026E+02  0.94516687499E+02  0.00000000000E+00 0.  1.
         13    1    4    4    0    0  0.14505253480E+03 -0.13575706988E+03 -0.42128052077E+03  0.46577623067E+03  0.00000000000E+00 0. -1.
         21    1    1    2  503  502 -0.90740576155E+02  0.50968633970E+02  0.84727341560E+02  0.13420274296E+03  0.00000000000E+00 0. -1.
          1    1    1    2  501    0  0.79065166216E+02  0.40470597974E+02 -0.45400501786E+02  0.99751568266E+02  0.00000000000E+00 0. -1.
<scales pt_clust_5="13000.00000" pt_clust_6="13000.00000" pt_clust_7="13000.00000" pt_clust_8="13000.00000" pt_clust_9="86.72703" pt_clust_10="88.82100"></scales>
<clustering>
<clus scale="   83.866">  5  6 -1 -1</clus>
<clus scale="   88.821">  1 10  2 -1</clus>
<clus scale="   86.727">  1  9  2 -1</clus>
<clus scale="   94.134">  7  8 -1 -1</clus>
<clus scale="  242.428">  2  5  1 -1</clus>
<clus scale="   88.821">  1  5  2 -1</clus>
</clustering>
</event>
<event>
10    4  0.7204077E-005  0.1631874E+03  0.7546771E-02  0.1210714E+00
          2   -1    0    0  503    0 -0.00000000000E+00  0.00000000000E+00  0.91497149256E+03  0.91497149256E+03  0.00000000000E+00 0. -1.
         21   -1    0    0  501  502  0.00000000000E+00 -0.00000000000E+00 -0.81522062634E+03  0.81522062634E+03  0.00000000000E+00 0. -1.
         23    2    1    2    0    0  0.88277291290E+01  0.21032135957E+02 -0.63380887351E+01  0.94538882520E+02  0.91526768733E+02 0.  0.
         24    2    1    2    0    0  0.72882555353E+02 -0.14352024204E+03  0.84033804855E+03  0.85921307234E+03  0.78543879974E+02 0.  0.
        -11    1    4    4    0    0 -0.13991497620E+02 -0.28981801327E+02  0.10013644888E+03  0.10518086902E+03  0.00000000000E+00 0.  1.
         12    1    4    4    0    0  0.86874052972E+02 -0.11453844071E+03  0.74020159967E+03  0.75403220332E+03  0.00000000000E+00 0. -1.
        -11    1    3    3    0    0 -0.53962232402E+00  0.42064971791E+02  0.29895255943E+02  0.51608907874E+02  0.00000000000E+00 0.  1.
         11    1    3    3    0    0  0.93673514531E+01 -0.21032835835E+02 -0.36233344678E+02  0.42929974646E+02  0.00000000000E+00 0. -1.
         21    1    1    2  503  502 -0.72380959600E+02 -0.14551415716E+02 -0.49573406355E+03  0.50120156502E+03  0.00000000000E+00 0. -1.
          1    1    1    2  501    0 -0.93293248815E+01  0.13703952180E+03 -0.23851503005E+03  0.27523859903E+03  0.00000000000E+00 0. -1.
<scales pt_clust_5="13000.00000" pt_clust_6="13000.00000" pt_clust_7="13000.00000" pt_clust_8="13000.00000" pt_clust_9="73.82917" pt_clust_10="143.04187"></scales>
<clustering>
<clus scale="   73.829">  2  9  1 -1</clus>
<clus scale="   78.544">  5  6 -1 -1</clus>
<clus scale="   91.527">  7  8 -1 -1</clus>
<clus scale="   93.460">  1  7  2 -1</clus>
<clus scale="  143.042">  2 10  1 -1</clus>
<clus scale="   73.829">  2  5  1 -1</clus>
</clustering>
</event>
<event>
10    4  0.7204077E-005  0.9293572E+02  0.7546771E-02  0.1302212E+00
         -1   -1    0    0    0  501 -0.00000000000E+00  0.00000000000E+00  0.28538761861E+03  0.28538761861E+03  0.00000000000E+00 0.  1.
         21   -1    0    0  501  502  0.00000000000E+00 -0.00000000000E+00 -0.82945034335E+02  0.82945034335E+02  0.00000000000E+00 0.  1.
         24    2    1    2    0    0  0.72004231438E+00 -0.16970895689E+02  0.94181794597E+02  0.12485194890E+03  0.80182722253E+02 0.  0.
         23    2    1    2    0    0  0.35820787441E+02  0.23197979210E+02  0.63956208295E+01  0.10044185067E+03  0.90699428594E+02 0.  0.
        -11    1    3    3    0    0  0.40233449621E+02 -0.47291581380E+01  0.43749891690E+02  0.59625065434E+02  0.00000000000E+00 0.  1.
         12    1    3    3    0    0 -0.39513407307E+02 -0.12241737551E+02  0.50431902907E+02  0.65226883462E+02  0.00000000000E+00 0. -1.
        -13    1    4    4    0    0  0.20729493066E+02 -0.13419570225E+02 -0.35205622280E+02  0.43002704426E+02  0.00000000000E+00 0.  1.
         13    1    4    4    0    0  0.15091294376E+02  0.36617549435E+02  0.41601243110E+02  0.57439146241E+02  0.00000000000E+00 0. -1.
         21    1    1    2  503  502  0.13412390958E+02  0.22368783211E+02  0.52019159772E-01  0.26081744565E+02  0.00000000000E+00 0.  1.
         -2    1    1    2    0  503 -0.49953220713E+02 -0.28595866732E+02  0.10181314969E+03  0.11695710882E+03  0.00000000000E+00 0.  1.
<scales pt_clust_5="13000.00000" pt_clust_6="13000.00000" pt_clust_7="13000.00000" pt_clust_8="13000.00000" pt_clust_9="26.08169" pt_clust_10="55.11272"></scales>
<clustering>
<clus scale="   26.082">  2  9  1 -1</clus>
<clus scale="   55.113">  2 10  1 -1</clus>
<clus scale="   80.183">  5  6 -1 -1</clus>
<clus scale="   82.704">  1  5  2 -1</clus>
<clus scale="   90.699">  7  8 -1 -1</clus>
<clus scale="   26.082">  2  5  1 -1</clus>
</clustering>
</event>
<event>
10    4  0.7204077E-005  0.1201121E+03  0.7546771E-02  0.1251104E+00
         21   -1    0    0  501  502  0.00000000000E+00  0.00000000000E+00  0.16708393928E+03  0.16708393928E+03  0.00000000000E+00 0.  1.
         -1   -1    0    0    0  501 -0.00000000000E+00 -0.00000000000E+00 -0.40249223258E+03  0.40249223258E+03  0.00000000000E+00 0.  1.
         23    2    1    2    0    0  0.31011963643E+02  0.46560498039E+02 -0.39309112810E+02  0.11514331438E+03  0.92645316284E+02 0.  0.
         24    2    1    2    0    0  0.20735318886E+02  0.72529768223E+02 -0.14358710183E+03  0.18082274229E+03  0.79931768334E+02 0.  0.
        -11    1    4    4    0    0 -0.89559269354E+01  0.61545316090E+02 -0.13402484476E+03  0.14775213559E+03  0.00000000000E+00 0.  1.
         12    1    4    4    0    0  0.29691245821E+02  0.10984452134E+02 -0.95622570769E+01  0.33070606700E+02  0.00000000000E+00 0. -1.
        -11    1    3    3    0    0 -0.15862989685E+02  0.25492998061E+02  0.20448020277E+02  0.36326972419E+02  0.00000000000E+00 0.  1.
         11    1    3    3    0    0  0.46874953328E+02  0.21067499978E+02 -0.59757133088E+02  0.78816341958E+02  0.00000000000E+00 0. -1.
         21    1    1    2  503  502 -0.28810171075E+02 -0.14528889111E+02  0.89863648527E+02  0.95480835264E+02  0.00000000000E+00 0.  1.
         -2    1    1    2    0  503 -0.22937111453E+02 -0.10456137715E+03 -0.14237572719E+03  0.17812927993E+03  0.00000000000E+00 0.  1.
<scales pt_clust_5="13000.00000" pt_clust_6="13000.00000" pt_clust_7="13000.00000" pt_clust_8="13000.00000" pt_clust_9="32.26631" pt_clust_10="89.65404"></scales>
<clustering>
<clus scale="   32.266">  1  9  2 -1</clus>
<clus scale="   79.932">  5  6 -1 -1</clus>
<clus scale="   92.645">  7  8 -1 -1</clus>
<clus scale="  101.898">  2  7  1 -1</clus>
<clus scale="   89.654">  1 10  2 -1</clus>
<clus scale="   32.266">  1  5  2 -1</clus>
</clustering>
</event>
<event>
10    4  0.7204077E-005  0.2331036E+03  0.7546771E-02  0.1156496E+00
          2   -1    0    0  502    0 -0.00000000000E+00  0.00000000000E+00  0.39694195384E+03  0.39694195384E+03  0.00000000000E+00 0. -1.
         21   -1    0    0  503  502  0.00000000000E+00 -0.00000000000E+00 -0.37305920729E+03  0.37305920729E+03  0.00000000000E+00 0. -1.
         24    2    1    2    0    0  0.66623102357E+02 -0.16959257640E+02  0.19820632406E+03  0.22585498653E+03  0.83656881693E+02 0.  0.
         23    2    1    2    0    0  0.12142649481E+03 -0.13755944748E+03 -0.42049465812E+01  0.20339026364E+03  0.87652281977E+02 0.  0.
        -11    1    3    3    0    0  0.24365028879E+02  0.22986177401E+02  0.21441827083E+02  0.39771483910E+02  0.00000000000E+00 0.  1.
         12    1    3    3    0    0  0.42258073478E+02 -0.39945435041E+02  0.17676449698E+03  0.18608350262E+03  0.00000000000E+00 0. -1.
        -13    1    4    4    0    0  0.39812734730E+02 -0.63513830046E+01  0.23117040098E+02  0.46473556520E+02  0.00000000000E+00 0.  1.
         13    1    4    4    0    0  0.81613760077E+02 -0.13120806447E+03 -0.27321986679E+02  0.15691670712E+03  0.00000000000E+00 0. -1.
         21    1    1    2  503  501 -0.26916810286E+02 -0.26942341416E+02 -0.67024667317E+02  0.77088977591E+02  0.00000000000E+00 0. -1.
          1    1    1    2  501    0 -0.16113278688E+03  0.18146104653E+03 -0.10309396362E+03  0.26366693336E+03  0.00000000000E+00 0. -1.
<scales pt_clust_5="13000.00000" pt_clust_6="13000.00000" pt_clust_7="13000.00000" pt_clust_8="13000.00000" pt_clust_9="38.08418" pt_clust_10="215.99626"></scales>
<clustering>
<clus scale="   38.084">  2  9  1 -1</clus>
<clus scale="   83.657">  5  6 -1 -1</clus>
<clus scale="   87.652">  7  8 -1 -1</clus>
<clus scale="  107.727">  1  5  2 -1</clus>
<clus scale="  215.996">  2 10  1 -1</clus>
<clus scale="   38.084">  2  5  1 -1</clus>
</clustering>
</event>
<event>
10    4  0.7204077E-005  0.3071293E+03  0.7546771E-02  0.1082058E+00
         21   -1    0    0  501  502  0.00000000000E+00  0.00000000000E+00  0.41975642082E+03  0.41975642082E+03  0.00000000000E+00 0.  1.
          2   -1    0    0  503    0 -0.00000000000E+00 -0.00000000000E+00 -0.14833978255E+04  0.14833978255E+04  0.00000000000E+00 0. -1.
         24    2    1    2    0    0 -0.19602397454E+03 -0.24150916757E+03 -0.78738268395E+03  0.85039397227E+03  0.80289105606E+02 0.  0.
         23    2    1    2    0    0  0.13777798986E+03  0.11122074808E+03  0.34118967693E+03  0.39478607124E+03  0.89960086209E+02 0.  0.
        -13    1    3    3    0    0 -0.41403193500E+02 -0.28456112983E+02 -0.20847934722E+03  0.21444722665E+03  0.00000000000E+00 0.  1.
         14    1    3    3    0    0 -0.15462078104E+03 -0.21305305459E+03 -0.57890333672E+03  0.63594674562E+03  0.00000000000E+00 0. -1.
        -13    1    4    4    0    0  0.22520087295E+02  0.67509681607E+01  0.45548196916E+01  0.23947364892E+02  0.00000000000E+00 0. -1.
         13    1    4    4    0    0  0.11525790256E+03  0.10446977992E+03  0.33663485724E+03  0.37083870635E+03  0.00000000000E+00 0.  1.
         21    1    1    2  503  502  0.54956588315E+02 -0.28433954709E+02 -0.10924947238E+03  0.12555542041E+03  0.00000000000E+00 0. -1.
          1    1    1    2  501    0  0.32893963676E+01  0.15872237420E+03 -0.50819892528E+03  0.53241878240E+03  0.00000000000E+00 0. -1.
<scales pt_clust_5="13000.00000" pt_clust_6="13000.00000" pt_clust_7="13000.00000" pt_clust_8="13000.00000" pt_clust_9="61.87662" pt_clust_10="149.86243"></scales>
<clustering>
<clus scale="   61.877">  2  9  1 -1</clus>
<clus scale="   80.289">  5  6 -1 -1</clus>
<clus scale="   89.960">  7  8 -1 -1</clus>
<clus scale="  149.862">  1 10  2 -1</clus>
<clus scale="  304.437">  2  5  1 -1</clus>
<clus scale="  149.862">  1  5  2 -1</clus>
</clustering>
</event>
<event>
10    4  0.1192135E-004  0.1459337E+03  0.7546771E-02  0.1230158E+00
         -3   -1    0    0    0  501 -0.00000000000E+00  0.00000000000E+00  0.96780797312E+02  0.96780797312E+02  0.00000000000E+00 0.  1.
         21   -1    0    0  503  502  0.00000000000E+00 -0.00000000000E+00 -0.10890670301E+04  0.10890670301E+04  0.00000000000E+00 0. -1.
         24    2    1    2    0    0 -0.15360884559E+02  0.25028611799E+02 -0.43828558771E+02  0.97713719465E+02  0.82247432937E+02 0.  0.
         23    2    1    2    0    0 -0.10130388044E+03  0.79689367296E+02 -0.88270474444E+03  0.89677984692E+03  0.91834397302E+02 0.  0.
        -13    1    3    3    0    0 -0.31230299361E+02 -0.21666910761E+02 -0.19543699742E+02  0.42740412021E+02  0.00000000000E+00 0.  1.
         14    1    3    3    0    0  0.15869414802E+02  0.46695522560E+02 -0.24284859028E+02  0.54973307444E+02  0.00000000000E+00 0. -1.
        -11    1    4    4    0    0 -0.13776876496E+02 -0.20830603348E+02 -0.13939393432E+03  0.14161350672E+03  0.00000000000E+00 0.  1.
         11    1    4    4    0    0 -0.87527003945E+02  0.10051997064E+03 -0.74331081012E+03  0.75516634020E+03  0.00000000000E+00 0. -1.
         21    1    1    2  503  501  0.18393252614E+02 -0.11370660976E+02 -0.50529739878E+02  0.54962335148E+02  0.00000000000E+00 0.  1.
         -4    1    1    2    0  502  0.98271512386E+02 -0.93347318118E+02 -0.15223189722E+02  0.13639192590E+03  0.00000000000E+00 0.  1.
<scales pt_clust_5="13000.00000" pt_clust_6="13000.00000" pt_clust_7="13000.00000" pt_clust_8="13000.00000" pt_clust_9="21.62415" pt_clust_10="113.41556"></scales>
<clustering>
<clus scale="   21.624">  2  9  1 -1</clus>
<clus scale="   82.247">  5  6 -1 -1</clus>
<clus scale="   86.901">  1  5  2 -1</clus>
<clus scale="   91.834">  7  8 -1 -1</clus>
<clus scale="  113.416">  2 10  1 -1</clus>
<clus scale="   21.624">  2  5  1 -1</clus>
</clustering>
</event>
<event>
10    4  0.7204077E-005  0.1798197E+03  0.7546771E-02  0.1194350E+00
         21   -1    0    0  503  502  0.00000000000E+00  0.00000000000E+00  0.24869185170E+03  0.24869185170E+03  0.00000000000E+00 0. -1.
          2   -1    0    0  502    0 -0.00000000000E+00 -0.00000000000E+00 -0.52458860173E+03  0.52458860173E+03  0.00000000000E+00 0. -1.
         23    2    1    2    0    0  0.39270931463E+02  0.37743612632E+01  0.45655844337E+02  0.10948411462E+03  0.91355696987E+02 0.  0.
         24    2    1    2    0    0  0.11835798903E+03  0.40121634076E+02 -0.43567949933E+03  0.46057898773E+03  0.81841424199E+02 0.  0.
        -13    1    4    4    0    0  0.29967244706E+02 -0.94274678827E+01 -0.33899738806E+02  0.46218018100E+02  0.00000000000E+00 0.  1.
         14    1    4    4    0    0  0.88390744320E+02  0.49549101959E+02 -0.40177976053E+03  0.41436096963E+03  0.00000000000E+00 0. -1.
        -13    1    3    3    0    0 -0.27193442469E+02  0.92068446606E+01  0.76706621627E-01  0.28709844754E+02  0.00000000000E+00 0.  1.
         13    1    3    3    0    0  0.66464373932E+02 -0.54324833974E+01  0.45579137715E+02  0.80774269869E+02  0.00000000000E+00 0. -1.
         21    1    1    2  503  501 -0.46868783477E+02 -0.11027627298E+02  0.56102629279E+02  0.73931024885E+02  0.00000000000E+00 0. -1.
          1    1    1    2  501    0 -0.11076013701E+03 -0.32868368041E+02  0.58024275688E+02  0.12928632618E+03  0.00000000000E+00 0. -1.
<scales pt_clust_5="13000.00000" pt_clust_6="13000.00000" pt_clust_7="13000.00000" pt_clust_8="13000.00000" pt_clust_9="24.99083" pt_clust_10="164.72924"></scales>
<clustering>
<clus scale="   24.991">  9 10 -1 -1</clus>
<clus scale="   81.841">  5  6 -1 -1</clus>
<clus scale="   91.356">  7  8 -1 -1</clus>
<clus scale="   99.510">  2  7  1 -1</clus>
<clus scale="  164.729">  1  9  2 -1</clus>
<clus scale="  164.729">  1  5  2 -1</clus>
</clustering>
</event>
<event>
10    4  0.7204077E-005  0.2061523E+03  0.7546771E-02  0.1157031E+00
          2   -1    0    0  503    0 -0.00000000000E+00  0.00000000000E+00  0.12854815548E+04  0.12854815548E+04  0.00000000000E+00 0. -1.
         21   -1    0    0  501  502  0.00000000000E+00 -0.00000000000E+00 -0.13101513739E+03  0.13101513739E+03  0.00000000000E+00 0.  1.
         23    2    1    2    0    0  0.99462941750E+02  0.12134394786E+02  0.51964505406E+03  0.53825071974E+03  0.98197427500E+02 0.  0.
         24    2    1    2    0    0 -0.13089987221E+03  0.14922676502E+03  0.17553187108E+02  0.21454833376E+03  0.79495089145E+02 0.  0.
        -11    1    4    4    0    0 -0.73499256428E+02  0.12422540332E+03 -0.12919588233E+02  0.14491724289E+03  0.00000000000E+00 0.  1.
         12    1    4    4    0    0 -0.57400615782E+02  0.25001361697E+02  0.30472775342E+02  0.69631090871E+02  0.00000000000E+00 0. -1.
        -11    1    3    3    0    0  0.99852897121E+02  0.40924791736E+02  0.45254825944E+03  0.46523689316E+03  0.00000000000E+00 0. -1.
         11    1    3    3    0    0 -0.38995537101E+00 -0.28790396950E+02  0.67096794627E+02  0.73013826574E+02  0.00000000000E+00 0.  1.
         21    1    1    2  503  502  0.34233022229E+02  0.34143194117E+02  0.12191136503E+03  0.13114891703E+03  0.00000000000E+00 0. -1.
          1    1    1    2  501    0 -0.27960917684E+01 -0.19550435392E+03  0.49535681126E+03  0.53254872171E+03  0.00000000000E+00 0. -1.
<scales pt_clust_5="13000.00000" pt_clust_6="13000.00000" pt_clust_7="13000.00000" pt_clust_8="13000.00000" pt_clust_9="48.34933" pt_clust_10="190.20863"></scales>
<clustering>
<clus scale="   48.349">  1  9  2 -1</clus>
<clus scale="   79.495">  5  6 -1 -1</clus>
<clus scale="   98.197">  7  8 -1 -1</clus>
<clus scale="  153.805">  1  7  2 -1</clus>
<clus scale="  190.209">  2 10  1 -1</clus>
<clus scale="  190.209">  2  5  1 -1</clus>
</clustering>
</event>
<event>
10    4  0.7204077E-005  0.1735293E+03  0.7546771E-02  0.1206989E+00
          2   -1    0    0  503    0 -0.00000000000E+00  0.00000000000E+00  0.14269033488E+04  0.14269033488E+04  0.00000000000E+00 0. -1.
         21   -1    0    0  501  502  0.00000000000E+00 -0.00000000000E+00 -0.84177902269E+02  0.84177902269E+02  0.00000000000E+00 0. -1.
         24    2    1    2    0    0  0.22424650955E+02 -0.13412232974E+02  0.27515748433E+03  0.28808710899E+03  0.81239080588E+02 0.  0.
         23    2    1    2    0    0  0.16019732589E+03 -0.24348996895E+02  0.18361081552E+03  0.26135341055E+03  0.91305075205E+02 0.  0.
        -13    1    3    3    0    0 -0.29463462174E+02  0.37680690742E+01  0.11858054782E+03  0.12224418297E+03  0.00000000000E+00 0.  1.
         14    1    3    3    0    0  0.51888113128E+02 -0.17180302049E+02  0.15657693651E+03  0.16584292602E+03  0.00000000000E+00 0. -1.
        -11    1    4    4    0    0  0.16705064260E+02 -0.28696367094E+02  0.73146216240E+01  0.34000652138E+02  0.00000000000E+00 0.  1.
         11    1    4    4    0    0  0.14349226163E+03  0.43473701991E+01  0.17629619390E+03  0.22735275842E+03  0.00000000000E+00 0. -1.
         21    1    1    2  503  502 -0.21755098972E+02  0.29539137369E+02 -0.21127440221E+02  0.42334544973E+02  0.00000000000E+00 0.  1.
          1    1    1    2  501    0 -0.16086687788E+03  0.82220925001E+01  0.90508458686E+03  0.91930618652E+03  0.00000000000E+00 0. -1.
<scales pt_clust_5="13000.00000" pt_clust_6="13000.00000" pt_clust_7="13000.00000" pt_clust_8="13000.00000" pt_clust_9="36.68576" pt_clust_10="147.56631"></scales>
<clustering>
<clus scale="   36.686">  2  9  1 -1</clus>
<clus scale="   81.239">  5  6 -1 -1</clus>
<clus scale="   84.173">  1  5  2 -1</clus>
<clus scale="   91.305">  7  8 -1 -1</clus>
<clus scale="  147.566">  2 10  1 -1</clus>
<clus scale="   36.686">  2  5  1 -1</clus>
</clustering>
</event>
<event>
10    4  0.7204077E-005  0.1205208E+03  0.7546771E-02  0.1242528E+00
         21   -1    0    0  503  502  0.00000000000E+00  0.00000000000E+00  0.29377182094E+03  0.29377182094E+03  0.00000000000E+00 0.  1.
          2   -1    0    0  502    0 -0.00000000000E+00 -0.00000000000E+00 -0.86233474978E+03  0.86233474978E+03  0.00000000000E+00 0. -1.
         24    2    1    2    0    0 -0.69104034997E+02  0.59306402929E+02 -0.81973588890E+03  0.82864754260E+03  0.79982530756E+02 0.  0.
         23    2    1    2    0    0  0.51860201886E+02 -0.20230038542E+02  0.61113399187E+02  0.11575272054E+03  0.81025364870E+02 0.  0.
        -13    1    3    3    0    0 -0.21759675422E+02 -0.12301315097E+02 -0.76723803500E+02  0.80692923179E+02  0.00000000000E+00 0.  1.
         14    1    3    3    0    0 -0.47344359575E+02  0.71607718026E+02 -0.74301208540E+03  0.74795461942E+03  0.00000000000E+00 0. -1.
        -13    1    4    4    0    0 -0.18928561482E+02 -0.17056084783E+02  0.65175942931E+01  0.26299800441E+02  0.00000000000E+00 0. -1.
         13    1    4    4    0    0  0.70788763367E+02 -0.31739537599E+01  0.54595804894E+02  0.89452920095E+02  0.00000000000E+00 0.  1.
         21    1    1    2  503  501  0.20545572599E+02  0.21094058410E+02  0.92128432118E+02  0.96719842112E+02  0.00000000000E+00 0.  1.
          1    1    1    2  501    0 -0.33017394877E+01 -0.60170422797E+02  0.97931128756E+02  0.11498646548E+03  0.00000000000E+00 0. -1.
<scales pt_clust_5="13000.00000" pt_clust_6="13000.00000" pt_clust_7="13000.00000" pt_clust_8="13000.00000" pt_clust_9="29.44622" pt_clust_10="49.50329"></scales>
<clustering>
<clus scale="   29.446">  1  9  2 -1</clus>
<clus scale="   49.503">  1 10  2 -1</clus>
<clus scale="   79.983">  5  6 -1 -1</clus>
<clus scale="   81.025">  7  8 -1 -1</clus>
<clus scale="  119.822">  2  5  1 -1</clus>
<clus scale="   29.446">  1  5  2 -1</clus>
</clustering>
</event>
<event>
10    4  0.7204077E-005  0.1104446E+03  0.7546771E-02  0.1265751E+00
          2   -1    0    0  502    0 -0.00000000000E+00  0.00000000000E+00  0.98220277652E+03  0.98220277652E+03  0.00000000000E+00 0. -1.
         21   -1    0    0  503  502  0.00000000000E+00 -0.00000000000E+00 -0.26869813491E+03  0.26869813491E+03  0.00000000000E+00 0. -1.
         24    2    1    2    0    0 -0.55840614485E+02 -0.27419447974E+02  0.90136107716E+03  0.90664269360E+03  0.75360348320E+02 0.  0.
         23    2    1    2    0    0  0.47782346599E+02  0.12588312064E+03 -0.76282944574E+02  0.17939268915E+03  0.90735530964E+02 0.  0.
        -13    1    3    3    0    0 -0.27887155632E+01 -0.33782138827E+02  0.17085316096E+03  0.17418327258E+03  0.00000000000E+00 0.  1.
         14    1    3    3    0    0 -0.53051898922E+02  0.63626908521E+01  0.73050791620E+03  0.73245942102E+03  0.00000000000E+00 0. -1.
        -11    1    4    4    0    0  0.50034331585E+02  0.18013793675E+02 -0.14747574568E+02  0.55185342758E+02  0.00000000000E+00 0.  1.
         11    1    4    4    0    0 -0.22519849853E+01  0.10786932696E+03 -0.61535370006E+02  0.12420734639E+03  0.00000000000E+00 0. -1.
         21    1    1    2  503  501  0.94343524123E+00 -0.31197591439E+02 -0.87776000803E+02  0.93160110018E+02  0.00000000000E+00 0. -1.
          1    1    1    2  501    0  0.71148326444E+01 -0.67266081224E+02 -0.23797490167E+02  0.71705418659E+02  0.00000000000E+00 0. -1.
<scales pt_clust_5="13000.00000" pt_clust_6="13000.00000" pt_clust_7="13000.00000" pt_clust_8="13000.00000" pt_clust_9="31.21185" pt_clust_10="75.98259"></scales>
<clustering>
<clus scale="   31.212">  2  9  1 -1</clus>
<clus scale="   75.360">  5  6 -1 -1</clus>
<clus scale="   75.983">  2 10  1 -1</clus>
<clus scale="   90.736">  7  8 -1 -1</clus>
<clus scale="   98.205">  1  5  2 -1</clus>
<clus scale="   31.212">  2  5  1 -1</clus>
</clustering>
</event>
<event>
10    4  0.7204077E-005  0.9818053E+02  0.7546771E-02  0.1303682E+00
          2   -1    0    0  503    0 -0.00000000000E+00  0.00000000000E+00  0.18502731384E+03  0.18502731384E+03  0.00000000000E+00 0. -1.
         21   -1    0    0  501  502  0.00000000000E+00 -0.00000000000E+00 -0.10460099212E+03  0.10460099212E+03  0.00000000000E+00 0. -1.
         24    2    1    2    0    0 -0.91760437895E+01  0.42641042396E+02  0.74313926974E+02  0.10439875930E+03  0.58941351576E+02 0.  0.
         23    2    1    2    0    0 -0.81913003346E+00 -0.14251245640E+02  0.29871346994E+02  0.97712339496E+02  0.91932774038E+02 0.  0.
        -11    1    3    3    0    0 -0.16079558611E+02  0.19841400304E+02 -0.84714231606E+00  0.25552906317E+02  0.00000000000E+00 0.  1.
         12    1    3    3    0    0  0.69035148212E+01  0.22799642092E+02  0.75161069290E+02  0.78845852986E+02  0.00000000000E+00 0. -1.
        -11    1    4    4    0    0 -0.23485909865E+02 -0.28750293471E+02  0.51293957079E+02  0.63318538910E+02  0.00000000000E+00 0.  1.
         11    1    4    4    0    0  0.22666779832E+02  0.14499047831E+02 -0.21422610084E+02  0.34393800586E+02  0.00000000000E+00 0. -1.
         21    1    1    2  503  502  0.22219953444E+02  0.68614513125E+01 -0.40438040007E+02  0.46648053816E+02  0.00000000000E+00 0. -1.
          1    1    1    2  501    0 -0.12224779621E+02 -0.35251248068E+02  0.16679087761E+02  0.40869153352E+02  0.00000000000E+00 0. -1.
<scales pt_clust_5="13000.00000" pt_clust_6="13000.00000" pt_clust_7="13000.00000" pt_clust_8="13000.00000" pt_clust_9="23.25523" pt_clust_10="34.78324"></scales>
<clustering>
<clus scale="   23.255">  2  9  1 -1</clus>
<clus scale="   34.783">  2 10  1 -1</clus>
<clus scale="   58.941">  5  6 -1 -1</clus>
<clus scale="   68.278">  1  5  2 -1</clus>
<clus scale="   91.933">  7  8 -1 -1</clus>
<clus scale="   23.255">  2  5  1 -1</clus>
</clustering>
</event>
<event>
10    4  0.7204077E-005  0.1058601E+03  0.7546771E-02  0.1271360E+00
         21   -1    0    0  503  502  0.00000000000E+00  0.00000000000E+00  0.96450271956E+02  0.96450271956E+02  0.00000000000E+00 0. -1.
          4   -1    0    0  502    0 -0.00000000000E+00 -0.00000000000E+00 -0.43397934782E+03  0.43397934782E+03  0.00000000000E+00 0. -1.
         24    2    1    2    0    0 -0.13540300429E+02  0.64705904102E+02 -0.34140283772E+03  0.35665159437E+03  0.79210279647E+02 0.  0.
         23    2    1    2    0    0 -0.47612829005E+00 -0.38300268595E+02 -0.26284752790E+02  0.98140139837E+02  0.86449184759E+02 0.  0.
        -13    1    3    3    0    0 -0.23539376678E+02  0.22248159617E+02 -0.37145992339E+02  0.49283948782E+02  0.00000000000E+00 0.  1.
         14    1    3    3    0    0  0.99990762497E+01  0.42457744485E+02 -0.30425684538E+03  0.30736764558E+03  0.00000000000E+00 0. -1.
        -11    1    4    4    0    0 -0.14343722896E+01  0.28096232493E+02 -0.69364843081E+01  0.28975343289E+02  0.00000000000E+00 0. -1.
         11    1    4    4    0    0  0.95824399955E+00 -0.66396501088E+02 -0.19348268482E+02  0.69164796548E+02  0.00000000000E+00 0.  1.
         21    1    1    2  503  501 -0.16880169908E+02 -0.19386296488E+02  0.35167410579E+02  0.43560479732E+02  0.00000000000E+00 0. -1.
          3    1    1    2  501    0  0.30896598627E+02 -0.70193390186E+01 -0.50088959382E+01  0.32077405841E+02  0.00000000000E+00 0. -1.
<scales pt_clust_5="13000.00000" pt_clust_6="13000.00000" pt_clust_7="13000.00000" pt_clust_8="13000.00000" pt_clust_9="25.70542" pt_clust_10="29.29571"></scales>
<clustering>
<clus scale="   25.705">  1  9  2 -1</clus>
<clus scale="   29.296">  1 10  2 -1</clus>
<clus scale="   79.210">  5  6 -1 -1</clus>
<clus scale="   86.449">  7  8 -1 -1</clus>
<clus scale="  100.036">  2  5  1 -1</clus>
<clus scale="   25.705">  1  5  2 -1</clus>
</clustering>
</event>
<event>
10    4  0.7204077E-005  0.1043869E+03  0.7546771E-02  0.1275562E+00
         21   -1    0    0  501  502  0.00000000000E+00  0.00000000000E+00  0.33664417297E+03  0.33664417297E+03  0.00000000000E+00 0. -1.
          2   -1    0    0  503    0 -0.00000000000E+00 -0.00000000000E+00 -0.18163463462E+03  0.18163463462E+03  0.00000000000E+00 0. -1.
         23    2    1    2    0    0  0.23219374538E+02 -0.59862733839E+02 -0.50892713848E+02  0.12116833690E+03  0.89269318850E+02 0.  0.
         24    2    1    2    0    0  0.42208641311E+02  0.35074154454E+02  0.83352358065E+02  0.12764133563E+03  0.79579703781E+02 0.  0.
        -13    1    4    4    0    0  0.55947950601E+00  0.20081726557E+02  0.80846424641E+02  0.83305060687E+02  0.00000000000E+00 0.  1.
         14    1    4    4    0    0  0.41649161805E+02  0.14992427897E+02  0.25059334241E+01  0.44336274941E+02  0.00000000000E+00 0. -1.
        -11    1    3    3    0    0  0.51928777058E+02 -0.51531594851E+02 -0.54262481736E+02  0.91085235240E+02  0.00000000000E+00 0. -1.
         11    1    3    3    0    0 -0.28709402520E+02 -0.83311389885E+01  0.33697678887E+01  0.30083101661E+02  0.00000000000E+00 0.  1.
         21    1    1    2  503  502 -0.97347838885E+02  0.23274821338E+02  0.17872338641E+03  0.20484230006E+03  0.00000000000E+00 0. -1.
          1    1    1    2  501    0  0.31919823036E+02  0.15137580475E+01 -0.56173492289E+02  0.64626834999E+02  0.00000000000E+00 0. -1.
<scales pt_clust_5="13000.00000" pt_clust_6="13000.00000" pt_clust_7="13000.00000" pt_clust_8="13000.00000" pt_clust_9="82.54350" pt_clust_10="31.95571"></scales>
<clustering>
<clus scale="   31.956">  1 10  2 -1</clus>
<clus scale="   79.580">  5  6 -1 -1</clus>
<clus scale="   82.543">  1  9  2 -1</clus>
<clus scale="   89.269">  7  8 -1 -1</clus>
<clus scale="   96.232">  1  5  2 -1</clus>
<clus scale="   31.956">  1  5  2 -1</clus>
</clustering>
</event>
<event>
10    4  0.7204077E-005  0.1085733E+03  0.7546771E-02  0.1267621E+00
         21   -1    0    0  501  502  0.00000000000E+00  0.00000000000E+00  0.16418992461E+03  0.16418992461E+03  0.00000000000E+00 0.  1.
          2   -1    0    0  503    0 -0.00000000000E+00 -0.00000000000E+00 -0.58587755057E+03  0.58587755057E+03  0.00000000000E+00 0. -1.
         23    2    1    2    0    0 -0.78795446981E+02 -0.20780401412E+02 -0.36338386524E+03  0.38340215421E+03  0.91152788186E+02 0.  0.
         24    2    1    2    0    0  0.26022909769E+02  0.23019748169E+02 -0.14748393832E+03  0.17151007668E+03  0.80356043357E+02 0.  0.
        -13    1    4    4    0    0  0.24426999863E+02 -0.24445413192E+02 -0.33955144002E+02  0.48447996374E+02  0.00000000000E+00 0.  1.
         14    1    4    4    0    0  0.15959099059E+01  0.47465161362E+02 -0.11352879431E+03  0.12306208031E+03  0.00000000000E+00 0. -1.
        -13    1    3    3    0    0 -0.22298926211E+02  0.22608018495E+02 -0.34488722678E+02  0.46881090030E+02  0.00000000000E+00 0.  1.
         13    1    3    3    0    0 -0.56496520771E+02 -0.43388419907E+02 -0.32889514256E+03  0.33652106418E+03  0.00000000000E+00 0. -1.
         21    1    1    2  503  502  0.30651007172E+02 -0.12314132636E+02  0.13731436018E+03  0.14123156734E+03  0.00000000000E+00 0.  1.
          1    1    1    2  501    0  0.22121530041E+02  0.10074785879E+02 -0.48134182579E+02  0.53923676937E+02  0.00000000000E+00 0. -1.
<scales pt_clust_5="13000.00000" pt_clust_6="13000.00000" pt_clust_7="13000.00000" pt_clust_8="13000.00000" pt_clust_9="49.88336" pt_clust_10="24.30769"></scales>
<clustering>
<clus scale="   24.308">  1 10  2 -1</clus>
<clus scale="   49.883">  1  9  2 -1</clus>
<clus scale="   80.356">  5  6 -1 -1</clus>
<clus scale="   91.153">  7  8 -1 -1</clus>
<clus scale="   99.682">  1  5  2 -1</clus>
<clus scale="   24.308">  1  5  2 -1</clus>
</clustering>
</event>
<event>
10    4  0.7204077E-005  0.1438595E+03  0.7546771E-02  0.1216328E+00
         21   -1    0    0  503  502  0.00000000000E+00  0.00000000000E+00  0.21320710253E+03  0.21320710253E+03  0.00000000000E+00 0. -1.
          2   -1    0    0  502    0 -0.00000000000E+00 -0.00000000000E+00 -0.38545532862E+03  0.38545532862E+03  0.00000000000E+00 0. -1.
         24    2    1    2    0    0  0.91168056892E+02  0.19004566959E+02 -0.14791340202E+03  0.19230879408E+03  0.80196693327E+02 0.  0.
         23    2    1    2    0    0 -0.37339532076E+02  0.85723668804E+02  0.88258688041E+02  0.15836314756E+03  0.92447295478E+02 0.  0.
        -11    1    3    3    0    0  0.97998669525E+02  0.34556487503E+02 -0.13762997276E+03  0.17245260061E+03  0.00000000000E+00 0.  1.
         12    1    3    3    0    0 -0.68306126329E+01 -0.15551920544E+02 -0.10283429261E+02  0.19856193465E+02  0.00000000000E+00 0. -1.
        -11    1    4    4    0    0 -0.75613609931E+01  0.72120118259E+02  0.10005037020E+03  0.12356602370E+03  0.00000000000E+00 0. -1.
         11    1    4    4    0    0 -0.29778171082E+02  0.13603550545E+02 -0.11791682156E+02  0.34797123854E+02  0.00000000000E+00 0.  1.
         21    1    1    2  503  501 -0.23089996052E+02  0.19317409809E+02  0.39287800612E+02  0.49495873730E+02  0.00000000000E+00 0. -1.
          1    1    1    2  501    0 -0.30738528765E+02 -0.12404564557E+03 -0.15188131273E+03  0.19849461578E+03  0.00000000000E+00 0. -1.
<scales pt_clust_5="13000.00000" pt_clust_6="13000.00000" pt_clust_7="13000.00000" pt_clust_8="13000.00000" pt_clust_9="30.10499" pt_clust_10="110.22275"></scales>
<clustering>
<clus scale="   30.105">  1  9  2 -1</clus>
<clus scale="   80.197">  5  6 -1 -1</clus>
<clus scale="   92.447">  7  8 -1 -1</clus>
<clus scale="  121.091">  2  5  1 -1</clus>
<clus scale="  110.223">  1 10  2 -1</clus>
<clus scale="   30.105">  1  5  2 -1</clus>
</clustering>
</event>
<event>
10    4  0.7204077E-005  0.3920555E+03  0.7546771E-02  0.1046846E+00
          2   -1    0    0  502    0 -0.00000000000E+00  0.00000000000E+00  0.16016412252E+04  0.16016412252E+04  0.00000000000E+00 0. -1.
         21   -1    0    0  503  502  0.00000000000E+00 -0.00000000000E+00 -0.22688135678E+03  0.22688135678E+03  0.00000000000E+00 0. -1.
         24    2    1    2    0    0  0.31051946779E+03  0.96794685524E+02  0.37271924282E+03  0.50065474434E+03  0.77097263496E+02 0.  0.
         23    2    1    2    0    0 -0.31488173358E+03 -0.35503009145E+03  0.73799869760E+03  0.88217472873E+03  0.91614968047E+02 0.  0.
        -13    1    3    3    0    0  0.13110382384E+03  0.60849795845E+02  0.11563601967E+03  0.18510159190E+03  0.00000000000E+00 0.  1.
         14    1    3    3    0    0  0.17941564395E+03  0.35944889679E+02  0.25708322314E+03  0.31555315243E+03  0.00000000000E+00 0. -1.
        -11    1    4    4    0    0 -0.25075185841E+03 -0.21926402738E+03  0.51535918679E+03  0.61363531483E+03  0.00000000000E+00 0. -1.
         11    1    4    4    0    0 -0.64129875169E+02 -0.13576606407E+03  0.22263951081E+03  0.26853941390E+03  0.00000000000E+00 0.  1.
         21    1    1    2  503  501  0.13115268742E+02  0.47683875993E+02 -0.48156916194E+02  0.69027899296E+02  0.00000000000E+00 0. -1.
          1    1    1    2  501    0 -0.87530029540E+01  0.21055152993E+03  0.31219884419E+03  0.37666520961E+03  0.00000000000E+00 0. -1.
<scales pt_clust_5="13000.00000" pt_clust_6="13000.00000" pt_clust_7="13000.00000" pt_clust_8="13000.00000" pt_clust_9="49.45465" pt_clust_10="219.77339"></scales>
<clustering>
<clus scale="   49.455">  2  9  1 -1</clus>
<clus scale="   77.097">  5  6 -1 -1</clus>
<clus scale="   91.615">  7  8 -1 -1</clus>
<clus scale="  219.773">  2 10  1 -1</clus>
<clus scale="  388.919">  1  5  2 -1</clus>
<clus scale="   49.455">  2  5  1 -1</clus>
</clustering>
</event>
<event>
10    4  0.7204077E-005  0.4145106E+03  0.7546771E-02  0.1043929E+00
         21   -1    0    0  501  502  0.00000000000E+00  0.00000000000E+00  0.55650766610E+03  0.55650766610E+03  0.00000000000E+00 0. -1.
          2   -1    0    0  503    0 -0.00000000000E+00 -0.00000000000E+00 -0.90977492164E+03  0.90977492164E+03  0.00000000000E+00 0. -1.
         23    2    1    2    0    0 -0.48721580571E+02 -0.37743108694E+03 -0.19220968061E+03  0.43571898285E+03  0.89880214156E+02 0.  0.
         24    2    1    2    0    0 -0.38832665068E+03  0.14308324623E+03  0.11262873348E+02  0.42179108451E+03  0.80687444335E+02 0.  0.
        -13    1    4    4    0    0 -0.10218468350E+03  0.34752686783E+02  0.38559964651E+02  0.11461382837E+03  0.00000000000E+00 0.  1.
         14    1    4    4    0    0 -0.28614196718E+03  0.10833055944E+03 -0.27297091303E+02  0.30717725613E+03  0.00000000000E+00 0. -1.
        -13    1    3    3    0    0  0.23313165234E+02 -0.15775750297E+03 -0.69070485645E+02  0.17378626357E+03  0.00000000000E+00 0. -1.
         13    1    3    3    0    0 -0.72034745805E+02 -0.21967358397E+03 -0.12313919496E+03  0.26193271929E+03  0.00000000000E+00 0.  1.
         21    1    1    2  503  502  0.12004596831E+02  0.13523929553E+03  0.92039568733E+01  0.13608265952E+03  0.00000000000E+00 0. -1.
          1    1    1    2  501    0  0.42504363442E+03  0.99108545183E+02 -0.18152440516E+03  0.47268986086E+03  0.00000000000E+00 0. -1.
<scales pt_clust_5="13000.00000" pt_clust_6="13000.00000" pt_clust_7="13000.00000" pt_clust_8="13000.00000" pt_clust_9="135.77105" pt_clust_10="406.58175"></scales>
<clustering>
<clus scale="   80.687">  5  6 -1 -1</clus>
<clus scale="   89.880">  7  8 -1 -1</clus>
<clus scale="  135.771">  1  9  2 -1</clus>
<clus scale="  357.898">  2  7  1 -1</clus>
<clus scale="  406.582">  1 10  2 -1</clus>
<clus scale="  135.771">  1  5  2 -1</clus>
</clustering>
</event>
<event>
10    4  0.7204077E-005  0.4727931E+03  0.7546771E-02  0.1080807E+00
         -1   -1    0    0    0  501 -0.00000000000E+00  0.00000000000E+00  0.46926762597E+03  0.46926762597E+03  0.00000000000E+00 0.  1.
         21   -1    0    0  501  502  0.00000000000E+00 -0.00000000000E+00 -0.78024494235E+03  0.78024494235E+03  0.00000000000E+00 0. -1.
         24    2    1    2    0    0 -0.32560540024E+02 -0.72528850225E+01 -0.17141494751E+02  0.86842866836E+02  0.78326621082E+02 0.  0.
         23    2    1    2    0    0  0.38721334469E+03 -0.30561690645E+03 -0.28787667436E+03  0.57996765338E+03  0.10076522965E+03 0.  0.
        -13    1    3    3    0    0  0.50452450584E+01  0.24486799660E+02 -0.26846688081E+02  0.36685181153E+02  0.00000000000E+00 0.  1.
         14    1    3    3    0    0 -0.37605785082E+02 -0.31739684683E+02  0.97051933308E+01  0.50157685682E+02  0.00000000000E+00 0. -1.
        -11    1    4    4    0    0  0.51269303249E+02 -0.66261011282E+02 -0.14280133152E+02  0.84988147847E+02  0.00000000000E+00 0.  1.
         11    1    4    4    0    0  0.33594404145E+03 -0.23935589516E+03 -0.27359654121E+03  0.49497950553E+03  0.00000000000E+00 0. -1.
         21    1    1    2  503  502 -0.38981741759E+02  0.96925534648E+01 -0.12320617563E+03  0.12958890191E+03  0.00000000000E+00 0. -1.
         -2    1    1    2    0  503 -0.31567106291E+03  0.30317723800E+03  0.11724702837E+03  0.45311314621E+03  0.00000000000E+00 0.  1.
<scales pt_clust_5="13000.00000" pt_clust_6="13000.00000" pt_clust_7="13000.00000" pt_clust_8="13000.00000" pt_clust_9="40.16867" pt_clust_10="461.93061"></scales>
<clustering>
<clus scale="   40.169">  2  9  1 -1</clus>
<clus scale="   78.327">  5  6 -1 -1</clus>
<clus scale="   86.306">  1  5  2 -1</clus>
<clus scale="  100.765">  7  8 -1 -1</clus>
<clus scale="  461.931">  2 10  1 -1</clus>
<clus scale="   40.169">  2  5  1 -1</clus>
</clustering>
</event>
<event>
10    4  0.8585364E-005  0.1704536E+03  0.7546771E-02  0.1224280E+00
         21   -1    0    0  501  502  0.00000000000E+00  0.00000000000E+00  0.94275103730E+02  0.94275103730E+02  0.00000000000E+00 0.  1.
          2   -1    0    0  503    0 -0.00000000000E+00 -0.00000000000E+00 -0.15603143839E+04  0.15603143839E+04  0.00000000000E+00 0. -1.
         24    2    1    2    0    0 -0.18972196335E+02  0.10615995276E+02 -0.46218085422E+03  0.46626882882E+03  0.57644038154E+02 0.  0.
         23    2    1    2    0    0  0.13269668618E+03  0.69301541581E+02 -0.47990950953E+03  0.51107791217E+03  0.92067262276E+02 0.  0.
        -11    1    3    3    0    0 -0.29752386088E+02  0.13742601559E+02 -0.13593166524E+03  0.13982661117E+03  0.00000000000E+00 0.  1.
         12    1    3    3    0    0  0.10780189753E+02 -0.31266062838E+01 -0.32624918897E+03  0.32644221765E+03  0.00000000000E+00 0. -1.
        -11    1    4    4    0    0  0.40516018824E+02  0.31725617258E+02 -0.30929685018E+03  0.31354840791E+03  0.00000000000E+00 0.  1.
         11    1    4    4    0    0  0.92180667360E+02  0.37575924322E+02 -0.17061265936E+03  0.19752950427E+03  0.00000000000E+00 0. -1.
         21    1    1    2  503  502 -0.38846445791E+02 -0.18032418936E+03 -0.55930575360E+02  0.19275395944E+03  0.00000000000E+00 0.  1.
          1    1    1    2  501    0 -0.74878044058E+02  0.10040665251E+03 -0.46801834105E+03  0.48448878719E+03  0.00000000000E+00 0. -1.
<scales pt_clust_5="13000.00000" pt_clust_6="13000.00000" pt_clust_7="13000.00000" pt_clust_8="13000.00000" pt_clust_9="143.45049" pt_clust_10="133.93380"></scales>
<clustering>
<clus scale="   57.644">  5  6 -1 -1</clus>
<clus scale="   61.607">  2  5  1 -1</clus>
<clus scale="   92.067">  7  8 -1 -1</clus>
<clus scale="  133.934">  1 10  2 -1</clus>
<clus scale="  143.450">  1  9  2 -1</clus>
<clus scale="  133.934">  1  5  2 -1</clus>
</clustering>
</event>
<event>
10    4  0.7204077E-005  0.9867011E+02  0.7546771E-02  0.1290056E+00
          2   -1    0    0  503    0 -0.00000000000E+00  0.00000000000E+00  0.49438304578E+03  0.49438304578E+03  0.00000000000E+00 0. -1.
         21   -1    0    0  501  502  0.00000000000E+00 -0.00000000000E+00 -0.51519808707E+02  0.51519808707E+02  0.00000000000E+00 0.  1.
         23    2    1    2    0    0 -0.45427358184E+02  0.25100001313E+02  0.23386869100E+03  0.25718219875E+03  0.93565291567E+02 0.  0.
         24    2    1    2    0    0 -0.22833166690E+02 -0.65177473395E+01  0.40267894256E+02  0.93279172609E+02  0.80719676681E+02 0.  0.
        -11    1    4    4    0    0 -0.34026313744E+02  0.53614128113E+01 -0.13569139364E+02  0.37022375902E+02  0.00000000000E+00 0.  1.
         12    1    4    4    0    0  0.11193147054E+02 -0.11879160151E+02  0.53837033619E+02  0.56256796708E+02  0.00000000000E+00 0. -1.
        -13    1    3    3    0    0  0.10458562935E+02  0.29163686928E+02  0.16741567616E+03  0.17025836484E+03  0.00000000000E+00 0.  1.
         13    1    3    3    0    0 -0.55885921119E+02 -0.40636856151E+01  0.66453014836E+02  0.86923833906E+02  0.00000000000E+00 0. -1.
         21    1    1    2  503  502  0.39088798552E+02  0.20153014160E+01  0.22989358571E+02  0.45392799203E+02  0.00000000000E+00 0. -1.
          1    1    1    2  501    0  0.29171726322E+02 -0.20597555390E+02  0.14573729325E+03  0.15004868393E+03  0.00000000000E+00 0. -1.
<scales pt_clust_5="13000.00000" pt_clust_6="13000.00000" pt_clust_7="13000.00000" pt_clust_8="13000.00000" pt_clust_9="45.78571" pt_clust_10="35.71065"></scales>
<clustering>
<clus scale="   35.711">  2 10  1 -1</clus>
<clus scale="   45.786">  2  9  1 -1</clus>
<clus scale="   80.720">  5  6 -1 -1</clus>
<clus scale="   86.585">  2  5  1 -1</clus>
<clus scale="   93.565">  7  8 -1 -1</clus>
<clus scale="   35.711">  2  5  1 -1</clus>
</clustering>
</event>
<event>
10    4  0.7204077E-005  0.1736934E+03  0.7546771E-02  0.1189541E+00
         -3   -1    0    0    0  501 -0.00000000000E+00  0.00000000000E+00  0.86144884644E+02  0.86144884644E+02  0.00000000000E+00 0.  1.
         21   -1    0    0  503  502  0.00000000000E+00 -0.00000000000E+00 -0.12812358021E+04  0.12812358021E+04  0.00000000000E+00 0.  1.
         23    2    1    2    0    0  0.52121522983E+02  0.45279645123E+02 -0.22571652791E+03  0.25382998281E+03  0.93353145521E+02 0.  0.
         24    2    1    2    0    0 -0.16297765207E+03 -0.15515907840E+03 -0.23495059985E+03  0.33455438713E+03  0.78030756098E+02 0.  0.
        -11    1    4    4    0    0 -0.11493633794E+03 -0.15098938926E+03 -0.19260008088E+03  0.27037556954E+03  0.00000000000E+00 0.  1.
         12    1    4    4    0    0 -0.48041314128E+02 -0.41696891353E+01 -0.42350518961E+02  0.64178817587E+02  0.00000000000E+00 0. -1.
        -11    1    3    3    0    0  0.25803625533E+02  0.67691275494E+02 -0.19334732773E+03  0.20647306122E+03  0.00000000000E+00 0.  1.
         11    1    3    3    0    0  0.26317897449E+02 -0.22411630371E+02 -0.32369200188E+02  0.47356921594E+02  0.00000000000E+00 0. -1.
         21    1    1    2  503  501  0.69563779855E+02  0.73301465043E+02 -0.71250823975E+03  0.71963894833E+03  0.00000000000E+00 0.  1.
         -4    1    1    2    0  502  0.41292349230E+02  0.36577968230E+02 -0.21915549975E+02  0.59357368502E+02  0.00000000000E+00 0.  1.
<scales pt_clust_5="13000.00000" pt_clust_6="13000.00000" pt_clust_7="13000.00000" pt_clust_8="13000.00000" pt_clust_9="155.17922" pt_clust_10="55.16347"></scales>
<clustering>
<clus scale="   55.163">  2 10  1 -1</clus>
<clus scale="   78.031">  5  6 -1 -1</clus>
<clus scale="   93.353">  7  8 -1 -1</clus>
<clus scale="  122.750">  1  7  2 -1</clus>
<clus scale="  155.179">  2  9  1 -1</clus>
<clus scale="   55.163">  2  5  1 -1</clus>
</clustering>
</event>
<event>
10    4  0.7204077E-005  0.2416650E+03  0.7546771E-02  0.1132395E+00
          2   -1    0    0  503    0 -0.00000000000E+00  0.00000000000E+00  0.56944500441E+03  0.56944500441E+03  0.00000000000E+00 0. -1.
         21   -1    0    0  501  502  0.00000000000E+00 -0.00000000000E+00 -0.55517309798E+03  0.55517309798E+03  0.00000000000E+00 0. -1.
         23    2    1    2    0    0  0.49815102929E+02 -0.13982036490E+03  0.42668582456E+02  0.17917048520E+03  0.90830479006E+02 0.  0.
         24    2    1    2    0    0 -0.19538400273E+03 -0.54677840055E+02 -0.15838889713E+03  0.26946102646E+03  0.79734731023E+02 0.  0.
        -13    1    4    4    0    0 -0.36272478457E+02  0.82130248245E+01 -0.13325661944E+01  0.37214542895E+02  0.00000000000E+00 0.  1.
         14    1    4    4    0    0 -0.15911152427E+03 -0.62890864879E+02 -0.15705633094E+03  0.23224648356E+03  0.00000000000E+00 0. -1.
        -11    1    3    3    0    0  0.69983774123E+02 -0.76278783003E+02  0.74826548192E+01  0.10378907216E+03  0.00000000000E+00 0. -1.
         11    1    3    3    0    0 -0.20168671194E+02 -0.63541581897E+02  0.35185927637E+02  0.75381413037E+02  0.00000000000E+00 0.  1.
         21    1    1    2  503  502 -0.39302729519E+02 -0.15888452282E+01 -0.22605256032E+03  0.22944931686E+03  0.00000000000E+00 0. -1.
          1    1    1    2  501    0  0.18487162932E+03  0.19608705018E+03  0.35604478144E+03  0.44653727388E+03  0.00000000000E+00 0. -1.
<scales pt_clust_5="13000.00000" pt_clust_6="13000.00000" pt_clust_7="13000.00000" pt_clust_8="13000.00000" pt_clust_9="39.33483" pt_clust_10="228.13246"></scales>
<clustering>
<clus scale="   39.335">  2  9  1 -1</clus>
<clus scale="   79.735">  5  6 -1 -1</clus>
<clus scale="   90.830">  7  8 -1 -1</clus>
<clus scale="  172.119">  1  7  2 -1</clus>
<clus scale="  228.132">  2 10  1 -1</clus>
<clus scale="   39.335">  2  5  1 -1</clus>
</clustering>
</event>
<event>
10    4  0.7204077E-005  0.9842409E+02  0.7546771E-02  0.1285168E+00
          2   -1    0    0  503    0 -0.00000000000E+00  0.00000000000E+00  0.14550121811E+03  0.14550121811E+03  0.00000000000E+00 0. -1.
         21   -1    0    0  501  502  0.00000000000E+00 -0.00000000000E+00 -0.36375013183E+03  0.36375013183E+03  0.00000000000E+00 0. -1.
         23    2    1    2    0    0  0.99910142957E+00  0.24173177656E+02 -0.28583936956E+02  0.98974296260E+02  0.91616205699E+02 0.  0.
         24    2    1    2    0    0  0.11741167590E+02  0.10740256129E+03 -0.19607730875E+03  0.24301214034E+03  0.94527372532E+02 0.  0.
        -11    1    4    4    0    0 -0.32261940195E+02  0.22333812697E+02 -0.23771977152E+02  0.45877433150E+02  0.00000000000E+00 0.  1.
         12    1    4    4    0    0  0.44003107784E+02  0.85068748593E+02 -0.17230533159E+03  0.19713470719E+03  0.00000000000E+00 0. -1.
        -11    1    3    3    0    0 -0.35960342801E+02  0.13462628492E+02 -0.43212419070E+02  0.57807454382E+02  0.00000000000E+00 0. -1.
         11    1    3    3    0    0  0.36959444231E+02  0.10710549164E+02  0.14628482114E+02  0.41166841878E+02  0.00000000000E+00 0.  1.
         21    1    1    2  503  502 -0.31881022388E+02 -0.74774919352E+02 -0.40811681549E+02  0.90957580791E+02  0.00000000000E+00 0. -1.
          1    1    1    2  501    0  0.19140753368E+02 -0.56800819594E+02  0.47224013530E+02  0.76307332544E+02  0.00000000000E+00 0. -1.
<scales pt_clust_5="13000.00000" pt_clust_6="13000.00000" pt_clust_7="13000.00000" pt_clust_8="13000.00000" pt_clust_9="90.04425" pt_clust_10="59.93918"></scales>
<clustering>
<clus scale="   59.939">  2 10  1 -1</clus>
<clus scale="   90.044">  1  9  2 -1</clus>
<clus scale="   91.616">  7  8 -1 -1</clus>
<clus scale="   94.527">  5  6 -1 -1</clus>
<clus scale="   95.632">  1  7  2 -1</clus>
<clus scale="   59.939">  2  5  1 -1</clus>
</clustering>
</event>
<event>
10    4  0.7204077E-005  0.3489009E+03  0.7546771E-02  0.1063307E+00
          2   -1    0    0  503    0 -0.00000000000E+00  0.00000000000E+00  0.16800757273E+04  0.16800757273E+04  0.00000000000E+00 0. -1.
         21   -1    0    0  501  502  0.00000000000E+00 -0.00000000000E+00 -0.20602097279E+03  0.20602097279E+03  0.00000000000E+00 0. -1.
         24    2    1    2    0    0  0.81997573510E+02  0.34282300752E+03  0.11007699009E+04  0.11586331342E+04  0.80530419456E+02 0.  0.
         23    2    1    2    0    0  0.20788391746E+02 -0.27164712208E+03  0.14390439854E+01  0.28692855131E+03  0.90008924791E+02 0.  0.
        -11    1    3    3    0    0  0.29790283582E+02  0.27405495406E+02  0.15918326138E+03  0.16424930100E+03  0.00000000000E+00 0.  1.
         12    1    3    3    0    0  0.52207289928E+02  0.31541751211E+03  0.94158663952E+03  0.99438383323E+03  0.00000000000E+00 0. -1.
        -11    1    4    4    0    0  0.44921913913E+02 -0.23192851682E+03 -0.17178203086E+02  0.23686263091E+03  0.00000000000E+00 0. -1.
         11    1    4    4    0    0 -0.24133522167E+02 -0.39718605262E+02  0.18617247072E+02  0.50065920392E+02  0.00000000000E+00 0.  1.
         21    1    1    2  503  502 -0.32642332831E+02  0.34265415171E+02 -0.41061109372E+00  0.47326622222E+02  0.00000000000E+00 0. -1.
          1    1    1    2  501    0 -0.70143632426E+02 -0.10544130061E+03  0.37225642072E+03  0.39320839235E+03  0.00000000000E+00 0. -1.
<scales pt_clust_5="13000.00000" pt_clust_6="13000.00000" pt_clust_7="13000.00000" pt_clust_8="13000.00000" pt_clust_9="47.32484" pt_clust_10="126.06825"></scales>
<clustering>
<clus scale="   47.325">  2  9  1 -1</clus>
<clus scale="   80.530">  5  6 -1 -1</clus>
<clus scale="   90.009">  7  8 -1 -1</clus>
<clus scale="  126.068">  2 10  1 -1</clus>
<clus scale="  346.577">  1  5  2 -1</clus>
<clus scale="   47.325">  2  5  1 -1</clus>
</clustering>
</event>
<event>
10    4  0.7204077E-005  0.2341162E+03  0.7546771E-02  0.1124680E+00
          2   -1    0    0  503    0 -0.00000000000E+00  0.00000000000E+00  0.27803629498E+03  0.27803629498E+03  0.00000000000E+00 0. -1.
         21   -1    0    0  501  502  0.00000000000E+00 -0.00000000000E+00 -0.39408382345E+03  0.39408382345E+03  0.00000000000E+00 0.  1.
         24    2    1    2    0    0  0.24032480647E+03 -0.76627449671E+02  0.53647704866E+02  0.26940107836E+03  0.77917174839E+02 0.  0.
         23    2    1    2    0    0 -0.14354007144E+03  0.41365242000E+02 -0.15214199489E+03  0.23224973193E+03  0.92075599487E+02 0.  0.
        -13    1    3    3    0    0  0.23909794894E+03 -0.59700800165E+02  0.54558086215E+02  0.25240562494E+03  0.00000000000E+00 0.  1.
         14    1    3    3    0    0  0.12268575326E+01 -0.16926649506E+02 -0.91038134938E+00  0.16995453424E+02  0.00000000000E+00 0. -1.
        -13    1    4    4    0    0 -0.11226067664E+03  0.54775964582E+02 -0.15385057698E+03  0.19817382736E+03  0.00000000000E+00 0.  1.
         13    1    4    4    0    0 -0.31279394800E+02 -0.13410722582E+02  0.17085820968E+01  0.34075904567E+02  0.00000000000E+00 0. -1.
         21    1    1    2  503  502 -0.50430605237E+02  0.64152835266E+02 -0.60007452524E+02  0.10129030840E+03  0.00000000000E+00 0.  1.
          1    1    1    2  501    0 -0.46354129800E+02 -0.28890627595E+02  0.42454214077E+02  0.69178999741E+02  0.00000000000E+00 0. -1.
<scales pt_clust_5="13000.00000" pt_clust_6="13000.00000" pt_clust_7="13000.00000" pt_clust_8="13000.00000" pt_clust_9="83.65323" pt_clust_10="54.62030"></scales>
<clustering>
<clus scale="   54.620">  2 10  1 -1</clus>
<clus scale="   77.917">  5  6 -1 -1</clus>
<clus scale="   83.653">  2  9  1 -1</clus>
<clus scale="   92.076">  7  8 -1 -1</clus>
<clus scale="  228.918">  1  5  2 -1</clus>
<clus scale="   54.620">  2  5  1 -1</clus>
</clustering>
</event>
<event>
10    4  0.7204077E-005  0.9603433E+02  0.7546771E-02  0.1293848E+00
          2   -1    0    0  503    0 -0.00000000000E+00  0.00000000000E+00  0.32178576447E+03  0.32178576447E+03  0.00000000000E+00 0. -1.
         21   -1    0    0  501  502  0.00000000000E+00 -0.00000000000E+00 -0.70856242382E+02  0.70856242382E+02  0.00000000000E+00 0.  1.
         24    2    1    2    0    0 -0.96355327901E+01 -0.42043654570E+02  0.70886850578E+02  0.11619998267E+03  0.81344809339E+02 0.  0.
         23    2    1    2    0    0  0.58694225047E+01  0.14845588428E+02  0.27944198963E+02  0.96022577845E+02  0.90468865274E+02 0.  0.
        -11    1    3    3    0    0 -0.44371436227E+02 -0.26308035342E+02  0.27571940348E+02  0.58490588738E+02  0.00000000000E+00 0.  1.
         12    1    3    3    0    0  0.34735903436E+02 -0.15735619228E+02  0.43314910230E+02  0.57709393934E+02  0.00000000000E+00 0. -1.
        -13    1    4    4    0    0 -0.95129661427E+01  0.34334134968E+02 -0.20846316192E+02  0.41278302383E+02  0.00000000000E+00 0.  1.
         13    1    4    4    0    0  0.15382388647E+02 -0.19488546540E+02  0.48790515155E+02  0.54744275462E+02  0.00000000000E+00 0. -1.
         21    1    1    2  503  502 -0.21053536624E+02  0.15454066798E+01 -0.29500718558E+01  0.21315313982E+02  0.00000000000E+00 0.  1.
          1    1    1    2  501    0  0.24819646910E+02  0.25652659462E+02  0.15504854440E+03  0.15910413235E+03  0.00000000000E+00 0. -1.
<scales pt_clust_5="13000.00000" pt_clust_6="13000.00000" pt_clust_7="13000.00000" pt_clust_8="13000.00000" pt_clust_9="21.11018" pt_clust_10="35.23147"></scales>
<clustering>
<clus scale="   21.110">  2  9  1 -1</clus>
<clus scale="   35.231">  2 10  1 -1</clus>
<clus scale="   81.345">  5  6 -1 -1</clus>
<clus scale="   87.493">  1  5  2 -1</clus>
<clus scale="   90.469">  7  8 -1 -1</clus>
<clus scale="   21.110">  2  5  1 -1</clus>
</clustering>
</event>
<event>
10    4  0.7204077E-005  0.9883428E+02  0.7546771E-02  0.1290170E+00
         21   -1    0    0  501  502  0.00000000000E+00  0.00000000000E+00  0.15533874228E+03  0.15533874228E+03  0.00000000000E+00 0.  1.
          2   -1    0    0  503    0 -0.00000000000E+00 -0.00000000000E+00 -0.14685357538E+03  0.14685357538E+03  0.00000000000E+00 0. -1.
         24    2    1    2    0    0  0.15702922611E+02 -0.40436229105E+02 -0.38959770146E+02  0.98117178044E+02  0.78914171952E+02 0.  0.
         23    2    1    2    0    0 -0.19590605730E+02  0.26386494781E+01  0.44082631724E+02  0.10458939119E+03  0.92762643480E+02 0.  0.
        -11    1    3    3    0    0  0.41093287264E+02  0.87525762674E+00 -0.12966439819E+02  0.43099337532E+02  0.00000000000E+00 0.  1.
         12    1    3    3    0    0 -0.25390364653E+02 -0.41311486731E+02 -0.25993330327E+02  0.55017840513E+02  0.00000000000E+00 0. -1.
        -13    1    4    4    0    0  0.21982651881E+02 -0.31132908255E+02  0.53384683004E+01  0.38483687504E+02  0.00000000000E+00 0.  1.
         13    1    4    4    0    0 -0.41573257612E+02  0.33771557733E+02  0.38744163423E+02  0.66105703684E+02  0.00000000000E+00 0. -1.
         21    1    1    2  503  502 -0.30577823681E+02  0.32692002682E+02  0.31471040300E+02  0.54719253631E+02  0.00000000000E+00 0.  1.
          1    1    1    2  501    0  0.34465506800E+02  0.51055769444E+01 -0.28108734972E+02  0.44766494800E+02  0.00000000000E+00 0. -1.
<scales pt_clust_5="13000.00000" pt_clust_6="13000.00000" pt_clust_7="13000.00000" pt_clust_8="13000.00000" pt_clust_9="39.85058" pt_clust_10="34.84163"></scales>
<clustering>
<clus scale="   34.842">  1 10  2 -1</clus>
<clus scale="   39.851">  1  9  2 -1</clus>
<clus scale="   78.914">  5  6 -1 -1</clus>
<clus scale="   85.969">  2  5  1 -1</clus>
<clus scale="   92.763">  7  8 -1 -1</clus>
<clus scale="   34.842">  1  5  2 -1</clus>
</clustering>
</event>
<event>
10    4  0.7204077E-005  0.2876897E+03  0.7546771E-02  0.1128908E+00
          2   -1    0    0  503    0 -0.00000000000E+00  0.00000000000E+00  0.12858284987E+04  0.12858284987E+04  0.00000000000E+00 0. -1.
         21   -1    0    0  501  502  0.00000000000E+00 -0.00000000000E+00 -0.18386412446E+03  0.18386412446E+03  0.00000000000E+00 0.  1.
         24    2    1    2    0    0 -0.68096314898E+02 -0.25623365502E+02  0.19270066964E+03  0.22154516641E+03  0.81578475834E+02 0.  0.
         23    2    1    2    0    0  0.14035766123E+03  0.25611619477E+03  0.30541434984E+03  0.43224005724E+03  0.90872238370E+02 0.  0.
        -11    1    3    3    0    0 -0.33718106991E+02 -0.45238452808E+02  0.57049879500E+02  0.80237878228E+02  0.00000000000E+00 0.  1.
         12    1    3    3    0    0 -0.34378207907E+02  0.19615087307E+02  0.13565079014E+03  0.14130728818E+03  0.00000000000E+00 0. -1.
        -11    1    4    4    0    0  0.37641832589E+02  0.14016082790E+02  0.62110771436E+02  0.73966925486E+02  0.00000000000E+00 0. -1.
         11    1    4    4    0    0  0.10271582865E+03  0.24210011198E+03  0.24330357841E+03  0.35827313176E+03  0.00000000000E+00 0.  1.
         21    1    1    2  503  502 -0.22963312054E+02  0.89535903206E+01 -0.83140074049E+02  0.86716505886E+02  0.00000000000E+00 0.  1.
          1    1    1    2  501    0 -0.49298034283E+02 -0.23944641958E+03  0.68698942883E+03  0.72919089363E+03  0.00000000000E+00 0. -1.
<scales pt_clust_5="13000.00000" pt_clust_6="13000.00000" pt_clust_7="13000.00000" pt_clust_8="13000.00000" pt_clust_9="24.64712" pt_clust_10="272.96095"></scales>
<clustering>
<clus scale="   24.647">  2  9  1 -1</clus>
<clus scale="   81.578">  5  6 -1 -1</clus>
<clus scale="   90.872">  7  8 -1 -1</clus>
<clus scale="  111.133">  1  5  2 -1</clus>
<clus scale="  272.961">  2 10  1 -1</clus>
<clus scale="   24.647">  2  5  1 -1</clus>
</clustering>
</event>
<event>
10    4  0.1182866E-004  0.3876695E+03  0.7546771E-02  0.1099533E+00
         21   -1    0    0  501  502  0.00000000000E+00  0.00000000000E+00  0.20017076262E+03  0.20017076262E+03  0.00000000000E+00 0. -1.
          2   -1    0    0  503    0 -0.00000000000E+00 -0.00000000000E+00 -0.10760109981E+04  0.10760109981E+04  0.00000000000E+00 0. -1.
         23    2    1    2    0    0  0.89858888569E+01 -0.34396788180E+02 -0.10557651206E+03  0.14314699637E+03  0.89893144544E+02 0.  0.
         24    2    1    2    0    0  0.38187998347E+03 -0.36761935333E+02 -0.25744466968E+03  0.46891772188E+03  0.80139317928E+02 0.  0.
        -11    1    4    4    0    0  0.54995475735E+02 -0.17501177626E+01 -0.66499459307E+01  0.55423704715E+02  0.00000000000E+00 0.  1.
         12    1    4    4    0    0  0.32688450773E+03 -0.35011817571E+02 -0.25079472375E+03  0.41349401716E+03  0.00000000000E+00 0. -1.
        -13    1    3    3    0    0 -0.20765762360E+02 -0.41656545612E+02 -0.17211739050E+02  0.49625886792E+02  0.00000000000E+00 0.  1.
         13    1    3    3    0    0  0.29751651217E+02  0.72597574326E+01 -0.88364773006E+02  0.93521109578E+02  0.00000000000E+00 0. -1.
         21    1    1    2  503  502 -0.12128899774E+02  0.33103430373E+02 -0.17292889886E+02  0.39268197728E+02  0.00000000000E+00 0.  1.
          1    1    1    2  501    0 -0.37873697255E+03  0.38055293140E+02 -0.49552616383E+03  0.62484884472E+03  0.00000000000E+00 0. -1.
<scales pt_clust_5="13000.00000" pt_clust_6="13000.00000" pt_clust_7="13000.00000" pt_clust_8="13000.00000" pt_clust_9="35.25546" pt_clust_10="379.29607"></scales>
<clustering>
<clus scale="   35.255">  1  9  2 -1</clus>
<clus scale="   80.139">  5  6 -1 -1</clus>
<clus scale="   89.893">  7  8 -1 -1</clus>
<clus scale="   95.442">  2  7  1 -1</clus>
<clus scale="  379.296">  1 10  2 -1</clus>
<clus scale="   35.255">  1  5  2 -1</clus>
</clustering>
</event>
<event>
10    4  0.7204077E-005  0.1205775E+03  0.7546771E-02  0.1247255E+00
         -1   -1    0    0    0  501 -0.00000000000E+00  0.00000000000E+00  0.34366277918E+03  0.34366277918E+03  0.00000000000E+00 0.  1.
         21   -1    0    0  501  502  0.00000000000E+00 -0.00000000000E+00 -0.20427107832E+03  0.20427107832E+03  0.00000000000E+00 0.  1.
         24    2    1    2    0    0  0.44744784722E+02  0.59711534338E+02  0.23071770904E+03  0.25366114500E+03  0.74469806803E+02 0.  0.
         23    2    1    2    0    0 -0.21940184813E+02 -0.10737384406E+03  0.38671711739E+02  0.14750263497E+03  0.90835080969E+02 0.  0.
        -11    1    3    3    0    0  0.20265036331E+02  0.68997338866E+02  0.20377978167E+03  0.21609605245E+03  0.00000000000E+00 0.  1.
         12    1    3    3    0    0  0.24479748391E+02 -0.92858045282E+01  0.26937927366E+02  0.37565092543E+02  0.00000000000E+00 0. -1.
        -13    1    4    4    0    0  0.27387593143E+02 -0.59920828803E+02 -0.53841711207E+01  0.66102763038E+02  0.00000000000E+00 0.  1.
         13    1    4    4    0    0 -0.49327777956E+02 -0.47453015259E+02  0.44055882860E+02  0.81399871927E+02  0.00000000000E+00 0. -1.
         21    1    1    2  503  502 -0.14227256723E+02  0.21890239583E+02 -0.18464530886E+02  0.31977121880E+02  0.00000000000E+00 0. -1.
         -2    1    1    2    0  503 -0.85773431864E+01  0.25772070141E+02 -0.11153318903E+03  0.11479295566E+03  0.00000000000E+00 0.  1.
<scales pt_clust_5="13000.00000" pt_clust_6="13000.00000" pt_clust_7="13000.00000" pt_clust_8="13000.00000" pt_clust_9="26.10742" pt_clust_10="43.32898"></scales>
<clustering>
<clus scale="   26.107">  2  9  1 -1</clus>
<clus scale="   43.329">  2 10  1 -1</clus>
<clus scale="   74.470">  5  6 -1 -1</clus>
<clus scale="   90.835">  7  8 -1 -1</clus>
<clus scale="  108.783">  1  5  2 -1</clus>
<clus scale="   26.107">  2  5  1 -1</clus>
</clustering>
</event>
<event>
10    4  0.7204077E-005  0.4184295E+03  0.7546771E-02  0.1075713E+00
         21   -1    0    0  501  502  0.00000000000E+00  0.00000000000E+00  0.21148101314E+03  0.21148101314E+03  0.00000000000E+00 0. -1.
          2   -1    0    0  503    0 -0.00000000000E+00 -0.00000000000E+00 -0.16321910467E+04  0.16321910467E+04  0.00000000000E+00 0. -1.
         24    2    1    2    0    0  0.18387530269E+02 -0.11572510241E+03 -0.51677853076E+03  0.53573910532E+03  0.78904616566E+02 0.  0.
         23    2    1    2    0    0  0.26579672562E+03 -0.21346409965E+03 -0.64309486512E+03  0.73350079376E+03  0.90761157549E+02 0.  0.
        -13    1    3    3    0    0  0.41393177376E+02 -0.29538059933E+02 -0.22251876426E+03  0.22825532319E+03  0.00000000000E+00 0.  1.
         14    1    3    3    0    0 -0.23005647107E+02 -0.86187042475E+02 -0.29425976650E+03  0.30748378212E+03  0.00000000000E+00 0. -1.
        -13    1    4    4    0    0  0.38361026088E+02 -0.76329857033E+02 -0.12661328158E+03  0.15273748220E+03  0.00000000000E+00 0.  1.
         13    1    4    4    0    0  0.22743569953E+03 -0.13713424262E+03 -0.51648158354E+03  0.58076331156E+03  0.00000000000E+00 0. -1.
         21    1    1    2  503  502 -0.85309003916E+01 -0.43359062676E+02 -0.45430567981E+02  0.63377607123E+02  0.00000000000E+00 0. -1.
          1    1    1    2  501    0 -0.27565335549E+03  0.37254826473E+03 -0.21540606975E+03  0.51105455368E+03  0.00000000000E+00 0. -1.
<scales pt_clust_5="13000.00000" pt_clust_6="13000.00000" pt_clust_7="13000.00000" pt_clust_8="13000.00000" pt_clust_9="44.19032" pt_clust_10="408.46745"></scales>
<clustering>
<clus scale="   44.190">  1  9  2 -1</clus>
<clus scale="   78.905">  5  6 -1 -1</clus>
<clus scale="   90.761">  7  8 -1 -1</clus>
<clus scale="  142.884">  2  5  1 -1</clus>
<clus scale="  408.467">  1 10  2 -1</clus>
<clus scale="   44.190">  1  5  2 -1</clus>
</clustering>
</event>
<event>
10    4  0.7204077E-005  0.3075514E+03  0.7546771E-02  0.1102509E+00
         21   -1    0    0  501  502  0.00000000000E+00  0.00000000000E+00  0.39718017979E+03  0.39718017979E+03  0.00000000000E+00 0. -1.
          2   -1    0    0  503    0 -0.00000000000E+00 -0.00000000000E+00 -0.57996358210E+03  0.57996358210E+03  0.00000000000E+00 0. -1.
         24    2    1    2    0    0 -0.13047998473E+03  0.97604053027E+02 -0.14982045284E+03  0.23594574835E+03  0.81686293155E+02 0.  0.
         23    2    1    2    0    0 -0.19877938210E+03 -0.11186473909E+03 -0.54164274275E+02  0.25203441681E+03  0.92523597234E+02 0.  0.
        -13    1    3    3    0    0 -0.84043935406E+02  0.45294103947E+02 -0.13348989714E+03  0.16411731039E+03  0.00000000000E+00 0.  1.
         14    1    3    3    0    0 -0.46436049328E+02  0.52309949080E+02 -0.16330555703E+02  0.71828437958E+02  0.00000000000E+00 0. -1.
        -11    1    4    4    0    0 -0.38413408913E+02  0.14963166297E+02 -0.33684777504E+01  0.41362216724E+02  0.00000000000E+00 0.  1.
         11    1    4    4    0    0 -0.16036597319E+03 -0.12682790539E+03 -0.50795796525E+02  0.21067220008E+03  0.00000000000E+00 0. -1.
         21    1    1    2  503  502 -0.19917130772E+02 -0.11345858635E+03 -0.12337690585E+02  0.11585232636E+03  0.00000000000E+00 0. -1.
          1    1    1    2  501    0  0.34917649761E+03  0.12771927242E+03  0.33539015395E+02  0.37331127037E+03  0.00000000000E+00 0. -1.
<scales pt_clust_5="13000.00000" pt_clust_6="13000.00000" pt_clust_7="13000.00000" pt_clust_8="13000.00000" pt_clust_9="115.19350" pt_clust_10="293.30406"></scales>
<clustering>
<clus scale="   81.686">  5  6 -1 -1</clus>
<clus scale="   92.524">  7  8 -1 -1</clus>
<clus scale="  115.194">  1  9  2 -1</clus>
<clus scale="  176.967">  2  5  1 -1</clus>
<clus scale="  293.304">  1 10  2 -1</clus>
<clus scale="  115.194">  1  5  2 -1</clus>
</clustering>
</event>
<event>
10    4  0.7204077E-005  0.2182766E+03  0.7546771E-02  0.1163898E+00
         21   -1    0    0  501  502  0.00000000000E+00  0.00000000000E+00  0.30968933461E+03  0.30968933461E+03  0.00000000000E+00 0. -1.
          2   -1    0    0  503    0 -0.00000000000E+00 -0.00000000000E+00 -0.26726672779E+03  0.26726672779E+03  0.00000000000E+00 0. -1.
         24    2    1    2    0    0  0.55179473778E+02  0.56712985083E+02  0.25880844761E+01  0.11329269635E+03  0.81039495692E+02 0.  0.
         23    2    1    2    0    0 -0.19306362055E+03  0.80267258807E+02 -0.34475305094E+02  0.23016378301E+03  0.89835549373E+02 0.  0.
        -13    1    3    3    0    0  0.69880695766E+02  0.60472274733E+02  0.15083120096E+02  0.93636040946E+02  0.00000000000E+00 0.  1.
         14    1    3    3    0    0 -0.14701221989E+02 -0.37592896495E+01 -0.12495035619E+02  0.19656655406E+02  0.00000000000E+00 0. -1.
        -11    1    4    4    0    0 -0.68224363391E+02  0.12966015527E+01 -0.45528155338E+02  0.82030834838E+02  0.00000000000E+00 0.  1.
         11    1    4    4    0    0 -0.12483925716E+03  0.78970657254E+02  0.11052850244E+02  0.14813294817E+03  0.00000000000E+00 0. -1.
         21    1    1    2  503  502 -0.16172745910E+02 -0.12484509197E+02  0.18876926096E+02  0.27816524208E+02  0.00000000000E+00 0.  1.
          1    1    1    2  501    0  0.15405689268E+03 -0.12449573469E+03  0.55432901340E+02  0.20568305883E+03  0.00000000000E+00 0. -1.
<scales pt_clust_5="13000.00000" pt_clust_6="13000.00000" pt_clust_7="13000.00000" pt_clust_8="13000.00000" pt_clust_9="20.43088" pt_clust_10="198.93277"></scales>
<clustering>
<clus scale="   20.431">  1  9  2 -1</clus>
<clus scale="   81.039">  5  6 -1 -1</clus>
<clus scale="   89.836">  7  8 -1 -1</clus>
<clus scale="  110.444">  2  5  1 -1</clus>
<clus scale="  198.933">  1 10  2 -1</clus>
<clus scale="   20.431">  1  5  2 -1</clus>
</clustering>
</event>
<event>
10    4  0.7204077E-005  0.2910719E+03  0.7546771E-02  0.1124981E+00
         21   -1    0    0  501  502  0.00000000000E+00  0.00000000000E+00  0.18991850110E+03  0.18991850110E+03  0.00000000000E+00 0.  1.
          2   -1    0    0  503    0 -0.00000000000E+00 -0.00000000000E+00 -0.23758540942E+04  0.23758540942E+04  0.00000000000E+00 0. -1.
         24    2    1    2    0    0 -0.75121988799E+02  0.39303480937E+02 -0.80338733106E+03  0.81154426371E+03  0.77361563019E+02 0.  0.
         23    2    1    2    0    0  0.29321859810E+03 -0.20323646527E+03 -0.60710289249E+03  0.71002179235E+03  0.90966018084E+02 0.  0.
        -11    1    3    3    0    0 -0.30101731570E+01 -0.20130815365E+02 -0.10744057794E+03  0.10935167424E+03  0.00000000000E+00 0.  1.
         12    1    3    3    0    0 -0.72111815642E+02  0.59434296302E+02 -0.69594675312E+03  0.70219258947E+03  0.00000000000E+00 0. -1.
        -13    1    4    4    0    0  0.60321441277E+02 -0.55985208588E+02 -0.21981118032E+03  0.23471253663E+03  0.00000000000E+00 0. -1.
         13    1    4    4    0    0  0.23289715682E+03 -0.14725125668E+03 -0.38729171218E+03  0.47530925572E+03  0.00000000000E+00 0.  1.
         21    1    1    2  503  502 -0.88044606466E+02 -0.30894281862E+01  0.10592415819E+03  0.13777272801E+03  0.00000000000E+00 0.  1.
          1    1    1    2  501    0 -0.13005200283E+03  0.16702241252E+03 -0.88136952775E+03  0.90643381125E+03  0.00000000000E+00 0. -1.
<scales pt_clust_5="13000.00000" pt_clust_6="13000.00000" pt_clust_7="13000.00000" pt_clust_8="13000.00000" pt_clust_9="88.09879" pt_clust_10="276.49254"></scales>
<clustering>
<clus scale="   77.362">  5  6 -1 -1</clus>
<clus scale="   88.099">  1  9  2 -1</clus>
<clus scale="   90.966">  7  8 -1 -1</clus>
<clus scale="  118.232">  2  5  1 -1</clus>
<clus scale="  276.493">  1 10  2 -1</clus>
<clus scale="   88.099">  1  5  2 -1</clus>
</clustering>
</event>
<event>
10    4  0.7204077E-005  0.1007757E+03  0.7546771E-02  0.1287180E+00
         21   -1    0    0  503  502  0.00000000000E+00  0.00000000000E+00  0.62955402253E+02  0.62955402253E+02  0.00000000000E+00 0. -1.
          2   -1    0    0  502    0 -0.00000000000E+00 -0.00000000000E+00 -0.65450912485E+03  0.65450912485E+03  0.00000000000E+00 0. -1.
         24    2    1    2    0    0  0.19994558432E+02 -0.15797944922E+02 -0.33015281928E+03  0.34093233776E+03  0.81145655565E+02 0.  0.
         23    2    1    2    0    0 -0.45864295350E+02 -0.43684157944E+01 -0.11344800833E+03  0.15612679390E+03  0.96863349808E+02 0.  0.
        -11    1    3    3    0    0  0.30034346404E+02  0.61384153471E+01 -0.43223904197E+02  0.52991018116E+02  0.00000000000E+00 0.  1.
         12    1    3    3    0    0 -0.10039787972E+02 -0.21936360269E+02 -0.28692891508E+03  0.28794131964E+03  0.00000000000E+00 0. -1.
        -13    1    4    4    0    0  0.43409930816E+01  0.20250791654E+02  0.81747416865E+01  0.22265785079E+02  0.00000000000E+00 0. -1.
         13    1    4    4    0    0 -0.50205288432E+02 -0.24619207449E+02 -0.12162275001E+03  0.13386100882E+03  0.00000000000E+00 0.  1.
         21    1    1    2  503  501 -0.27939063695E+02  0.11098532303E+02  0.24968010992E+02  0.39079025990E+02  0.00000000000E+00 0. -1.
          1    1    1    2  501    0  0.53808800613E+02  0.90678284139E+01 -0.17292090598E+03  0.18132636945E+03  0.00000000000E+00 0. -1.
<scales pt_clust_5="13000.00000" pt_clust_6="13000.00000" pt_clust_7="13000.00000" pt_clust_8="13000.00000" pt_clust_9="30.06275" pt_clust_10="51.11869"></scales>
<clustering>
<clus scale="   30.063">  1  9  2 -1</clus>
<clus scale="   51.119">  1 10  2 -1</clus>
<clus scale="   81.146">  5  6 -1 -1</clus>
<clus scale="   85.778">  2  5  1 -1</clus>
<clus scale="   96.863">  7  8 -1 -1</clus>
<clus scale="   30.063">  1  5  2 -1</clus>
</clustering>
</event>
<event>
10    4  0.7204077E-005  0.1555224E+03  0.7546771E-02  0.1201819E+00
         21   -1    0    0  501  502  0.00000000000E+00  0.00000000000E+00  0.57166391653E+03  0.57166391653E+03  0.00000000000E+00 0. -1.
          2   -1    0    0  503    0 -0.00000000000E+00 -0.00000000000E+00 -0.94327071550E+03  0.94327071550E+03  0.00000000000E+00 0. -1.
         24    2    1    2    0    0 -0.26999981364E+02  0.10997848892E+03 -0.11523177625E+03  0.17762064312E+03  0.73800159796E+02 0.  0.
         23    2    1    2    0    0  0.13268862674E+03  0.79940982096E+01 -0.66291449616E+02  0.17271597096E+03  0.88125325877E+02 0.  0.
        -13    1    3    3    0    0  0.11981061059E+02  0.16712717525E+02 -0.57825504626E+02  0.61373037536E+02  0.00000000000E+00 0.  1.
         14    1    3    3    0    0 -0.38981042423E+02  0.93265771397E+02 -0.57406271628E+02  0.11624760559E+03  0.00000000000E+00 0. -1.
        -11    1    4    4    0    0  0.98399064123E+02 -0.38101924040E+01 -0.15211795451E+01  0.98484553985E+02  0.00000000000E+00 0. -1.
         11    1    4    4    0    0  0.34289562615E+02  0.11804290614E+02 -0.64770270070E+02  0.74231416976E+02  0.00000000000E+00 0.  1.
         21    1    1    2  503  502 -0.10307447379E+03 -0.16659867688E+02  0.47779670551E+03  0.48907217272E+03  0.00000000000E+00 0. -1.
          1    1    1    2  501    0 -0.26141715794E+01 -0.10131271944E+03 -0.66788027860E+03  0.67552584522E+03  0.00000000000E+00 0. -1.
<scales pt_clust_5="13000.00000" pt_clust_6="13000.00000" pt_clust_7="13000.00000" pt_clust_8="13000.00000" pt_clust_9="128.14500" pt_clust_10="101.34649"></scales>
<clustering>
<clus scale="   73.800">  5  6 -1 -1</clus>
<clus scale="   88.125">  7  8 -1 -1</clus>
<clus scale="  101.346">  1 10  2 -1</clus>
<clus scale="  130.711">  2  5  1 -1</clus>
<clus scale="  128.145">  1  9  2 -1</clus>
<clus scale="  101.346">  1  5  2 -1</clus>
</clustering>
</event>
<event>
10    4  0.7204077E-005  0.1368244E+03  0.7546771E-02  0.1219749E+00
         21   -1    0    0  503  502  0.00000000000E+00  0.00000000000E+00  0.31795732186E+03  0.31795732186E+03  0.00000000000E+00 0.  1.
         -1   -1    0    0    0  501 -0.00000000000E+00 -0.00000000000E+00 -0.21100667323E+03  0.21100667323E+03  0.00000000000E+00 0.  1.
         24    2    1    2    0    0 -0.97554297546E+02  0.37843768543E+02 -0.15056918951E+03  0.20069707337E+03  0.81604182757E+02 0.  0.
         23    2    1    2    0    0  0.73231886327E+02 -0.40571588834E+02  0.20264471673E+03  0.23728423656E+03  0.90719152910E+02 0.  0.
        -13    1    3    3    0    0  0.30559607105E+00  0.34326658758E+02 -0.46531443749E+02  0.57823768018E+02  0.00000000000E+00 0.  1.
         14    1    3    3    0    0 -0.97859893617E+02  0.35171097854E+01 -0.10403774576E+03  0.14287330535E+03  0.00000000000E+00 0. -1.
        -13    1    4    4    0    0  0.32109627070E+02  0.20833398173E+02  0.27336657104E+02  0.47035640228E+02  0.00000000000E+00 0. -1.
         13    1    4    4    0    0  0.41122259257E+02 -0.61404987007E+02  0.17530805963E+03  0.19024859633E+03  0.00000000000E+00 0.  1.
         21    1    1    2  503  501 -0.20409338908E+02  0.29306248315E+01  0.37885321611E+02  0.43132670566E+02  0.00000000000E+00 0. -1.
         -2    1    1    2    0  502  0.44731750127E+02 -0.20280454080E+00  0.16989799795E+02  0.47850014589E+02  0.00000000000E+00 0.  1.
<scales pt_clust_5="13000.00000" pt_clust_6="13000.00000" pt_clust_7="13000.00000" pt_clust_8="13000.00000" pt_clust_9="20.61867" pt_clust_10="42.34714"></scales>
<clustering>
<clus scale="   20.619">  1  9  2 -1</clus>
<clus scale="   42.347">  1 10  2 -1</clus>
<clus scale="   81.604">  5  6 -1 -1</clus>
<clus scale="   90.719">  7  8 -1 -1</clus>
<clus scale="  130.959">  2  5  1 -1</clus>
<clus scale="   20.619">  1  5  2 -1</clus>
</clustering>
</event>
<event>
10    4  0.7204077E-005  0.3870912E+03  0.7546771E-02  0.1105427E+00
         21   -1    0    0  501  502  0.00000000000E+00  0.00000000000E+00  0.13617821420E+03  0.13617821420E+03  0.00000000000E+00 0. -1.
          2   -1    0    0  503    0 -0.00000000000E+00 -0.00000000000E+00 -0.23085713851E+04  0.23085713851E+04  0.00000000000E+00 0. -1.
         24    2    1    2    0    0 -0.43790222332E+01 -0.99404369326E+01 -0.27902678270E+03  0.29089563489E+03  0.81525068639E+02 0.  0.
         23    2    1    2    0    0  0.16270683270E+03 -0.33384052217E+03 -0.14715745956E+04  0.15211471540E+04  0.10214629780E+03 0.  0.
        -11    1    3    3    0    0 -0.39083747391E+01  0.27174898524E+02 -0.37185416887E+02  0.46222351000E+02  0.00000000000E+00 0.  1.
         12    1    3    3    0    0 -0.47064749406E+00 -0.37115335457E+02 -0.24184136581E+03  0.24467328389E+03  0.00000000000E+00 0. -1.
        -13    1    4    4    0    0  0.92606668734E+02 -0.21854787969E+03 -0.11129370335E+04  0.11379666126E+04  0.00000000000E+00 0. -1.
         13    1    4    4    0    0  0.70100163970E+02 -0.11529264248E+03 -0.35863756211E+03  0.38318054146E+03  0.00000000000E+00 0.  1.
         21    1    1    2  503  502 -0.23599674396E+02  0.68844111716E+00  0.37183152671E+02  0.44045492679E+02  0.00000000000E+00 0. -1.
          1    1    1    2  501    0 -0.13472813608E+03  0.34309251799E+03 -0.45897494524E+03  0.58866131766E+03  0.00000000000E+00 0. -1.
<scales pt_clust_5="13000.00000" pt_clust_6="13000.00000" pt_clust_7="13000.00000" pt_clust_8="13000.00000" pt_clust_9="23.60971" pt_clust_10="373.37074"></scales>
<clustering>
<clus scale="   23.610">  1  9  2 -1</clus>
<clus scale="   81.525">  5  6 -1 -1</clus>
<clus scale="   82.331">  2  5  1 -1</clus>
<clus scale="  102.146">  7  8 -1 -1</clus>
<clus scale="  373.371">  1 10  2 -1</clus>
<clus scale="   23.610">  1  5  2 -1</clus>
</clustering>
</event>
<event>
10    4  0.7204077E-005  0.9388795E+02  0.7546771E-02  0.1301043E+00
         21   -1    0    0  503  502  0.00000000000E+00  0.00000000000E+00  0.73224322489E+02  0.73224322489E+02  0.00000000000E+00 0. -1.
          2   -1    0    0  502    0 -0.00000000000E+00 -0.00000000000E+00 -0.78538650863E+03  0.78538650863E+03  0.00000000000E+00 0. -1.
         24    2    1    2    0    0  0.22916255720E+01  0.14930832430E+01 -0.19839953988E+03  0.21392713535E+03  0.79968499843E+02 0.  0.
         23    2    1    2    0    0 -0.46284872382E+02 -0.87233628319E+02 -0.72239334183E+02  0.15317866314E+03  0.92158483687E+02 0.  0.
        -11    1    3    3    0    0 -0.20262201080E+02  0.33799808108E+02 -0.80701401750E+02  0.89809242649E+02  0.00000000000E+00 0.  1.
         12    1    3    3    0    0  0.22553826652E+02 -0.32306724865E+02 -0.11769813813E+03  0.12411789270E+03  0.00000000000E+00 0. -1.
        -11    1    4    4    0    0 -0.36839292481E+02 -0.37398095107E+02  0.12916520343E+02  0.54060960830E+02  0.00000000000E+00 0. -1.
         11    1    4    4    0    0 -0.94455799013E+01 -0.49835533212E+02 -0.85155854526E+02  0.99117702305E+02  0.00000000000E+00 0.  1.
         21    1    1    2  503  501  0.30714481857E+02  0.27333191769E+02  0.46060345703E+01  0.41372676037E+02  0.00000000000E+00 0. -1.
          1    1    1    2  501    0  0.13278764953E+02  0.58407353307E+02 -0.44612934664E+03  0.45013235660E+03  0.00000000000E+00 0. -1.
<scales pt_clust_5="13000.00000" pt_clust_6="13000.00000" pt_clust_7="13000.00000" pt_clust_8="13000.00000" pt_clust_9="41.11548" pt_clust_10="61.23844"></scales>
<clustering>
<clus scale="   41.115">  1  9  2 -1</clus>
<clus scale="   61.238">  1 10  2 -1</clus>
<clus scale="   79.968">  5  6 -1 -1</clus>
<clus scale="   81.956">  2  5  1 -1</clus>
<clus scale="   92.158">  7  8 -1 -1</clus>
<clus scale="   41.115">  1  5  2 -1</clus>
</clustering>
</event>
<event>
10    4  0.7204077E-005  0.1301240E+03  0.7546771E-02  0.1231064E+00
         21   -1    0    0  501  502  0.00000000000E+00  0.00000000000E+00  0.36050776064E+03  0.36050776064E+03  0.00000000000E+00 0. -1.
         -1   -1    0    0    0  501 -0.00000000000E+00 -0.00000000000E+00 -0.98337364815E+02  0.98337364815E+02  0.00000000000E+00 0.  1.
         24    2    1    2    0    0  0.42139698930E+02  0.39445525914E+02  0.89312868294E+02  0.13031397955E+03  0.75320920611E+02 0.  0.
         23    2    1    2    0    0 -0.12781287443E+03 -0.56248973692E+02  0.78877499922E+02  0.18399149460E+03  0.90172790691E+02 0.  0.
        -11    1    3    3    0    0  0.20155000191E+02 -0.21785941087E+02  0.31507332807E+02  0.43284677224E+02  0.00000000000E+00 0.  1.
         12    1    3    3    0    0  0.21984698739E+02  0.61231467001E+02  0.57805535487E+02  0.87029302323E+02  0.00000000000E+00 0. -1.
        -11    1    4    4    0    0 -0.19151909723E+02  0.92211373912E+01  0.49360164540E+02  0.53742449369E+02  0.00000000000E+00 0. -1.
         11    1    4    4    0    0 -0.10866096471E+03 -0.65470111084E+02  0.29517335382E+02  0.13024904523E+03  0.00000000000E+00 0.  1.
         21    1    1    2  503  502  0.21456200742E+02 -0.16156573580E+02  0.57935973269E+02  0.63859066848E+02  0.00000000000E+00 0.  1.
         -2    1    1    2    0  503  0.64216974756E+02  0.32960021359E+02  0.36044054336E+02  0.80680584454E+02  0.00000000000E+00 0.  1.
<scales pt_clust_5="13000.00000" pt_clust_6="13000.00000" pt_clust_7="13000.00000" pt_clust_8="13000.00000" pt_clust_9="26.85895" pt_clust_10="74.61161"></scales>
<clustering>
<clus scale="   26.859">  1  9  2 -1</clus>
<clus scale="   74.612">  1 10  2 -1</clus>
<clus scale="   75.321">  5  6 -1 -1</clus>
<clus scale="   90.173">  7  8 -1 -1</clus>
<clus scale="  120.309">  2  5  1 -1</clus>
<clus scale="   26.859">  1  5  2 -1</clus>
</clustering>
</event>
<event>
10    4  0.7204077E-005  0.1846202E+03  0.7546771E-02  0.1164668E+00
         -3   -1    0    0    0  501 -0.00000000000E+00  0.00000000000E+00  0.16139144222E+04  0.16139144222E+04  0.00000000000E+00 0.  1.
         21   -1    0    0  501  502  0.00000000000E+00 -0.00000000000E+00 -0.36908706473E+02  0.36908706473E+02  0.00000000000E+00 0.  1.
         23    2    1    2    0    0  0.18437489983E+03 -0.13514475221E+01  0.92431111803E+03  0.94690349072E+03  0.90990371579E+02 0.  0.
         24    2    1    2    0    0 -0.13184539686E+03  0.31200368627E+02  0.46344446058E+03  0.48937085084E+03  0.79664232453E+02 0.  0.
        -13    1    4    4    0    0 -0.38217526502E+02 -0.15742608847E+02  0.62193296724E+02  0.74675399045E+02  0.00000000000E+00 0.  1.
         14    1    4    4    0    0 -0.93627870362E+02  0.46942977473E+02  0.40125116386E+03  0.41469545180E+03  0.00000000000E+00 0. -1.
        -11    1    3    3    0    0  0.13307090123E+03 -0.14914708451E+02  0.80849510219E+03  0.81950878186E+03  0.00000000000E+00 0.  1.
         11    1    3    3    0    0  0.51303998601E+02  0.13563260929E+02  0.11581601584E+03  0.12739470886E+03  0.00000000000E+00 0. -1.
         21    1    1    2  503  502 -0.27274220108E+01 -0.29088962050E+02  0.14074696622E+02  0.32429980404E+02  0.00000000000E+00 0.  1.
         -4    1    1    2    0  503 -0.49802080960E+02 -0.75995905419E+00  0.17517544047E+03  0.18211880669E+03  0.00000000000E+00 0.  1.
<scales pt_clust_5="13000.00000" pt_clust_6="13000.00000" pt_clust_7="13000.00000" pt_clust_8="13000.00000" pt_clust_9="29.21655" pt_clust_10="50.33635"></scales>
<clustering>
<clus scale="   29.217">  2  9  1 -1</clus>
<clus scale="   50.336">  2 10  1 -1</clus>
<clus scale="   79.664">  5  6 -1 -1</clus>
<clus scale="   90.990">  7  8 -1 -1</clus>
<clus scale="  179.309">  2  5  1 -1</clus>
<clus scale="   29.217">  2  5  1 -1</clus>
</clustering>
</event>
<event>
10    4  0.7204077E-005  0.1342740E+03  0.7546771E-02  0.1225256E+00
          2   -1    0    0  502    0 -0.00000000000E+00  0.00000000000E+00  0.51458254956E+03  0.51458254956E+03  0.00000000000E+00 0. -1.
         21   -1    0    0  503  502  0.00000000000E+00 -0.00000000000E+00 -0.27517516559E+03  0.27517516559E+03  0.00000000000E+00 0. -1.
         24    2    1    2    0    0  0.92851225989E+02  0.24412747193E+02  0.44319961400E+03  0.46030280990E+03  0.78964843820E+02 0.  0.
         23    2    1    2    0    0 -0.96213661026E+02  0.57556035109E+02 -0.67722207309E+02  0.16177184097E+03  0.94942432150E+02 0.  0.
        -11    1    3    3    0    0  0.33927892797E+02 -0.28167827352E+02  0.19116993479E+03  0.19618988856E+03  0.00000000000E+00 0.  1.
         12    1    3    3    0    0  0.58923333192E+02  0.52580574545E+02  0.25202967921E+03  0.26411292134E+03  0.00000000000E+00 0. -1.
        -11    1    4    4    0    0 -0.52461411961E+02 -0.18181425679E+02 -0.44822880921E+02  0.71357232561E+02  0.00000000000E+00 0.  1.
         11    1    4    4    0    0 -0.43752249066E+02  0.75737460788E+02 -0.22899326388E+02  0.90414608410E+02  0.00000000000E+00 0. -1.
         21    1    1    2  503  501 -0.10413206569E+02 -0.18714691693E+02 -0.57586540767E+01  0.22177390581E+02  0.00000000000E+00 0. -1.
          1    1    1    2  501    0  0.13775641606E+02 -0.63254090608E+02 -0.13031136864E+03  0.14550567370E+03  0.00000000000E+00 0. -1.
<scales pt_clust_5="13000.00000" pt_clust_6="13000.00000" pt_clust_7="13000.00000" pt_clust_8="13000.00000" pt_clust_9="21.41669" pt_clust_10="73.60179"></scales>
<clustering>
<clus scale="   21.417">  2  9  1 -1</clus>
<clus scale="   73.602">  2 10  1 -1</clus>
<clus scale="   78.965">  5  6 -1 -1</clus>
<clus scale="   94.942">  7  8 -1 -1</clus>
<clus scale="  123.494">  1  5  2 -1</clus>
<clus scale="   21.417">  2  5  1 -1</clus>
</clustering>
</event>
<event>
10    4  0.7204077E-005  0.1206026E+03  0.7546771E-02  0.1254361E+00
         21   -1    0    0  501  502  0.00000000000E+00  0.00000000000E+00  0.19204961411E+03  0.19204961411E+03  0.00000000000E+00 0.  1.
         -1   -1    0    0    0  501 -0.00000000000E+00 -0.00000000000E+00 -0.16962075876E+03  0.16962075876E+03  0.00000000000E+00 0.  1.
         23    2    1    2    0    0 -0.26480585022E+02 -0.52483380228E+01 -0.13640784418E+02  0.96682479281E+02  0.91829539720E+02 0.  0.
         24    2    1    2    0    0 -0.90896371455E+01 -0.70782901158E+02  0.42272395666E+02  0.11548282277E+03  0.80352263930E+02 0.  0.
        -11    1    4    4    0    0  0.32632066310E+02 -0.33349716900E+02  0.24483704649E+01  0.46723119405E+02  0.00000000000E+00 0.  1.
         12    1    4    4    0    0 -0.41721703456E+02 -0.37433184258E+02  0.39824025201E+02  0.68759703360E+02  0.00000000000E+00 0. -1.
        -13    1    3    3    0    0 -0.55672220706E+02  0.47169924065E+01 -0.28186725315E+02  0.62579051285E+02  0.00000000000E+00 0.  1.
         13    1    3    3    0    0  0.29191635684E+02 -0.99653304294E+01  0.14545940897E+02  0.34103427996E+02  0.00000000000E+00 0. -1.
         21    1    1    2  503  502  0.34385392084E+02 -0.27758161952E+02  0.74499232019E+01  0.44814864715E+02  0.00000000000E+00 0. -1.
         -2    1    1    2    0  503  0.11848300828E+01  0.10378940113E+03 -0.13652679099E+02  0.10469020611E+03  0.00000000000E+00 0.  1.
<scales pt_clust_5="13000.00000" pt_clust_6="13000.00000" pt_clust_7="13000.00000" pt_clust_8="13000.00000" pt_clust_9="44.19130" pt_clust_10="89.93614"></scales>
<clustering>
<clus scale="   44.191">  1  9  2 -1</clus>
<clus scale="   80.352">  5  6 -1 -1</clus>
<clus scale="   91.830">  7  8 -1 -1</clus>
<clus scale="   94.345">  2  7  1 -1</clus>
<clus scale="   89.936">  1 10  2 -1</clus>
<clus scale="   44.191">  1  5  2 -1</clus>
</clustering>
</event>
<event>
10    4  0.7204077E-005  0.2696791E+03  0.7546771E-02  0.1127858E+00
         21   -1    0    0  503  502  0.00000000000E+00  0.00000000000E+00  0.67323251276E+03  0.67323251276E+03  0.00000000000E+00 0.  1.
         -1   -1    0    0    0  501 -0.00000000000E+00 -0.00000000000E+00 -0.26774070410E+03  0.26774070410E+03  0.00000000000E+00 0.  1.
         23    2    1    2    0    0  0.66858063373E+02  0.74228278957E+02 -0.35193101877E+02  0.13892665510E+03  0.89901184886E+02 0.  0.
         24    2    1    2    0    0 -0.16997625730E+03  0.14387172885E+03  0.87779169879E+02  0.25231942768E+03  0.79805441612E+02 0.  0.
        -11    1    4    4    0    0 -0.13014927331E+03  0.77036030791E+02  0.27090355449E+02  0.15364657738E+03  0.00000000000E+00 0.  1.
         12    1    4    4    0    0 -0.39826983996E+02  0.66835698061E+02  0.60688814430E+02  0.98672850301E+02  0.00000000000E+00 0. -1.
        -11    1    3    3    0    0  0.20779135128E+02  0.44396295445E+02 -0.61012797021E+02  0.78264710479E+02  0.00000000000E+00 0.  1.
         11    1    3    3    0    0  0.46078928245E+02  0.29831983512E+02  0.25819695144E+02  0.60661944626E+02  0.00000000000E+00 0. -1.
         21    1    1    2  503  501 -0.12723937028E+02  0.80971144362E+02  0.14786718124E+03  0.16906486354E+03  0.00000000000E+00 0.  1.
         -2    1    1    2    0  502  0.11584213096E+03 -0.29907115217E+03  0.20503855942E+03  0.38066227054E+03  0.00000000000E+00 0.  1.
<scales pt_clust_5="13000.00000" pt_clust_6="13000.00000" pt_clust_7="13000.00000" pt_clust_8="13000.00000" pt_clust_9="81.96478" pt_clust_10="257.60031"></scales>
<clustering>
<clus scale="   79.805">  5  6 -1 -1</clus>
<clus scale="   81.965">  1  9  2 -1</clus>
<clus scale="   89.901">  7  8 -1 -1</clus>
<clus scale="  138.456">  2  7  1 -1</clus>
<clus scale="  257.600">  1 10  2 -1</clus>
<clus scale="   81.965">  1  5  2 -1</clus>
</clustering>
</event>
<event>
10    4  0.7204077E-005  0.1283713E+03  0.7546771E-02  0.1232882E+00
         21   -1    0    0  501  502  0.00000000000E+00  0.00000000000E+00  0.96331471923E+02  0.96331471923E+02  0.00000000000E+00 0. -1.
          4   -1    0    0  503    0 -0.00000000000E+00 -0.00000000000E+00 -0.40348191277E+03  0.40348191277E+03  0.00000000000E+00 0. -1.
         24    2    1    2    0    0 -0.58784047464E+02  0.34017137379E+02 -0.18259073494E+03  0.21054512510E+03  0.79857018128E+02 0.  0.
         23    2    1    2    0    0  0.80462160239E+02 -0.42545182517E+02  0.80891981127E+01  0.12898295887E+03  0.91032503900E+02 0.  0.
        -11    1    3    3    0    0 -0.50275990351E+02  0.59372707311E+02 -0.12882509168E+03  0.15049484319E+03  0.00000000000E+00 0.  1.
         12    1    3    3    0    0 -0.85080571129E+01 -0.25355569931E+02 -0.53765643262E+02  0.60050281913E+02  0.00000000000E+00 0. -1.
        -13    1    4    4    0    0  0.83755031105E+01  0.26083349911E+02 -0.70993645733E+01  0.28300020712E+02  0.00000000000E+00 0.  1.
         13    1    4    4    0    0  0.72086657128E+02 -0.68628532429E+02  0.15188562686E+02  0.10068293816E+03  0.00000000000E+00 0. -1.
         21    1    1    2  503  502 -0.51066851196E+02 -0.25006809607E+01 -0.48499334791E+02  0.70471711853E+02  0.00000000000E+00 0. -1.
          3    1    1    2  501    0  0.29388738422E+02  0.11028726099E+02 -0.84149569226E+02  0.89813588873E+02  0.00000000000E+00 0. -1.
<scales pt_clust_5="13000.00000" pt_clust_6="13000.00000" pt_clust_7="13000.00000" pt_clust_8="13000.00000" pt_clust_9="47.62891" pt_clust_10="31.38999"></scales>
<clustering>
<clus scale="   31.390">  1 10  2 -1</clus>
<clus scale="   47.629">  2  9  1 -1</clus>
<clus scale="   79.857">  5  6 -1 -1</clus>
<clus scale="   91.033">  7  8 -1 -1</clus>
<clus scale="  120.704">  2  5  1 -1</clus>
<clus scale="   31.390">  1  5  2 -1</clus>
</clustering>
</event>
<event>
10    4  0.7204077E-005  0.3256128E+03  0.7546771E-02  0.1095020E+00
         21   -1    0    0  501  502  0.00000000000E+00  0.00000000000E+00  0.49911136254E+03  0.49911136254E+03  0.00000000000E+00 0. -1.
         -1   -1    0    0    0  501 -0.00000000000E+00 -0.00000000000E+00 -0.45506738745E+03  0.45506738745E+03  0.00000000000E+00 0.  1.
         24    2    1    2    0    0 -0.12370526947E+03 -0.10821838416E+03  0.25027800360E+02  0.18315902839E+03  0.76854580387E+02 0.  0.
         23    2    1    2    0    0  0.23855810141E+03 -0.18977322584E+03  0.18802447121E+02  0.31788562423E+03  0.88169683451E+02 0.  0.
        -11    1    3    3    0    0 -0.50291971889E+02 -0.11777593688E+02 -0.17765846585E+02  0.54622517833E+02  0.00000000000E+00 0.  1.
         12    1    3    3    0    0 -0.73413297582E+02 -0.96440790468E+02  0.42793646945E+02  0.12853651056E+03  0.00000000000E+00 0. -1.
        -13    1    4    4    0    0  0.20243629132E+02 -0.11232948067E+02 -0.23170917927E+02  0.32754771871E+02  0.00000000000E+00 0.  1.
         13    1    4    4    0    0  0.21831447228E+03 -0.17854027778E+03  0.41973365048E+02  0.28513085236E+03  0.00000000000E+00 0. -1.
         21    1    1    2  503  502  0.17659220960E+02 -0.17785145757E+02  0.94638630696E+02  0.97901123152E+02  0.00000000000E+00 0. -1.
         -2    1    1    2    0  503 -0.13251205290E+03  0.31577675576E+03 -0.94424903082E+02  0.35523297421E+03  0.00000000000E+00 0.  1.
<scales pt_clust_5="13000.00000" pt_clust_6="13000.00000" pt_clust_7="13000.00000" pt_clust_8="13000.00000" pt_clust_9="25.06311" pt_clust_10="313.44841"></scales>
<clustering>
<clus scale="   25.063">  1  9  2 -1</clus>
<clus scale="   76.855">  5  6 -1 -1</clus>
<clus scale="   88.170">  7  8 -1 -1</clus>
<clus scale="  181.186">  2  5  1 -1</clus>
<clus scale="  313.448">  1 10  2 -1</clus>
<clus scale="   25.063">  1  5  2 -1</clus>
</clustering>
</event>
<event>
10    4  0.7204077E-005  0.1059212E+03  0.7546771E-02  0.1271642E+00
         21   -1    0    0  503  502  0.00000000000E+00  0.00000000000E+00  0.44629469163E+02  0.44629469163E+02  0.00000000000E+00 0. -1.
          2   -1    0    0  502    0 -0.00000000000E+00 -0.00000000000E+00 -0.72832037605E+03  0.72832037605E+03  0.00000000000E+00 0. -1.
         24    2    1    2    0    0  0.27738986952E+01  0.73525647400E+02 -0.21227118093E+03  0.24013599107E+03  0.84808753173E+02 0.  0.
         23    2    1    2    0    0 -0.14099456900E+02 -0.15298358559E+02 -0.77794899553E+02  0.12260528669E+03  0.92450935469E+02 0.  0.
        -11    1    3    3    0    0 -0.83075445839E+01  0.88883540145E+02 -0.14524652773E+03  0.17048710456E+03  0.00000000000E+00 0.  1.
         12    1    3    3    0    0  0.11081443279E+02 -0.15357892745E+02 -0.67024653208E+02  0.69648886512E+02  0.00000000000E+00 0. -1.
        -11    1    4    4    0    0 -0.23601493513E+02 -0.51052142610E+02 -0.35948504010E+02  0.66750630721E+02  0.00000000000E+00 0. -1.
         11    1    4    4    0    0  0.95020366128E+01  0.35753784051E+02 -0.41846395543E+02  0.55854655971E+02  0.00000000000E+00 0.  1.
         21    1    1    2  503  501  0.23798208407E+02  0.14212991952E+02 -0.37821565495E+02  0.46891733601E+02  0.00000000000E+00 0.  1.
          1    1    1    2  501    0 -0.12472650202E+02 -0.72440280793E+02 -0.35580326090E+03  0.36331683384E+03  0.00000000000E+00 0. -1.
<scales pt_clust_5="13000.00000" pt_clust_6="13000.00000" pt_clust_7="13000.00000" pt_clust_8="13000.00000" pt_clust_9="27.71938" pt_clust_10="71.84250"></scales>
<clustering>
<clus scale="   27.719">  1  9  2 -1</clus>
<clus scale="   71.843">  1 10  2 -1</clus>
<clus scale="   84.809">  5  6 -1 -1</clus>
<clus scale="   92.451">  7  8 -1 -1</clus>
<clus scale="   99.321">  2  5  1 -1</clus>
<clus scale="   27.719">  1  5  2 -1</clus>
</clustering>
</event>
<event>
10    4  0.7204077E-005  0.1002402E+03  0.7546771E-02  0.1283755E+00
         21   -1    0    0  501  502  0.00000000000E+00  0.00000000000E+00  0.35850239395E+03  0.35850239395E+03  0.00000000000E+00 0. -1.
          2   -1    0    0  503    0 -0.00000000000E+00 -0.00000000000E+00 -0.63510467009E+03  0.63510467009E+03  0.00000000000E+00 0. -1.
         24    2    1    2    0    0 -0.22207699326E+02  0.41786946976E+02 -0.31939474974E+03  0.33265727652E+03  0.80053273602E+02 0.  0.
         23    2    1    2    0    0 -0.27929465470E+02 -0.56482240045E+02 -0.24134831265E+03  0.26463378502E+03  0.88384012529E+02 0.  0.
        -13    1    3    3    0    0  0.29166058476E+02  0.25981327210E+02 -0.14483628711E+03  0.15001079426E+03  0.00000000000E+00 0.  1.
         14    1    3    3    0    0 -0.51373757802E+02  0.15805619766E+02 -0.17455846262E+03  0.18264648226E+03  0.00000000000E+00 0. -1.
        -11    1    4    4    0    0  0.29058803901E+02 -0.19807664165E+02 -0.12634450049E+03  0.13114759032E+03  0.00000000000E+00 0.  1.
         11    1    4    4    0    0 -0.56988269371E+02 -0.36674575880E+02 -0.11500381217E+03  0.13348619470E+03  0.00000000000E+00 0. -1.
         21    1    1    2  503  502  0.32794428683E+02 -0.38307400049E+02  0.32391544570E+03  0.32781724698E+03  0.00000000000E+00 0. -1.
          1    1    1    2  501    0  0.17342736114E+02  0.53002693118E+02 -0.39774659448E+02  0.68498755521E+02  0.00000000000E+00 0. -1.
<scales pt_clust_5="13000.00000" pt_clust_6="13000.00000" pt_clust_7="13000.00000" pt_clust_8="13000.00000" pt_clust_9="50.42749" pt_clust_10="48.12556"></scales>
<clustering>
<clus scale="   50.427">  1  9  2 -1</clus>
<clus scale="   48.126">  1 10  2 -1</clus>
<clus scale="   80.053">  5  6 -1 -1</clus>
<clus scale="   88.384">  7  8 -1 -1</clus>
<clus scale="   92.978">  2  5  1 -1</clus>
<clus scale="   50.427">  1  5  2 -1</clus>
</clustering>
</event>
<event>
10    4  0.7204077E-005  0.2205621E+03  0.7546771E-02  0.1134053E+00
         21   -1    0    0  501  502  0.00000000000E+00  0.00000000000E+00  0.18795527645E+03  0.18795527645E+03  0.00000000000E+00 0. -1.
          4   -1    0    0  503    0 -0.00000000000E+00 -0.00000000000E+00 -0.67564667601E+03  0.67564667601E+03  0.00000000000E+00 0. -1.
         23    2    1    2    0    0 -0.49790755818E+02  0.20719038949E+03 -0.50194113851E+03  0.55230656367E+03  0.87696390377E+02 0.  0.
         24    2    1    2    0    0  0.16886199613E+02 -0.17389508875E+03 -0.67165397103E+02  0.20334553900E+03  0.79457989115E+02 0.  0.
        -11    1    4    4    0    0 -0.16191707613E+02 -0.15057335108E+03 -0.51843054972E+02  0.16006938433E+03  0.00000000000E+00 0.  1.
         12    1    4    4    0    0  0.33077907227E+02 -0.23321737665E+02 -0.15322342131E+02  0.43276154665E+02  0.00000000000E+00 0. -1.
        -13    1    3    3    0    0 -0.39259973066E+02  0.13930186579E+03 -0.42594022805E+03  0.44985712528E+03  0.00000000000E+00 0. -1.
         13    1    3    3    0    0 -0.10530782752E+02  0.67888523697E+02 -0.76000910460E+02  0.10244943839E+03  0.00000000000E+00 0.  1.
         21    1    1    2  503  502  0.18999311545E+02 -0.11790871753E+02  0.79142475075E+02  0.82240682492E+02  0.00000000000E+00 0. -1.
          3    1    1    2  501    0  0.13905244660E+02 -0.21504428985E+02  0.22726609805E+01  0.25709167294E+02  0.00000000000E+00 0. -1.
<scales pt_clust_5="13000.00000" pt_clust_6="13000.00000" pt_clust_7="13000.00000" pt_clust_8="13000.00000" pt_clust_9="22.36065" pt_clust_10="28.27308"></scales>
<clustering>
<clus scale="   22.361">  1  9  2 -1</clus>
<clus scale="   28.273">  1 10  2 -1</clus>
<clus scale="   79.458">  5  6 -1 -1</clus>
<clus scale="   87.696">  7  8 -1 -1</clus>
<clus scale="  217.418">  1  5  2 -1</clus>
<clus scale="   22.361">  1  5  2 -1</clus>
</clustering>
</event>
<event>
10    4  0.7204077E-005  0.1074315E+03  0.7546771E-02  0.1274585E+00
          2   -1    0    0  503    0 -0.00000000000E+00  0.00000000000E+00  0.23252423386E+03  0.23252423386E+03  0.00000000000E+00 0. -1.
         21   -1    0    0  501  502  0.00000000000E+00 -0.00000000000E+00 -0.12852237338E+03  0.12852237338E+03  0.00000000000E+00 0. -1.
         24    2    1    2    0    0  0.75218385849E+02 -0.16656745353E+02  0.52501680250E+02  0.11778550006E+03  0.71984337608E+02 0.  0.
         23    2    1    2    0    0 -0.19479853302E+02  0.25586133119E+01 -0.55717113397E+02  0.11010340897E+03  0.92910455577E+02 0.  0.
        -11    1    3    3    0    0  0.32968443870E+02 -0.43926526585E+02  0.23529375896E+02  0.59750226435E+02  0.00000000000E+00 0.  1.
         12    1    3    3    0    0  0.42249941979E+02  0.27269781231E+02  0.28972304354E+02  0.58035273629E+02  0.00000000000E+00 0. -1.
        -11    1    4    4    0    0 -0.72709532059E+01 -0.36900641338E+02 -0.57559279875E+02  0.68757507164E+02  0.00000000000E+00 0. -1.
         11    1    4    4    0    0 -0.12208900096E+02  0.39459254650E+02  0.18421664780E+01  0.41345901809E+02  0.00000000000E+00 0.  1.
         21    1    1    2  503  502 -0.30660815267E+02 -0.30138233649E+01  0.11739790702E+02  0.32969552770E+02  0.00000000000E+00 0.  1.
          1    1    1    2  501    0 -0.25077717280E+02  0.17111955406E+02  0.95477502921E+02  0.10018814544E+03  0.00000000000E+00 0. -1.
<scales pt_clust_5="13000.00000" pt_clust_6="13000.00000" pt_clust_7="13000.00000" pt_clust_8="13000.00000" pt_clust_9="32.80848" pt_clust_10="30.35971"></scales>
<clustering>
<clus scale="   30.360">  2 10  1 -1</clus>
<clus scale="   32.808">  1  9  2 -1</clus>
<clus scale="   71.984">  5  6 -1 -1</clus>
<clus scale="   89.949">  1  5  2 -1</clus>
<clus scale="   92.910">  7  8 -1 -1</clus>
<clus scale="   30.360">  2  5  1 -1</clus>
</clustering>
</event>
<event>
10    4  0.7204077E-005  0.1820098E+03  0.7546771E-02  0.1191671E+00
          2   -1    0    0  502    0 -0.00000000000E+00  0.00000000000E+00  0.59137650990E+03  0.59137650990E+03  0.00000000000E+00 0. -1.
         21   -1    0    0  503  502  0.00000000000E+00 -0.00000000000E+00 -0.13663552050E+03  0.13663552050E+03  0.00000000000E+00 0. -1.
         23    2    1    2    0    0 -0.31132947239E+02  0.12525536104E+02  0.21933210533E+02  0.99911359504E+02  0.91515378900E+02 0.  0.
         24    2    1    2    0    0  0.15609589929E+03 -0.11328709881E+03  0.19479411585E+03  0.28601085895E+03  0.81593917277E+02 0.  0.
        -13    1    4    4    0    0  0.31371246593E+02 -0.51090921188E+02  0.21652312588E+02  0.63743705423E+02  0.00000000000E+00 0.  1.
         14    1    4    4    0    0  0.12472465269E+03 -0.62196177625E+02  0.17314180326E+03  0.22226715353E+03  0.00000000000E+00 0. -1.
        -11    1    3    3    0    0 -0.36316805374E+02 -0.33956136257E+02  0.42113770005E+01  0.49896545354E+02  0.00000000000E+00 0. -1.
         11    1    3    3    0    0  0.51838581344E+01  0.46481672362E+02  0.17721833532E+02  0.50014814150E+02  0.00000000000E+00 0.  1.
         21    1    1    2  503  501 -0.26560710131E+02  0.97419066319E+01 -0.30731456115E+02  0.41770784796E+02  0.00000000000E+00 0. -1.
          1    1    1    2  501    0 -0.98402241917E+02  0.91019656077E+02  0.26874511913E+03  0.30031902714E+03  0.00000000000E+00 0. -1.
<scales pt_clust_5="13000.00000" pt_clust_6="13000.00000" pt_clust_7="13000.00000" pt_clust_8="13000.00000" pt_clust_9="28.29092" pt_clust_10="162.69614"></scales>
<clustering>
<clus scale="   28.291">  2  9  1 -1</clus>
<clus scale="   81.594">  5  6 -1 -1</clus>
<clus scale="   91.515">  7  8 -1 -1</clus>
<clus scale="  101.780">  1  7  2 -1</clus>
<clus scale="  162.696">  2 10  1 -1</clus>
<clus scale="   28.291">  2  5  1 -1</clus>
</clustering>
</event>
<event>
10    4  0.7204077E-005  0.2467086E+03  0.7546771E-02  0.1134605E+00
          2   -1    0    0  503    0 -0.00000000000E+00  0.00000000000E+00  0.96265493363E+03  0.96265493363E+03  0.00000000000E+00 0. -1.
         21   -1    0    0  501  502  0.00000000000E+00 -0.00000000000E+00 -0.18777690235E+03  0.18777690235E+03  0.00000000000E+00 0.  1.
         23    2    1    2    0    0 -0.12447393077E+02  0.12475417441E+03  0.20733599872E+03  0.25936731801E+03  0.92545381639E+02 0.  0.
         24    2    1    2    0    0 -0.12688834997E+03  0.19014557672E+03  0.44313954353E+02  0.24671274510E+03  0.81531946746E+02 0.  0.
        -13    1    4    4    0    0 -0.13723890856E+03  0.17845982041E+03  0.33228711035E+02  0.22756663367E+03  0.00000000000E+00 0.  1.
         14    1    4    4    0    0  0.10350558585E+02  0.11685756310E+02  0.11085243318E+02  0.19146111432E+02  0.00000000000E+00 0. -1.
        -13    1    3    3    0    0  0.19034598246E+02  0.88537093329E+02  0.71746645431E+02  0.11553663469E+03  0.00000000000E+00 0. -1.
         13    1    3    3    0    0 -0.31481991323E+02  0.36217081076E+02  0.13558935329E+03  0.14383068332E+03  0.00000000000E+00 0.  1.
         21    1    1    2  503  502  0.20344908172E+02 -0.19273141470E+02 -0.39886003615E+01  0.28306857888E+02  0.00000000000E+00 0.  1.
          1    1    1    2  501    0  0.11899083488E+03 -0.29562660965E+03  0.52721667856E+03  0.61604491498E+03  0.00000000000E+00 0. -1.
<scales pt_clust_5="13000.00000" pt_clust_6="13000.00000" pt_clust_7="13000.00000" pt_clust_8="13000.00000" pt_clust_9="28.02444" pt_clust_10="232.84699"></scales>
<clustering>
<clus scale="   28.024">  2  9  1 -1</clus>
<clus scale="   81.532">  5  6 -1 -1</clus>
<clus scale="   92.545">  7  8 -1 -1</clus>
<clus scale="  153.283">  1  7  2 -1</clus>
<clus scale="  232.847">  2 10  1 -1</clus>
<clus scale="   28.024">  2  5  1 -1</clus>
</clustering>
</event>
<event>
10    4  0.7204077E-005  0.1237466E+03  0.7546771E-02  0.1239159E+00
         -1   -1    0    0    0  501 -0.00000000000E+00  0.00000000000E+00  0.78150200083E+03  0.78150200083E+03  0.00000000000E+00 0.  1.
         21   -1    0    0  503  502  0.00000000000E+00 -0.00000000000E+00 -0.10209225615E+03  0.10209225615E+03  0.00000000000E+00 0.  1.
         24    2    1    2    0    0 -0.78999450700E+02  0.62481645430E+02  0.54214868187E+02  0.13998053497E+03  0.80687229540E+02 0.  0.
         23    2    1    2    0    0  0.19707308517E+02 -0.79242052463E+02  0.17642875200E+02  0.12147230330E+03  0.88184854340E+02 0.  0.
        -11    1    3    3    0    0 -0.62202155429E+02 -0.13270375205E+01  0.18274620329E+02  0.64844667605E+02  0.00000000000E+00 0.  1.
         12    1    3    3    0    0 -0.16797295271E+02  0.63808682951E+02  0.35940247858E+02  0.75135867364E+02  0.00000000000E+00 0. -1.
        -11    1    4    4    0    0 -0.14772711105E+02 -0.77309078947E+02 -0.70429761609E+01  0.79022339842E+02  0.00000000000E+00 0.  1.
         11    1    4    4    0    0  0.34480019622E+02 -0.19329735169E+01  0.24685851361E+02  0.42449963453E+02  0.00000000000E+00 0. -1.
         21    1    1    2  503  501 -0.27056401808E+01 -0.34995813891E+02  0.67466908724E+02  0.76051372449E+02  0.00000000000E+00 0.  1.
         -2    1    1    2    0  502  0.61997782364E+02  0.51756220924E+02  0.54008509257E+03  0.54609004627E+03  0.00000000000E+00 0.  1.
<scales pt_clust_5="13000.00000" pt_clust_6="13000.00000" pt_clust_7="13000.00000" pt_clust_8="13000.00000" pt_clust_9="35.10025" pt_clust_10="64.92453"></scales>
<clustering>
<clus scale="   35.100">  1  9  2 -1</clus>
<clus scale="   64.925">  2 10  1 -1</clus>
<clus scale="   80.687">  5  6 -1 -1</clus>
<clus scale="   88.185">  7  8 -1 -1</clus>
<clus scale="  118.520">  1  5  2 -1</clus>
<clus scale="   64.925">  2  5  1 -1</clus>
</clustering>
</event>
<event>
10    4  0.7204077E-005  0.1238482E+03  0.7546771E-02  0.1239756E+00
         21   -1    0    0  503  502  0.00000000000E+00  0.00000000000E+00  0.18921797449E+03  0.18921797449E+03  0.00000000000E+00 0.  1.
         -3   -1    0    0    0  501 -0.00000000000E+00 -0.00000000000E+00 -0.15353117282E+03  0.15353117282E+03  0.00000000000E+00 0.  1.
         23    2    1    2    0    0  0.56413297198E+02  0.97551086294E+02 -0.15463307950E+02  0.14494248878E+03  0.89836165454E+02 0.  0.
         24    2    1    2    0    0 -0.43384137449E+02 -0.30099509423E+02  0.58577811504E+02  0.11222638286E+03  0.79845082255E+02 0.  0.
        -13    1    4    4    0    0 -0.96414952329E+01 -0.51983472924E+02  0.46020613023E+02  0.70093770840E+02  0.00000000000E+00 0.  1.
         14    1    4    4    0    0 -0.33742642216E+02  0.21883963501E+02  0.12557198481E+02  0.42132612024E+02  0.00000000000E+00 0. -1.
        -13    1    3    3    0    0  0.24526081121E+02  0.10010190045E+03 -0.33309860244E+02  0.10831189186E+03  0.00000000000E+00 0.  1.
         13    1    3    3    0    0  0.31887216077E+02 -0.25508141559E+01  0.17846552295E+02  0.36630596921E+02  0.00000000000E+00 0. -1.
         21    1    1    2  503  501  0.18333471126E+02 -0.21265249046E+02  0.46525196116E+01  0.28460023178E+02  0.00000000000E+00 0.  1.
         -4    1    1    2    0  502 -0.31362630875E+02 -0.46186327825E+02 -0.12080221499E+02  0.57120252492E+02  0.00000000000E+00 0.  1.
<scales pt_clust_5="13000.00000" pt_clust_6="13000.00000" pt_clust_7="13000.00000" pt_clust_8="13000.00000" pt_clust_9="28.07716" pt_clust_10="56.88955"></scales>
<clustering>
<clus scale="   28.077">  1  9  2 -1</clus>
<clus scale="   56.890">  1 10  2 -1</clus>
<clus scale="   79.845">  5  6 -1 -1</clus>
<clus scale="   89.836">  7  8 -1 -1</clus>
<clus scale="  116.804">  1  5  2 -1</clus>
<clus scale="   28.077">  1  5  2 -1</clus>
</clustering>
</event>
<event>
10    4  0.7204077E-005  0.2193204E+03  0.7546771E-02  0.1163853E+00
          2   -1    0    0  503    0 -0.00000000000E+00  0.00000000000E+00  0.10379832775E+04  0.10379832775E+04  0.00000000000E+00 0. -1.
         21   -1    0    0  501  502  0.00000000000E+00 -0.00000000000E+00 -0.28084066463E+03  0.28084066463E+03  0.00000000000E+00 0. -1.
         24    2    1    2    0    0 -0.37236440442E+02 -0.62001454525E+02  0.35782968363E+03  0.37405944081E+03  0.81533121543E+02 0.  0.
         23    2    1    2    0    0  0.34821297449E+02  0.18647515317E+03  0.15997198603E+03  0.26441757791E+03  0.91324222911E+02 0.  0.
        -11    1    3    3    0    0 -0.52885326532E+02 -0.18629141683E+02  0.12945019591E+03  0.14107181115E+03  0.00000000000E+00 0.  1.
         12    1    3    3    0    0  0.15648886090E+02 -0.43372312842E+02  0.22837948773E+03  0.23298762965E+03  0.00000000000E+00 0. -1.
        -13    1    4    4    0    0  0.51092986093E+02  0.66427516532E+02  0.95951821483E+02  0.12739646866E+03  0.00000000000E+00 0. -1.
         13    1    4    4    0    0 -0.16271688644E+02  0.12004763664E+03  0.64020164549E+02  0.13702110926E+03  0.00000000000E+00 0.  1.
         21    1    1    2  503  502 -0.89746952683E+02 -0.30910805238E+03 -0.49196412487E+02  0.32561110326E+03  0.00000000000E+00 0. -1.
          1    1    1    2  501    0  0.92162095676E+02  0.18463435374E+03  0.28853735564E+03  0.35473582010E+03  0.00000000000E+00 0. -1.
<scales pt_clust_5="13000.00000" pt_clust_6="13000.00000" pt_clust_7="13000.00000" pt_clust_8="13000.00000" pt_clust_9="199.40246" pt_clust_10="171.87018"></scales>
<clustering>
<clus scale="   81.533">  5  6 -1 -1</clus>
<clus scale="   91.324">  7  8 -1 -1</clus>
<clus scale="  108.988">  1  5  2 -1</clus>
<clus scale="  171.870">  2 10  1 -1</clus>
<clus scale="  199.402">  2  9  1 -1</clus>
<clus scale="  171.870">  2  5  1 -1</clus>
</clustering>
</event>
<event>
10    4  0.7204077E-005  0.2509526E+03  0.7546771E-02  0.1113293E+00
          2   -1    0    0  503    0 -0.00000000000E+00  0.00000000000E+00  0.16169252609E+04  0.16169252609E+04  0.00000000000E+00 0. -1.
         21   -1    0    0  501  502  0.00000000000E+00 -0.00000000000E+00 -0.75923850418E+02  0.75923850418E+02  0.00000000000E+00 0. -1.
         24    2    1    2    0    0  0.17087775322E+03 -0.19501746158E+03  0.11127132109E+04  0.11452912843E+04  0.79563931717E+02 0.  0.
         23    2    1    2    0    0 -0.15421828110E+03  0.11423559598E+03  0.35545463213E+03  0.41395985683E+03  0.90452849333E+02 0.  0.
        -13    1    3    3    0    0 -0.64646222501E+01 -0.22558256497E+02  0.11491858535E+03  0.11729001464E+03  0.00000000000E+00 0.  1.
         14    1    3    3    0    0  0.17734237547E+03 -0.17245920508E+03  0.99779462554E+03  0.10280012696E+04  0.00000000000E+00 0. -1.
        -11    1    4    4    0    0 -0.41806824840E+02  0.10256334718E+02  0.25071217590E+02  0.49815348604E+02  0.00000000000E+00 0.  1.
         11    1    4    4    0    0 -0.11241145626E+03  0.10397926127E+03  0.33038341454E+03  0.36414450823E+03  0.00000000000E+00 0. -1.
         21    1    1    2  503  502 -0.19202968043E+02  0.66207538120E+01 -0.97861890638E+01  0.22546792657E+02  0.00000000000E+00 0.  1.
          1    1    1    2  501    0  0.25434959189E+01  0.74161111784E+02  0.82619756538E+02  0.11105117759E+03  0.00000000000E+00 0. -1.
<scales pt_clust_5="13000.00000" pt_clust_6="13000.00000" pt_clust_7="13000.00000" pt_clust_8="13000.00000" pt_clust_9="20.31227" pt_clust_10="75.76319"></scales>
<clustering>
<clus scale="   20.312">  2  9  1 -1</clus>
<clus scale="   75.763">  2 10  1 -1</clus>
<clus scale="   79.564">  5  6 -1 -1</clus>
<clus scale="   90.453">  7  8 -1 -1</clus>
<clus scale="  247.237">  1  5  2 -1</clus>
<clus scale="   20.312">  2  5  1 -1</clus>
</clustering>
</event>
<event>
10    4  0.7204077E-005  0.1181581E+03  0.7546771E-02  0.1249686E+00
          2   -1    0    0  502    0 -0.00000000000E+00  0.00000000000E+00  0.97558645510E+03  0.97558645510E+03  0.00000000000E+00 0. -1.
         21   -1    0    0  503  502  0.00000000000E+00 -0.00000000000E+00 -0.15576672370E+03  0.15576672370E+03  0.00000000000E+00 0. -1.
         23    2    1    2    0    0 -0.13944562787E+01 -0.36751640802E+02  0.17374117548E+03  0.19930642708E+03  0.90467829693E+02 0.  0.
         24    2    1    2    0    0  0.66719890554E+02  0.11618651225E+03  0.32942968272E+03  0.36444751010E+03  0.79669456742E+02 0.  0.
        -11    1    4    4    0    0  0.29011506526E+02  0.29504926979E+02  0.19963878526E+03  0.20388195802E+03  0.00000000000E+00 0.  1.
         12    1    4    4    0    0  0.37708384027E+02  0.86681585267E+02  0.12979089746E+03  0.16056555208E+03  0.00000000000E+00 0. -1.
        -13    1    3    3    0    0  0.41622693091E+02 -0.32525154921E+02  0.77335759910E+02  0.93654439530E+02  0.00000000000E+00 0. -1.
         13    1    3    3    0    0 -0.43017149369E+02 -0.42264858820E+01  0.96405415570E+02  0.10565198755E+03  0.00000000000E+00 0.  1.
         21    1    1    2  503  501  0.16390474511E+02 -0.26350308070E+02 -0.11807663724E+03  0.12208635736E+03  0.00000000000E+00 0. -1.
          1    1    1    2  501    0 -0.81715908786E+02 -0.53084563374E+02  0.43472551044E+03  0.44551288426E+03  0.00000000000E+00 0. -1.
<scales pt_clust_5="13000.00000" pt_clust_6="13000.00000" pt_clust_7="13000.00000" pt_clust_8="13000.00000" pt_clust_9="31.03202" pt_clust_10="97.64956"></scales>
<clustering>
<clus scale="   31.032">  2  9  1 -1</clus>
<clus scale="   79.669">  5  6 -1 -1</clus>
<clus scale="   90.468">  7  8 -1 -1</clus>
<clus scale="   97.650">  2 10  1 -1</clus>
<clus scale="  110.110">  2  5  1 -1</clus>
<clus scale="   31.032">  2  5  1 -1</clus>
</clustering>
</event>
<event>
10    4  0.7204077E-005  0.4302800E+03  0.7546771E-02  0.1065880E+00
          2   -1    0    0  502    0 -0.00000000000E+00  0.00000000000E+00  0.84897430460E+03  0.84897430460E+03  0.00000000000E+00 0. -1.
         21   -1    0    0  503  502  0.00000000000E+00 -0.00000000000E+00 -0.60077127240E+03  0.60077127240E+03  0.00000000000E+00 0.  1.
         24    2    1    2    0    0  0.14159255805E+03  0.60077978024E+02  0.72385716735E+02  0.18561016015E+03  0.74522638342E+02 0.  0.
         23    2    1    2    0    0 -0.51527030014E+03 -0.10053725012E+03  0.29669036881E+03  0.60914998350E+03  0.86181822816E+02 0.  0.
        -13    1    3    3    0    0  0.50978407033E+02  0.23631770152E+01  0.57939508793E+02  0.77209903953E+02  0.00000000000E+00 0.  1.
         14    1    3    3    0    0  0.90614151018E+02  0.57714801009E+02  0.14446207943E+02  0.10840025620E+03  0.00000000000E+00 0. -1.
        -13    1    4    4    0    0 -0.59988376345E+02 -0.30163235205E+02  0.13831295344E+02  0.68554582527E+02  0.00000000000E+00 0.  1.
         13    1    4    4    0    0 -0.45528192380E+03 -0.70374014919E+02  0.28285907347E+03  0.54059540098E+03  0.00000000000E+00 0. -1.
         21    1    1    2  503  501  0.31943599846E+02 -0.63182028481E+02 -0.26170618907E+03  0.27111342957E+03  0.00000000000E+00 0.  1.
          1    1    1    2  501    0  0.34173414225E+03  0.10364130058E+03  0.14083313573E+03  0.38387200377E+03  0.00000000000E+00 0. -1.
<scales pt_clust_5="13000.00000" pt_clust_6="13000.00000" pt_clust_7="13000.00000" pt_clust_8="13000.00000" pt_clust_9="70.79804" pt_clust_10="421.56082"></scales>
<clustering>
<clus scale="   70.798">  2  9  1 -1</clus>
<clus scale="   74.523">  5  6 -1 -1</clus>
<clus scale="   86.182">  7  8 -1 -1</clus>
<clus scale="  172.051">  1  5  2 -1</clus>
<clus scale="  421.561">  2 10  1 -1</clus>
<clus scale="   70.798">  2  5  1 -1</clus>
</clustering>
</event>
<event>
10    4  0.7204077E-005  0.2763245E+03  0.7546771E-02  0.1111282E+00
          2   -1    0    0  503    0 -0.00000000000E+00  0.00000000000E+00  0.73611221418E+03  0.73611221418E+03  0.00000000000E+00 0. -1.
         21   -1    0    0  501  502  0.00000000000E+00 -0.00000000000E+00 -0.26535454750E+03  0.26535454750E+03  0.00000000000E+00 0. -1.
         23    2    1    2    0    0 -0.40047071499E+02 -0.14771255454E+03  0.34477271826E+02  0.18159761287E+03  0.91467174567E+02 0.  0.
         24    2    1    2    0    0  0.25725888151E+03  0.22533240045E+03  0.30810817391E+03  0.46699368871E+03  0.78712360224E+02 0.  0.
        -13    1    4    4    0    0  0.12429685931E+03  0.80350714838E+02  0.89757310057E+02  0.17309627760E+03  0.00000000000E+00 0.  1.
         14    1    4    4    0    0  0.13296202220E+03  0.14498168562E+03  0.21835086386E+03  0.29389741111E+03  0.00000000000E+00 0. -1.
        -13    1    3    3    0    0 -0.44533968682E+02 -0.45287190509E+02  0.46007573398E+02  0.78427678792E+02  0.00000000000E+00 0.  1.
         13    1    3    3    0    0  0.44868971840E+01 -0.10242536403E+03 -0.11530301572E+02  0.10316993408E+03  0.00000000000E+00 0. -1.
         21    1    1    2  503  502  0.32842961243E+02 -0.69143220445E+02  0.13825099858E+02  0.77785464084E+02  0.00000000000E+00 0. -1.
          1    1    1    2  501    0 -0.25005477125E+03 -0.84766254653E+01  0.11434712109E+03  0.27508999601E+03  0.00000000000E+00 0. -1.
<scales pt_clust_5="13000.00000" pt_clust_6="13000.00000" pt_clust_7="13000.00000" pt_clust_8="13000.00000" pt_clust_9="76.54701" pt_clust_10="264.87654"></scales>
<clustering>
<clus scale="   76.547">  2  9  1 -1</clus>
<clus scale="   78.712">  5  6 -1 -1</clus>
<clus scale="   91.467">  7  8 -1 -1</clus>
<clus scale="  194.886">  1  7  2 -1</clus>
<clus scale="  264.877">  2 10  1 -1</clus>
<clus scale="   76.547">  2  5  1 -1</clus>
</clustering>
</event>
<event>
10    4  0.7204077E-005  0.1605416E+03  0.7546771E-02  0.1189624E+00
          2   -1    0    0  503    0 -0.00000000000E+00  0.00000000000E+00  0.31332153226E+03  0.31332153226E+03  0.00000000000E+00 0. -1.
         21   -1    0    0  501  502  0.00000000000E+00 -0.00000000000E+00 -0.23632158965E+03  0.23632158965E+03  0.00000000000E+00 0.  1.
         24    2    1    2    0    0 -0.12248390894E+03 -0.87660706233E+01  0.16065581161E+03  0.21792011059E+03  0.81238739849E+02 0.  0.
         23    2    1    2    0    0  0.16561021045E+03 -0.41561148365E+02 -0.38382507105E+01  0.19355597412E+03  0.91077505956E+02 0.  0.
        -11    1    3    3    0    0 -0.10760570833E+02  0.20373054037E+02  0.61681217115E+02  0.65843934878E+02  0.00000000000E+00 0.  1.
         12    1    3    3    0    0 -0.11172333811E+03 -0.29139124661E+02  0.98974594492E+02  0.15207617571E+03  0.00000000000E+00 0. -1.
        -11    1    4    4    0    0  0.78987657184E+02 -0.53485041332E+02 -0.33681683085E+02  0.10116400254E+03  0.00000000000E+00 0. -1.
         11    1    4    4    0    0  0.86622553265E+02  0.11923892966E+02  0.29843432374E+02  0.92391971586E+02  0.00000000000E+00 0.  1.
         21    1    1    2  503  502 -0.66474700563E+01  0.44605628358E+02 -0.89302118090E+02  0.10004358667E+03  0.00000000000E+00 0.  1.
          1    1    1    2  501    0 -0.36478831453E+02  0.57215906309E+01  0.94844998075E+01  0.38123450528E+02  0.00000000000E+00 0. -1.
<scales pt_clust_5="13000.00000" pt_clust_6="13000.00000" pt_clust_7="13000.00000" pt_clust_8="13000.00000" pt_clust_9="52.02212" pt_clust_10="36.92483"></scales>
<clustering>
<clus scale="   36.925">  2 10  1 -1</clus>
<clus scale="   52.022">  2  9  1 -1</clus>
<clus scale="   81.239">  5  6 -1 -1</clus>
<clus scale="   91.078">  7  8 -1 -1</clus>
<clus scale="  155.172">  1  5  2 -1</clus>
<clus scale="   36.925">  2  5  1 -1</clus>
</clustering>
</event>
<event>
10    4  0.7204077E-005  0.1025796E+03  0.7546771E-02  0.1280608E+00
         21   -1    0    0  503  502  0.00000000000E+00  0.00000000000E+00  0.16876269804E+03  0.16876269804E+03  0.00000000000E+00 0.  1.
         -3   -1    0    0    0  501 -0.00000000000E+00 -0.00000000000E+00 -0.15599008891E+03  0.15599008891E+03  0.00000000000E+00 0.  1.
         24    2    1    2    0    0 -0.44149880361E+01  0.53448973448E+02 -0.39059286187E+02  0.10304572355E+03  0.78844837643E+02 0.  0.
         23    2    1    2    0    0 -0.40644212671E+02 -0.33539039677E+02 -0.17792580717E+01  0.10505960464E+03  0.90870983058E+02 0.  0.
        -11    1    3    3    0    0  0.25384053039E+02  0.59250281088E+02 -0.21366582090E+02  0.67907855126E+02  0.00000000000E+00 0.  1.
         12    1    3    3    0    0 -0.29799041075E+02 -0.58013076393E+01 -0.17692704097E+02  0.35137868426E+02  0.00000000000E+00 0. -1.
        -11    1    4    4    0    0  0.61253836249E+00  0.26365692726E+02 -0.16138171622E+02  0.30918692396E+02  0.00000000000E+00 0. -1.
         11    1    4    4    0    0 -0.41256751034E+02 -0.59904732403E+02  0.14358913551E+02  0.74140912245E+02  0.00000000000E+00 0.  1.
         21    1    1    2  503  501 -0.14003102778E+02 -0.14285190670E+02  0.53713880092E+02  0.57317837314E+02  0.00000000000E+00 0.  1.
         -4    1    1    2    0  502  0.59062303485E+02 -0.56247431015E+01 -0.10272669841E+00  0.59329621444E+02  0.00000000000E+00 0.  1.
<scales pt_clust_5="13000.00000" pt_clust_6="13000.00000" pt_clust_7="13000.00000" pt_clust_8="13000.00000" pt_clust_9="20.00384" pt_clust_10="56.18574"></scales>
<clustering>
<clus scale="   20.004">  1  9  2 -1</clus>
<clus scale="   56.186">  1 10  2 -1</clus>
<clus scale="   78.845">  5  6 -1 -1</clus>
<clus scale="   90.871">  7  8 -1 -1</clus>
<clus scale="   92.095">  2  5  1 -1</clus>
<clus scale="   20.004">  1  5  2 -1</clus>
</clustering>
</event>
<event>
10    4  0.7204077E-005  0.1057198E+03  0.7546771E-02  0.1277799E+00
         -1   -1    0    0    0  501 -0.00000000000E+00  0.00000000000E+00  0.19309132751E+03  0.19309132751E+03  0.00000000000E+00 0.  1.
         21   -1    0    0  503  502  0.00000000000E+00 -0.00000000000E+00 -0.22004583152E+03  0.22004583152E+03  0.00000000000E+00 0. -1.
         23    2    1    2    0    0  0.20279914436E+02 -0.41293799762E+02  0.63163901454E+02  0.12236629235E+03  0.94166757559E+02 0.  0.
         24    2    1    2    0    0 -0.70897127870E+02  0.22316494440E+01  0.16915849835E+02  0.10433532727E+03  0.74621253946E+02 0.  0.
        -11    1    4    4    0    0 -0.83787155430E+02 -0.10609809761E+02  0.16950076358E+02  0.86140353881E+02  0.00000000000E+00 0.  1.
         12    1    4    4    0    0  0.12890027560E+02  0.12841459205E+02 -0.34226522275E-01  0.18194973385E+02  0.00000000000E+00 0. -1.
        -13    1    3    3    0    0 -0.36845678718E+02 -0.56472248296E+01  0.26093834773E+02  0.45501465929E+02  0.00000000000E+00 0. -1.
         13    1    3    3    0    0  0.57125593154E+02 -0.35646574932E+02  0.37070066681E+02  0.76864826425E+02  0.00000000000E+00 0.  1.
         21    1    1    2  503  501  0.46160434051E+01 -0.20163944708E+02 -0.10946655119E+03  0.11140385250E+03  0.00000000000E+00 0. -1.
         -2    1    1    2    0  502  0.46001170029E+02  0.59226095026E+02  0.24322958908E+01  0.75031686902E+02  0.00000000000E+00 0.  1.
<scales pt_clust_5="13000.00000" pt_clust_6="13000.00000" pt_clust_7="13000.00000" pt_clust_8="13000.00000" pt_clust_9="20.68556" pt_clust_10="70.85495"></scales>
<clustering>
<clus scale="   20.686">  2  9  1 -1</clus>
<clus scale="   70.855">  2 10  1 -1</clus>
<clus scale="   74.621">  5  6 -1 -1</clus>
<clus scale="   88.756">  2  5  1 -1</clus>
<clus scale="   94.167">  7  8 -1 -1</clus>
<clus scale="   20.686">  2  5  1 -1</clus>
</clustering>
</event>
<event>
10    4  0.7204077E-005  0.2015246E+03  0.7546771E-02  0.1149674E+00
         21   -1    0    0  501  502  0.00000000000E+00  0.00000000000E+00  0.52149109556E+03  0.52149109556E+03  0.00000000000E+00 0.  1.
          2   -1    0    0  503    0 -0.00000000000E+00 -0.00000000000E+00 -0.75519814110E+03  0.75519814110E+03  0.00000000000E+00 0. -1.
         23    2    1    2    0    0 -0.10154960825E+03 -0.13761066816E+03 -0.47362069529E+03  0.51215620094E+03  0.93479367946E+02 0.  0.
         24    2    1    2    0    0  0.11689609560E+03  0.27884374490E+03  0.21582113237E+03  0.38007884426E+03  0.80390518364E+02 0.  0.
        -13    1    4    4    0    0  0.12844876858E+03  0.26208118739E+03  0.19535062206E+03  0.35120862813E+03  0.00000000000E+00 0.  1.
         14    1    4    4    0    0 -0.11552672981E+02  0.16762557510E+02  0.20470510307E+02  0.28870216132E+02  0.00000000000E+00 0. -1.
        -13    1    3    3    0    0  0.52328769657E+01 -0.51262008742E+02 -0.78962087638E+02  0.94287792560E+02  0.00000000000E+00 0.  1.
         13    1    3    3    0    0 -0.10678248521E+03 -0.86348659415E+02 -0.39465860765E+03  0.41786840838E+03  0.00000000000E+00 0. -1.
         21    1    1    2  503  502 -0.41120461413E+01 -0.11034295343E+03  0.18759553196E+03  0.21767994834E+03  0.00000000000E+00 0. -1.
          1    1    1    2  501    0 -0.11234441207E+02 -0.30890123316E+02 -0.16350301459E+03  0.16677424311E+03  0.00000000000E+00 0. -1.
<scales pt_clust_5="13000.00000" pt_clust_6="13000.00000" pt_clust_7="13000.00000" pt_clust_8="13000.00000" pt_clust_9="122.67802" pt_clust_10="32.86964"></scales>
<clustering>
<clus scale="   32.870">  1 10  2 -1</clus>
<clus scale="   80.391">  5  6 -1 -1</clus>
<clus scale="   93.479">  7  8 -1 -1</clus>
<clus scale="  122.678">  1  9  2 -1</clus>
<clus scale="  195.797">  1  5  2 -1</clus>
<clus scale="   32.870">  1  5  2 -1</clus>
</clustering>
</event>
<event>
10    4  0.7204077E-005  0.3914357E+03  0.7546771E-02  0.1094491E+00
         21   -1    0    0  503  502  0.00000000000E+00  0.00000000000E+00  0.19532926717E+03  0.19532926717E+03  0.00000000000E+00 0.  1.
          2   -1    0    0  502    0 -0.00000000000E+00 -0.00000000000E+00 -0.13832854795E+04  0.13832854795E+04  0.00000000000E+00 0. -1.
         23    2    1    2    0    0  0.52987365477E+02  0.28086920216E+02 -0.67065134668E+02  0.12747671813E+03  0.90310826543E+02 0.  0.
         24    2    1    2    0    0  0.15147332959E+03  0.35104483987E+03 -0.42803441974E+03  0.57960017622E+03  0.80908903182E+02 0.  0.
        -13    1    4    4    0    0  0.30822061710E+02  0.16648610058E+03 -0.16566055392E+03  0.23687769059E+03  0.00000000000E+00 0.  1.
         14    1    4    4    0    0  0.12065126788E+03  0.18455873929E+03 -0.26237386582E+03  0.34272248563E+03  0.00000000000E+00 0. -1.
        -11    1    3    3    0    0 -0.20687729544E+02  0.23314710662E+02 -0.61714226934E+01  0.31774901180E+02  0.00000000000E+00 0. -1.
         11    1    3    3    0    0  0.73675095021E+02  0.47722095543E+01 -0.60893711974E+02  0.95701816955E+02  0.00000000000E+00 0.  1.
         21    1    1    2  503  501 -0.15947092070E+02 -0.26008147680E+02  0.31552272030E+02  0.43889399193E+02  0.00000000000E+00 0.  1.
          1    1    1    2  501    0 -0.18851360300E+03 -0.35312361240E+03 -0.72440892993E+03  0.82764845310E+03  0.00000000000E+00 0. -1.
<scales pt_clust_5="13000.00000" pt_clust_6="13000.00000" pt_clust_7="13000.00000" pt_clust_8="13000.00000" pt_clust_9="30.50793" pt_clust_10="382.98273"></scales>
<clustering>
<clus scale="   30.508">  1  9  2 -1</clus>
<clus scale="   80.909">  5  6 -1 -1</clus>
<clus scale="   90.311">  7  8 -1 -1</clus>
<clus scale="  105.749">  2  7  1 -1</clus>
<clus scale="  382.983">  1 10  2 -1</clus>
<clus scale="   30.508">  1  5  2 -1</clus>
</clustering>
</event>
<event>
10    4  0.7204077E-005  0.3227151E+03  0.7546771E-02  0.1100594E+00
          2   -1    0    0  503    0 -0.00000000000E+00  0.00000000000E+00  0.76845799616E+03  0.76845799616E+03  0.00000000000E+00 0. -1.
         21   -1    0    0  501  502  0.00000000000E+00 -0.00000000000E+00 -0.68494079116E+03  0.68494079116E+03  0.00000000000E+00 0. -1.
         24    2    1    2    0    0  0.18932407342E+02  0.14222264734E+03  0.14528353080E+03  0.21946236559E+03  0.80440711881E+02 0.  0.
         23    2    1    2    0    0  0.23653112762E+03  0.59441462574E+02  0.85530534537E+02  0.27436391638E+03  0.92085962366E+02 0.  0.
        -13    1    3    3    0    0  0.19342512465E+02  0.91203578560E+02  0.13995318006E+03  0.16816396207E+03  0.00000000000E+00 0.  1.
         14    1    3    3    0    0 -0.41010512306E+00  0.51019068775E+02  0.53303507369E+01  0.51298403522E+02  0.00000000000E+00 0. -1.
        -13    1    4    4    0    0  0.66893295925E+02 -0.38288922649E+01 -0.12976802864E+02  0.68247863471E+02  0.00000000000E+00 0.  1.
         13    1    4    4    0    0  0.16963783170E+03  0.63270354839E+02  0.98507337401E+02  0.20611605291E+03  0.00000000000E+00 0. -1.
         21    1    1    2  503  502  0.10275533311E+03 -0.45690549774E+02 -0.45094063890E+03  0.46475127180E+03  0.00000000000E+00 0. -1.
          1    1    1    2  501    0 -0.35821886807E+03 -0.15597356014E+03  0.30364377857E+03  0.49482123355E+03  0.00000000000E+00 0. -1.
<scales pt_clust_5="13000.00000" pt_clust_6="13000.00000" pt_clust_7="13000.00000" pt_clust_8="13000.00000" pt_clust_9="112.45570" pt_clust_10="309.29806"></scales>
<clustering>
<clus scale="   80.441">  5  6 -1 -1</clus>
<clus scale="   92.086">  7  8 -1 -1</clus>
<clus scale="  112.456">  2  9  1 -1</clus>
<clus scale="  160.955">  1  5  2 -1</clus>
<clus scale="  309.298">  2 10  1 -1</clus>
<clus scale="  112.456">  2  5  1 -1</clus>
</clustering>
</event>
<event>
10    4  0.7204077E-005  0.1299871E+03  0.7546771E-02  0.1245952E+00
         21   -1    0    0  503  502  0.00000000000E+00  0.00000000000E+00  0.48792099212E+03  0.48792099212E+03  0.00000000000E+00 0.  1.
         -3   -1    0    0    0  501 -0.00000000000E+00 -0.00000000000E+00 -0.29161356407E+03  0.29161356407E+03  0.00000000000E+00 0.  1.
         24    2    1    2    0    0 -0.77382396459E+01 -0.30683738090E+02 -0.11334358691E+03  0.14275328203E+03  0.80810634827E+02 0.  0.
         23    2    1    2    0    0 -0.91574063664E+02  0.37255251835E+02  0.18775612550E+02  0.13666640133E+03  0.92473881175E+02 0.  0.
        -11    1    3    3    0    0 -0.38278292214E+02  0.62902621535E+01 -0.52788154739E+02  0.65508658462E+02  0.00000000000E+00 0.  1.
         12    1    3    3    0    0  0.30540052568E+02 -0.36974000244E+02 -0.60555432171E+02  0.77244623569E+02  0.00000000000E+00 0. -1.
        -13    1    4    4    0    0 -0.91130791225E+02  0.61860999219E+02  0.10240410207E+02  0.11061858042E+03  0.00000000000E+00 0.  1.
         13    1    4    4    0    0 -0.44327243891E+00 -0.24605747383E+02  0.85352023432E+01  0.26047820903E+02  0.00000000000E+00 0. -1.
         21    1    1    2  503  501  0.50829889576E+01 -0.50379465911E+02  0.36752021127E+03  0.37099195821E+03  0.00000000000E+00 0.  1.
         -4    1    1    2    0  502  0.94229314353E+02  0.43807952166E+02 -0.76644808860E+02  0.12912291463E+03  0.00000000000E+00 0.  1.
<scales pt_clust_5="13000.00000" pt_clust_6="13000.00000" pt_clust_7="13000.00000" pt_clust_8="13000.00000" pt_clust_9="50.63524" pt_clust_10="91.35230"></scales>
<clustering>
<clus scale="   50.635">  1  9  2 -1</clus>
<clus scale="   80.811">  5  6 -1 -1</clus>
<clus scale="   89.132">  2  5  1 -1</clus>
<clus scale="   91.352">  1 10  2 -1</clus>
<clus scale="   92.474">  7  8 -1 -1</clus>
<clus scale="   50.635">  1  5  2 -1</clus>
</clustering>
</event>
<event>
10    4  0.7204077E-005  0.1733801E+03  0.7546771E-02  0.1204681E+00
         21   -1    0    0  501  502  0.00000000000E+00  0.00000000000E+00  0.44513900774E+02  0.44513900774E+02  0.00000000000E+00 0. -1.
          2   -1    0    0  503    0 -0.00000000000E+00 -0.00000000000E+00 -0.15511197462E+04  0.15511197462E+04  0.00000000000E+00 0. -1.
         24    2    1    2    0    0  0.46064866650E+01 -0.38588595801E+02 -0.58307419958E+03  0.58976410135E+03  0.79598200875E+02 0.  0.
         23    2    1    2    0    0 -0.12456181990E+03  0.74705404189E+02 -0.71603984964E+03  0.73866391555E+03  0.10869576563E+03 0.  0.
        -11    1    3    3    0    0  0.14003554259E+02  0.18709938526E+02 -0.79805796813E+02  0.83157239833E+02  0.00000000000E+00 0.  1.
         12    1    3    3    0    0 -0.93970675942E+01 -0.57298534327E+02 -0.50326840277E+03  0.50660686152E+03  0.00000000000E+00 0. -1.
        -13    1    4    4    0    0 -0.11580416744E+03  0.30286954424E+02 -0.63170108112E+03  0.64294180195E+03  0.00000000000E+00 0. -1.
         13    1    4    4    0    0 -0.87576524538E+01  0.44418449765E+02 -0.84338768523E+02  0.95722113600E+02  0.00000000000E+00 0.  1.
         21    1    1    2  503  502 -0.21982518626E+02 -0.50887700369E+01 -0.35458307719E+02  0.42028779330E+02  0.00000000000E+00 0. -1.
          1    1    1    2  501    0  0.14193785186E+03 -0.31028038352E+02 -0.17203348852E+03  0.22517685078E+03  0.00000000000E+00 0. -1.
<scales pt_clust_5="13000.00000" pt_clust_6="13000.00000" pt_clust_7="13000.00000" pt_clust_8="13000.00000" pt_clust_9="22.56384" pt_clust_10="135.07730"></scales>
<clustering>
<clus scale="   22.564">  1  9  2 -1</clus>
<clus scale="   79.598">  5  6 -1 -1</clus>
<clus scale="   88.685">  2  5  1 -1</clus>
<clus scale="  108.696">  7  8 -1 -1</clus>
<clus scale="  135.077">  1 10  2 -1</clus>
<clus scale="   22.564">  1  5  2 -1</clus>
</clustering>
</event>
<event>
10    4  0.7204077E-005  0.1166390E+03  0.7546771E-02  0.1254203E+00
          2   -1    0    0  503    0 -0.00000000000E+00  0.00000000000E+00  0.83830058192E+03  0.83830058192E+03  0.00000000000E+00 0. -1.
         21   -1    0    0  501  502  0.00000000000E+00 -0.00000000000E+00 -0.42600122605E+02  0.42600122605E+02  0.00000000000E+00 0. -1.
         23    2    1    2    0    0 -0.63427282247E+02 -0.23415075330E+02  0.60920414404E+03  0.62052529712E+03  0.96698859190E+02 0.  0.
         24    2    1    2    0    0  0.53748096966E+02  0.25231427614E+02  0.16521557001E+03  0.19368365099E+03  0.81802745798E+02 0.  0.
        -13    1    4    4    0    0  0.64721505645E+02  0.33270202242E+02  0.16471173296E+03  0.18007147088E+03  0.00000000000E+00 0.  1.
         14    1    4    4    0    0 -0.10973408679E+02 -0.80387746284E+01  0.50383704941E+00  0.13612180109E+02  0.00000000000E+00 0. -1.
        -11    1    3    3    0    0 -0.86358424351E+02 -0.18866586110E+01  0.43195423989E+03  0.44050630222E+03  0.00000000000E+00 0. -1.
         11    1    3    3    0    0  0.22931142104E+02 -0.21528416719E+02  0.17724990415E+03  0.18001899490E+03  0.00000000000E+00 0.  1.
         21    1    1    2  503  502  0.12255324388E+01  0.28398199204E+02 -0.61624908415E+00  0.28431310394E+02  0.00000000000E+00 0. -1.
          1    1    1    2  501    0  0.84536528422E+01 -0.30214551488E+02  0.21896994351E+02  0.38260446019E+02  0.00000000000E+00 0. -1.
<scales pt_clust_5="13000.00000" pt_clust_6="13000.00000" pt_clust_7="13000.00000" pt_clust_8="13000.00000" pt_clust_9="28.42463" pt_clust_10="23.64215"></scales>
<clustering>
<clus scale="   28.425">  2  9  1 -1</clus>
<clus scale="   23.642">  2 10  1 -1</clus>
<clus scale="   81.803">  5  6 -1 -1</clus>
<clus scale="   96.699">  7  8 -1 -1</clus>
<clus scale="  104.622">  2  5  1 -1</clus>
<clus scale="   28.425">  2  5  1 -1</clus>
</clustering>
</event>
<event>
10    4  0.7204077E-005  0.1818873E+03  0.7546771E-02  0.1183296E+00
         21   -1    0    0  501  502  0.00000000000E+00  0.00000000000E+00  0.22677946752E+03  0.22677946752E+03  0.00000000000E+00 0.  1.
          2   -1    0    0  503    0 -0.00000000000E+00 -0.00000000000E+00 -0.71469897052E+03  0.71469897052E+03  0.00000000000E+00 0. -1.
         24    2    1    2    0    0  0.12120096406E+02  0.87757574583E+02 -0.24606781400E+03  0.27385783499E+03  0.81243190902E+02 0.  0.
         23    2    1    2    0    0 -0.17686250995E+03 -0.44533862093E+02 -0.24268078812E+03  0.31520231151E+03  0.84822874061E+02 0.  0.
        -11    1    3    3    0    0 -0.27493896800E+02  0.33572600309E+02 -0.15350073336E+03  0.15951648502E+03  0.00000000000E+00 0.  1.
         12    1    3    3    0    0  0.39613993206E+02  0.54184974273E+02 -0.92567080641E+02  0.11434134997E+03  0.00000000000E+00 0. -1.
        -11    1    4    4    0    0 -0.79690227887E+02 -0.51521593425E+02 -0.73714984390E+02  0.12016199871E+03  0.00000000000E+00 0. -1.
         11    1    4    4    0    0 -0.97172282061E+02  0.69877313321E+01 -0.16896580373E+03  0.19504031281E+03  0.00000000000E+00 0.  1.
         21    1    1    2  503  502  0.18966888215E+02  0.19159084006E+02  0.13931163686E+03  0.14189624912E+03  0.00000000000E+00 0.  1.
          1    1    1    2  501    0  0.14577552533E+03 -0.62382796496E+02 -0.13848253774E+03  0.21052204241E+03  0.00000000000E+00 0. -1.
<scales pt_clust_5="13000.00000" pt_clust_6="13000.00000" pt_clust_7="13000.00000" pt_clust_8="13000.00000" pt_clust_9="26.95948" pt_clust_10="160.89774"></scales>
<clustering>
<clus scale="   26.959">  1  9  2 -1</clus>
<clus scale="   81.243">  5  6 -1 -1</clus>
<clus scale="   84.823">  7  8 -1 -1</clus>
<clus scale="  122.817">  2  5  1 -1</clus>
<clus scale="  160.898">  1 10  2 -1</clus>
<clus scale="   26.959">  1  5  2 -1</clus>
</clustering>
</event>
<event>
10    4  0.7204077E-005  0.2084392E+03  0.7546771E-02  0.1164159E+00
          2   -1    0    0  502    0 -0.00000000000E+00  0.00000000000E+00  0.11557672123E+04  0.11557672123E+04  0.00000000000E+00 0. -1.
         21   -1    0    0  503  502  0.00000000000E+00 -0.00000000000E+00 -0.18402035756E+03  0.18402035756E+03  0.00000000000E+00 0.  1.
         23    2    1    2    0    0 -0.12208518899E+03 -0.42025047414E+02  0.96868970964E+02  0.18469789927E+03  0.89770922241E+02 0.  0.
         24    2    1    2    0    0 -0.44339738889E+02  0.22651307862E+03  0.70684469435E+03  0.74779601515E+03  0.79342744543E+02 0.  0.
        -13    1    4    4    0    0 -0.61580493534E+02  0.20618486630E+03  0.59190788760E+03  0.62980894220E+03  0.00000000000E+00 0.  1.
         14    1    4    4    0    0  0.17240754645E+02  0.20328212326E+02  0.11493680675E+03  0.11798707295E+03  0.00000000000E+00 0. -1.
        -13    1    3    3    0    0 -0.46115607832E+02 -0.65499960235E+01 -0.11211583409E+02  0.47908781409E+02  0.00000000000E+00 0.  1.
         13    1    3    3    0    0 -0.75969581154E+02 -0.35475051391E+02  0.10808055437E+03  0.13678911786E+03  0.00000000000E+00 0. -1.
         21    1    1    2  503  501  0.11225140437E+03 -0.30741858546E+02 -0.56862911584E+02  0.12953312458E+03  0.00000000000E+00 0.  1.
          1    1    1    2  501    0  0.54173523508E+02 -0.15374617266E+03  0.22489610105E+03  0.27776053090E+03  0.00000000000E+00 0. -1.
<scales pt_clust_5="13000.00000" pt_clust_6="13000.00000" pt_clust_7="13000.00000" pt_clust_8="13000.00000" pt_clust_9="116.38488" pt_clust_10="192.74761"></scales>
<clustering>
<clus scale="   79.343">  5  6 -1 -1</clus>
<clus scale="   89.771">  7  8 -1 -1</clus>
<clus scale="  116.385">  2  9  1 -1</clus>
<clus scale="  126.069">  1  7  2 -1</clus>
<clus scale="  192.748">  2 10  1 -1</clus>
<clus scale="  116.385">  2  5  1 -1</clus>
</clustering>
</event>
<event>
10    4  0.7204077E-005  0.1085013E+03  0.7546771E-02  0.1267099E+00
         21   -1    0    0  501  502  0.00000000000E+00  0.00000000000E+00  0.13448128783E+03  0.13448128783E+03  0.00000000000E+00 0. -1.
          2   -1    0    0  503    0 -0.00000000000E+00 -0.00000000000E+00 -0.41905472553E+03  0.41905472553E+03  0.00000000000E+00 0. -1.
         24    2    1    2    0    0  0.31115563408E+01  0.46626239501E+02 -0.14976098511E+03  0.17580455974E+03  0.79342312631E+02 0.  0.
         23    2    1    2    0    0  0.28899966962E+02 -0.77881098703E+02 -0.23311125985E+03  0.26292427740E+03  0.88812400897E+02 0.  0.
        -13    1    3    3    0    0  0.24691047385E+02  0.51289388573E+02 -0.14099189836E+03  0.15204921771E+03  0.00000000000E+00 0.  1.
         14    1    3    3    0    0 -0.21579491044E+02 -0.46631490722E+01 -0.87690867440E+01  0.23755342037E+02  0.00000000000E+00 0. -1.
        -13    1    4    4    0    0  0.33934586199E+02 -0.14010908413E+02 -0.23143028407E+02  0.43398864719E+02  0.00000000000E+00 0.  1.
         13    1    4    4    0    0 -0.50346192368E+01 -0.63870190291E+02 -0.20996823144E+03  0.21952541268E+03  0.00000000000E+00 0. -1.
         21    1    1    2  503  502  0.25127031559E+01  0.23859848731E+02  0.40993508039E+02  0.47498144806E+02  0.00000000000E+00 0.  1.
          1    1    1    2  501    0 -0.34524226459E+02  0.73950104710E+01  0.57305299210E+02  0.67309031415E+02  0.00000000000E+00 0. -1.
<scales pt_clust_5="13000.00000" pt_clust_6="13000.00000" pt_clust_7="13000.00000" pt_clust_8="13000.00000" pt_clust_9="23.99179" pt_clust_10="40.55756"></scales>
<clustering>
<clus scale="   23.992">  1  9  2 -1</clus>
<clus scale="   40.558">  1 10  2 -1</clus>
<clus scale="   79.342">  5  6 -1 -1</clus>
<clus scale="   88.812">  7  8 -1 -1</clus>
<clus scale="  100.896">  2  5  1 -1</clus>
<clus scale="   23.992">  1  5  2 -1</clus>
</clustering>
</event>
<event>
10    4  0.7204077E-005  0.4039194E+03  0.7546771E-02  0.1094505E+00
          2   -1    0    0  503    0 -0.00000000000E+00  0.00000000000E+00  0.80124127957E+03  0.80124127957E+03  0.00000000000E+00 0. -1.
         21   -1    0    0  501  502  0.00000000000E+00 -0.00000000000E+00 -0.42078460878E+03  0.42078460878E+03  0.00000000000E+00 0. -1.
         24    2    1    2    0    0 -0.32684745022E+02 -0.30722302835E+02  0.13716952443E+03  0.16750277244E+03  0.85026748105E+02 0.  0.
         23    2    1    2    0    0  0.38365216644E+03 -0.69571066317E+02  0.26187294264E+02  0.40147016738E+03  0.91996754464E+02 0.  0.
        -11    1    3    3    0    0 -0.20330643328E+02  0.28447005956E+02  0.60430670729E+02  0.69817140952E+02  0.00000000000E+00 0.  1.
         12    1    3    3    0    0 -0.12354101694E+02 -0.59169308791E+02  0.76738853703E+02  0.97685631488E+02  0.00000000000E+00 0. -1.
        -13    1    4    4    0    0  0.31412155909E+03 -0.25199102256E+02  0.67247973692E+00  0.31513140255E+03  0.00000000000E+00 0. -1.
         13    1    4    4    0    0  0.69530607350E+02 -0.44371964060E+02  0.25514814527E+02  0.86338764836E+02  0.00000000000E+00 0.  1.
         21    1    1    2  503  502  0.14706095598E+02 -0.19550794701E+02 -0.13153921835E+03  0.13379487579E+03  0.00000000000E+00 0. -1.
          1    1    1    2  501    0 -0.36567351702E+03  0.11984416385E+03  0.34863907045E+03  0.51925807274E+03  0.00000000000E+00 0. -1.
<scales pt_clust_5="13000.00000" pt_clust_6="13000.00000" pt_clust_7="13000.00000" pt_clust_8="13000.00000" pt_clust_9="24.46432" pt_clust_10="393.30351"></scales>
<clustering>
<clus scale="   24.464">  2  9  1 -1</clus>
<clus scale="   85.027">  5  6 -1 -1</clus>
<clus scale="   91.997">  7  8 -1 -1</clus>
<clus scale="   96.208">  1  5  2 -1</clus>
<clus scale="  393.304">  2 10  1 -1</clus>
<clus scale="   24.464">  2  5  1 -1</clus>
</clustering>
</event>
<event>
10    4  0.7204077E-005  0.1879924E+03  0.7546771E-02  0.1186353E+00
         21   -1    0    0  501  502  0.00000000000E+00  0.00000000000E+00  0.10988589731E+04  0.10988589731E+04  0.00000000000E+00 0. -1.
          4   -1    0    0  503    0 -0.00000000000E+00 -0.00000000000E+00 -0.14918704627E+03  0.14918704627E+03  0.00000000000E+00 0. -1.
         23    2    1    2    0    0  0.55300055817E+02  0.91944079421E+01 -0.22630913130E+02  0.10634308499E+03  0.87487485876E+02 0.  0.
         24    2    1    2    0    0  0.14413327907E+03 -0.86702869570E+02  0.60422167072E+02  0.19778543918E+03  0.84713941888E+02 0.  0.
        -13    1    4    4    0    0  0.45662455221E+02 -0.25867067713E+02  0.63018043320E+02  0.82008772658E+02  0.00000000000E+00 0.  1.
         14    1    4    4    0    0  0.98470823852E+02 -0.60835801856E+02 -0.25958762487E+01  0.11577666652E+03  0.00000000000E+00 0. -1.
        -11    1    3    3    0    0  0.43535885174E+02  0.33046237338E+02 -0.45616064777E+02  0.71191660086E+02  0.00000000000E+00 0. -1.
         11    1    3    3    0    0  0.11764170643E+02 -0.23851829395E+02  0.22985151647E+02  0.35151424902E+02  0.00000000000E+00 0.  1.
         21    1    1    2  503  502 -0.12355175722E+03 -0.26519521280E+01  0.34688801402E+03  0.36824362022E+03  0.00000000000E+00 0.  1.
          3    1    1    2  501    0 -0.75881577675E+02  0.80160413755E+02  0.56499265881E+03  0.57567387493E+03  0.00000000000E+00 0. -1.
<scales pt_clust_5="13000.00000" pt_clust_6="13000.00000" pt_clust_7="13000.00000" pt_clust_8="13000.00000" pt_clust_9="167.82334" pt_clust_10="108.44339"></scales>
<clustering>
<clus scale="   84.714">  5  6 -1 -1</clus>
<clus scale="   87.487">  7  8 -1 -1</clus>
<clus scale="  103.907">  2  7  1 -1</clus>
<clus scale="  108.443">  1 10  2 -1</clus>
<clus scale="  167.823">  1  9  2 -1</clus>
<clus scale="  108.443">  1  5  2 -1</clus>
</clustering>
</event>
<event>
10    4  0.7204077E-005  0.1788716E+03  0.7546771E-02  0.1199537E+00
         21   -1    0    0  501  502  0.00000000000E+00  0.00000000000E+00  0.93236798489E+02  0.93236798489E+02  0.00000000000E+00 0.  1.
          2   -1    0    0  503    0 -0.00000000000E+00 -0.00000000000E+00 -0.11436406807E+04  0.11436406807E+04  0.00000000000E+00 0. -1.
         24    2    1    2    0    0  0.16682787593E+02  0.33009528747E+02 -0.23637076433E+03  0.25221214332E+03  0.79824072941E+02 0.  0.
         23    2    1    2    0    0 -0.99071146619E+02 -0.11567527435E+02 -0.21186916127E+03  0.26572311063E+03  0.12558395694E+03 0.  0.
        -13    1    3    3    0    0 -0.52505735476E+01 -0.25139306081E+02 -0.75902526730E+02  0.80129562565E+02  0.00000000000E+00 0.  1.
         14    1    3    3    0    0  0.21933361141E+02  0.58148834828E+02 -0.16046823760E+03  0.17208258076E+03  0.00000000000E+00 0. -1.
        -11    1    4    4    0    0 -0.64407184095E+02  0.19959793947E+02 -0.20805781637E+03  0.21871153076E+03  0.00000000000E+00 0. -1.
         11    1    4    4    0    0 -0.34663962523E+02 -0.31527321381E+02 -0.38113449056E+01  0.47011579864E+02  0.00000000000E+00 0.  1.
         21    1    1    2  503  502 -0.43566876268E+02  0.44596498495E+02  0.31264173575E+02  0.69745028031E+02  0.00000000000E+00 0.  1.
          1    1    1    2  501    0  0.12595523529E+03 -0.66038499807E+02 -0.63342813023E+03  0.64919719726E+03  0.00000000000E+00 0. -1.
<scales pt_clust_5="13000.00000" pt_clust_6="13000.00000" pt_clust_7="13000.00000" pt_clust_8="13000.00000" pt_clust_9="62.34517" pt_clust_10="127.37241"></scales>
<clustering>
<clus scale="   62.345">  1  9  2 -1</clus>
<clus scale="   79.824">  5  6 -1 -1</clus>
<clus scale="   90.275">  2  5  1 -1</clus>
<clus scale="  125.584">  7  8 -1 -1</clus>
<clus scale="  127.372">  1 10  2 -1</clus>
<clus scale="   62.345">  1  5  2 -1</clus>
</clustering>
</event>
<event>
10    4  0.7204077E-005  0.3239163E+03  0.7546771E-02  0.1109568E+00
         21   -1    0    0  501  502  0.00000000000E+00  0.00000000000E+00  0.10299846280E+04  0.10299846280E+04  0.00000000000E+00 0.  1.
          2   -1    0    0  503    0 -0.00000000000E+00 -0.00000000000E+00 -0.74752901466E+03  0.74752901466E+03  0.00000000000E+00 0. -1.
         23    2    1    2    0    0 -0.76036402256E+02 -0.51113932287E+02  0.21698056788E+03  0.25264414063E+03  0.91402004458E+02 0.  0.
         24    2    1    2    0    0 -0.30575950386E+02 -0.33227743278E+03  0.47246700630E+03  0.58401299764E+03  0.80640735943E+02 0.  0.
        -11    1    4    4    0    0 -0.53218303891E+02 -0.29204579245E+03  0.40075191236E+03  0.49872339830E+03  0.00000000000E+00 0.  1.
         12    1    4    4    0    0  0.22642353505E+02 -0.40231640334E+02  0.71715093949E+02  0.85289599344E+02  0.00000000000E+00 0. -1.
        -11    1    3    3    0    0 -0.19333198919E+01 -0.31284183028E+02  0.11627495718E+02  0.33431070731E+02  0.00000000000E+00 0. -1.
         11    1    3    3    0    0 -0.74103082364E+02 -0.19829749259E+02  0.20535307216E+03  0.21921306990E+03  0.00000000000E+00 0.  1.
         21    1    1    2  503  502 -0.43207166545E+01  0.36493244873E+02  0.21606133083E+03  0.21916414897E+03  0.00000000000E+00 0.  1.
          1    1    1    2  501    0  0.11093306930E+03  0.34689812019E+03 -0.62305329165E+03  0.72169235543E+03  0.00000000000E+00 0. -1.
<scales pt_clust_5="13000.00000" pt_clust_6="13000.00000" pt_clust_7="13000.00000" pt_clust_8="13000.00000" pt_clust_9="36.74814" pt_clust_10="313.71798"></scales>
<clustering>
<clus scale="   36.748">  1  9  2 -1</clus>
<clus scale="   80.641">  5  6 -1 -1</clus>
<clus scale="   91.402">  7  8 -1 -1</clus>
<clus scale="  126.384">  2  7  1 -1</clus>
<clus scale="  313.718">  1 10  2 -1</clus>
<clus scale="   36.748">  1  5  2 -1</clus>
</clustering>
</event>
<event>
10    4  0.7204077E-005  0.1430107E+03  0.7546771E-02  0.1211926E+00
         21   -1    0    0  501  502  0.00000000000E+00  0.00000000000E+00  0.69153981274E+03  0.69153981274E+03  0.00000000000E+00 0.  1.
         -1   -1    0    0    0  501 -0.00000000000E+00 -0.00000000000E+00 -0.61837845721E+02  0.61837845721E+02  0.00000000000E+00 0.  1.
         24    2    1    2    0    0  0.51104401973E+01 -0.12959079800E+03  0.13414275834E+03  0.20200637117E+03  0.77410612010E+02 0.  0.
         23    2    1    2    0    0 -0.76561246537E+02  0.69821346854E+02  0.23558352637E+03  0.27270725980E+03  0.90183184133E+02 0.  0.
        -13    1    3    3    0    0 -0.48431934142E+01 -0.88082200779E+02  0.36550722274E+02  0.95487621791E+02  0.00000000000E+00 0.  1.
         14    1    3    3    0    0  0.99536336115E+01 -0.41508597221E+02  0.97592036064E+02  0.10651874937E+03  0.00000000000E+00 0. -1.
        -11    1    4    4    0    0 -0.65777647836E+02  0.22200125960E+01  0.14435759754E+03  0.15865290220E+03  0.00000000000E+00 0.  1.
         11    1    4    4    0    0 -0.10783598701E+02  0.67601334258E+02  0.91225928834E+02  0.11405435759E+03  0.00000000000E+00 0. -1.
         21    1    1    2  503  502  0.24734835896E+02  0.53940627183E+01  0.10345898371E+03  0.10651135775E+03  0.00000000000E+00 0.  1.
         -2    1    1    2    0  503  0.46715970444E+02  0.54375388428E+02  0.15651669860E+03  0.17215266975E+03  0.00000000000E+00 0.  1.
<scales pt_clust_5="13000.00000" pt_clust_6="13000.00000" pt_clust_7="13000.00000" pt_clust_8="13000.00000" pt_clust_9="22.14517" pt_clust_10="100.33088"></scales>
<clustering>
<clus scale="   22.145">  9 10 -1 -1</clus>
<clus scale="   77.411">  5  6 -1 -1</clus>
<clus scale="   90.183">  7  8 -1 -1</clus>
<clus scale="  100.331">  1  9  2 -1</clus>
<clus scale="  135.320">  2  5  1 -1</clus>
<clus scale="  100.331">  1  5  2 -1</clus>
</clustering>
</event>
<event>
10    4  0.7204077E-005  0.8943581E+02  0.7546771E-02  0.1309855E+00
         -3   -1    0    0    0  501 -0.00000000000E+00  0.00000000000E+00  0.53282785403E+02  0.53282785403E+02  0.00000000000E+00 0.  1.
         21   -1    0    0  501  502  0.00000000000E+00 -0.00000000000E+00 -0.60522522007E+03  0.60522522007E+03  0.00000000000E+00 0.  1.
         24    2    1    2    0    0  0.78278382988E+01  0.22797433147E+02 -0.64645965561E+02  0.10602338606E+03  0.80503785737E+02 0.  0.
         23    2    1    2    0    0  0.32025829554E+01  0.62816661938E+02 -0.17508471557E+03  0.20634106407E+03  0.89251260716E+02 0.  0.
        -11    1    3    3    0    0 -0.34125782782E+02  0.23250611985E+02 -0.24840872649E+02  0.48189510914E+02  0.00000000000E+00 0.  1.
         12    1    3    3    0    0  0.41953621081E+02 -0.45317883841E+00 -0.39805092912E+02  0.57833875147E+02  0.00000000000E+00 0. -1.
        -13    1    4    4    0    0  0.45150901732E+02  0.44553306581E+02 -0.10262225840E+03  0.12064381034E+03  0.00000000000E+00 0.  1.
         13    1    4    4    0    0 -0.41948318776E+02  0.18263355357E+02 -0.72462457171E+02  0.85697253727E+02  0.00000000000E+00 0. -1.
         21    1    1    2  503  502  0.32750740999E+02 -0.13861480124E+02 -0.21372813443E+03  0.21666671899E+03  0.00000000000E+00 0. -1.
         -4    1    1    2    0  503 -0.43781162253E+02 -0.71752614961E+02 -0.98483619096E+02  0.12947683635E+03  0.00000000000E+00 0.  1.
<scales pt_clust_5="13000.00000" pt_clust_6="13000.00000" pt_clust_7="13000.00000" pt_clust_8="13000.00000" pt_clust_9="35.56335" pt_clust_10="83.16554"></scales>
<clustering>
<clus scale="   35.563">  2  9  1 -1</clus>
<clus scale="   80.504">  5  6 -1 -1</clus>
<clus scale="   83.166">  2 10  1 -1</clus>
<clus scale="   80.708">  1  5  2 -1</clus>
<clus scale="   89.251">  7  8 -1 -1</clus>
<clus scale="   35.563">  2  5  1 -1</clus>
</clustering>
</event>
<event>
10    4  0.7204077E-005  0.1683962E+03  0.7546771E-02  0.1202900E+00
         21   -1    0    0  501  502  0.00000000000E+00  0.00000000000E+00  0.24672235922E+03  0.24672235922E+03  0.00000000000E+00 0.  1.
         -3   -1    0    0    0  501 -0.00000000000E+00 -0.00000000000E+00 -0.39968426810E+03  0.39968426810E+03  0.00000000000E+00 0.  1.
         23    2    1    2    0    0  0.12770789810E+02 -0.38790977847E+02 -0.17823628725E+03  0.20438001512E+03  0.91297225875E+02 0.  0.
         24    2    1    2    0    0  0.60107472437E+02 -0.10102066321E+03 -0.31266593004E+02  0.14618219433E+03  0.81077441147E+02 0.  0.
        -11    1    4    4    0    0  0.76120138695E+02 -0.96708125195E+02 -0.37197058013E+02  0.12857044030E+03  0.00000000000E+00 0.  1.
         12    1    4    4    0    0 -0.16012666258E+02 -0.43125380127E+01  0.59304650088E+01  0.17611754030E+02  0.00000000000E+00 0. -1.
        -13    1    3    3    0    0  0.36943870317E+02 -0.11522521974E+02 -0.15805643242E+03  0.16272508686E+03  0.00000000000E+00 0.  1.
         13    1    3    3    0    0 -0.24173080507E+02 -0.27268455873E+02 -0.20179854837E+02  0.41654928258E+02  0.00000000000E+00 0. -1.
         21    1    1    2  503  502  0.41411970119E+02 -0.27602067933E+00  0.10143136984E+03  0.10955980214E+03  0.00000000000E+00 0.  1.
         -4    1    1    2    0  503 -0.11429023237E+03  0.14008766173E+03 -0.44890398456E+02  0.18628461573E+03  0.00000000000E+00 0.  1.
<scales pt_clust_5="13000.00000" pt_clust_6="13000.00000" pt_clust_7="13000.00000" pt_clust_8="13000.00000" pt_clust_9="41.41289" pt_clust_10="147.59322"></scales>
<clustering>
<clus scale="   41.413">  1  9  2 -1</clus>
<clus scale="   81.077">  5  6 -1 -1</clus>
<clus scale="   91.297">  7  8 -1 -1</clus>
<clus scale="  100.586">  2  7  1 -1</clus>
<clus scale="  147.593">  1 10  2 -1</clus>
<clus scale="   41.413">  1  5  2 -1</clus>
</clustering>
</event>
<event>
10    4  0.7204077E-005  0.1017440E+03  0.7546771E-02  0.1281838E+00
         21   -1    0    0  503  502  0.00000000000E+00  0.00000000000E+00  0.21917411573E+03  0.21917411573E+03  0.00000000000E+00 0.  1.
          2   -1    0    0  502    0 -0.00000000000E+00 -0.00000000000E+00 -0.10771461051E+03  0.10771461051E+03  0.00000000000E+00 0. -1.
         23    2    1    2    0    0  0.63197932483E+02 -0.14464391733E+01  0.49466139602E+02  0.12135722868E+03  0.91019817238E+02 0.  0.
         24    2    1    2    0    0 -0.22593677367E+02  0.27810207527E+02  0.64925651619E+02  0.10924100221E+03  0.80214552452E+02 0.  0.
        -13    1    4    4    0    0 -0.21931713957E+02  0.44432751745E+02  0.74927674863E+02  0.89829983664E+02  0.00000000000E+00 0.  1.
         14    1    4    4    0    0 -0.66196340975E+00 -0.16622544217E+02 -0.10002023245E+02  0.19411018541E+02  0.00000000000E+00 0. -1.
        -13    1    3    3    0    0  0.79372845646E+02  0.21709610921E+02  0.32972981333E+02  0.88648594632E+02  0.00000000000E+00 0. -1.
         13    1    3    3    0    0 -0.16174913162E+02 -0.23156050095E+02  0.16493158268E+02  0.32708634051E+02  0.00000000000E+00 0.  1.
         21    1    1    2  503  501  0.24102129463E+02 -0.30378607548E+01  0.10057164588E+02  0.26292352542E+02  0.00000000000E+00 0. -1.
          1    1    1    2  501    0 -0.64706384579E+02 -0.23325907599E+02 -0.12989450593E+02  0.69998142814E+02  0.00000000000E+00 0. -1.
<scales pt_clust_5="13000.00000" pt_clust_6="13000.00000" pt_clust_7="13000.00000" pt_clust_8="13000.00000" pt_clust_9="24.29282" pt_clust_10="65.73167"></scales>
<clustering>
<clus scale="   24.293">  1  9  2 -1</clus>
<clus scale="   65.732">  1 10  2 -1</clus>
<clus scale="   80.215">  5  6 -1 -1</clus>
<clus scale="   91.020">  7  8 -1 -1</clus>
<clus scale="   92.204">  1  5  2 -1</clus>
<clus scale="   24.293">  1  5  2 -1</clus>
</clustering>
</event>
<event>
10    4  0.7204077E-005  0.1310369E+03  0.7546771E-02  0.1227862E+00
          2   -1    0    0  503    0 -0.00000000000E+00  0.00000000000E+00  0.28616589011E+03  0.28616589011E+03  0.00000000000E+00 0. -1.
         21   -1    0    0  501  502  0.00000000000E+00 -0.00000000000E+00 -0.12521699078E+03  0.12521699078E+03  0.00000000000E+00 0.  1.
         24    2    1    2    0    0  0.89918897999E+02 -0.23251803757E+02  0.16649771084E+03  0.20875520633E+03  0.85036426657E+02 0.  0.
         23    2    1    2    0    0 -0.87892949034E+02  0.29808682400E+02  0.27663759416E+02  0.13392800299E+03  0.92507828665E+02 0.  0.
        -13    1    3    3    0    0 -0.65430734592E+01 -0.21836493804E+02  0.99577862680E+01  0.24875726709E+02  0.00000000000E+00 0.  1.
         14    1    3    3    0    0  0.96461971458E+02 -0.14153099533E+01  0.15653992458E+03  0.18387947962E+03  0.00000000000E+00 0. -1.
        -11    1    4    4    0    0 -0.87426551186E+02  0.50251374853E+02  0.41704835333E+02  0.10912330556E+03  0.00000000000E+00 0.  1.
         11    1    4    4    0    0 -0.46639784763E+00 -0.20442692452E+02 -0.14041075917E+02  0.24804697429E+02  0.00000000000E+00 0. -1.
         21    1    1    2  503  502  0.51292116638E+01 -0.32456362332E+02 -0.22228828756E+02  0.39671716574E+02  0.00000000000E+00 0.  1.
          1    1    1    2  501    0 -0.71551606285E+01  0.25899483689E+02 -0.10983742170E+02  0.29027954992E+02  0.00000000000E+00 0. -1.
<scales pt_clust_5="13000.00000" pt_clust_6="13000.00000" pt_clust_7="13000.00000" pt_clust_8="13000.00000" pt_clust_9="25.02089" pt_clust_10="26.86968"></scales>
<clustering>
<clus scale="   26.870">  2 10  1 -1</clus>
<clus scale="   25.021">  2  9  1 -1</clus>
<clus scale="   85.036">  5  6 -1 -1</clus>
<clus scale="   92.508">  7  8 -1 -1</clus>
<clus scale="  125.874">  1  5  2 -1</clus>
<clus scale="   26.870">  2  5  1 -1</clus>
</clustering>
</event>
<event>
10    4  0.7204077E-005  0.1240460E+03  0.7546771E-02  0.1239723E+00
          2   -1    0    0  502    0 -0.00000000000E+00  0.00000000000E+00  0.58377940506E+03  0.58377940506E+03  0.00000000000E+00 0. -1.
         21   -1    0    0  503  502  0.00000000000E+00 -0.00000000000E+00 -0.17895257271E+03  0.17895257271E+03  0.00000000000E+00 0. -1.
         24    2    1    2    0    0 -0.44394911674E+01  0.82375015809E+02  0.39458058974E+03  0.41130323184E+03  0.81677135192E+02 0.  0.
         23    2    1    2    0    0  0.30772186901E+02 -0.87101901654E+02 -0.12374957001E+03  0.17993024261E+03  0.92343204257E+02 0.  0.
        -11    1    3    3    0    0 -0.13294956812E+02  0.60701351307E+02  0.11475185171E+03  0.13049673328E+03  0.00000000000E+00 0.  1.
         12    1    3    3    0    0  0.88554656445E+01  0.21673664502E+02  0.27982873803E+03  0.28080649856E+03  0.00000000000E+00 0. -1.
        -13    1    4    4    0    0  0.33024279723E+02 -0.34706190220E+02 -0.26710947678E+01  0.47981844880E+02  0.00000000000E+00 0.  1.
         13    1    4    4    0    0 -0.22520928227E+01 -0.52395711434E+02 -0.12107847524E+03  0.13194839773E+03  0.00000000000E+00 0. -1.
         21    1    1    2  503  501  0.17684910708E+02  0.20011951940E+02 -0.29250862481E+01  0.26866157462E+02  0.00000000000E+00 0. -1.
          1    1    1    2  501    0 -0.44017606442E+02 -0.15285066094E+02  0.13692089886E+03  0.14463234586E+03  0.00000000000E+00 0. -1.
<scales pt_clust_5="13000.00000" pt_clust_6="13000.00000" pt_clust_7="13000.00000" pt_clust_8="13000.00000" pt_clust_9="26.70645" pt_clust_10="46.05009"></scales>
<clustering>
<clus scale="   26.706">  2  9  1 -1</clus>
<clus scale="   46.050">  2 10  1 -1</clus>
<clus scale="   81.677">  5  6 -1 -1</clus>
<clus scale="   92.343">  7  8 -1 -1</clus>
<clus scale="  116.324">  1  5  2 -1</clus>
<clus scale="   26.706">  2  5  1 -1</clus>
</clustering>
</event>
<event>
10    4  0.7204077E-005  0.1359747E+03  0.7546771E-02  0.1225715E+00
          2   -1    0    0  502    0 -0.00000000000E+00  0.00000000000E+00  0.10639574977E+04  0.10639574977E+04  0.00000000000E+00 0. -1.
         21   -1    0    0  503  502  0.00000000000E+00 -0.00000000000E+00 -0.44999320635E+02  0.44999320635E+02  0.00000000000E+00 0.  1.
         24    2    1    2    0    0  0.88453966380E+02  0.40784415484E+02  0.27102096086E+03  0.29992197645E+03  0.83745794043E+02 0.  0.
         23    2    1    2    0    0 -0.59023989954E+02 -0.17963603315E+02  0.15941975282E+03  0.20211365748E+03  0.10783668448E+03 0.  0.
        -13    1    3    3    0    0  0.89036278714E+02  0.52740221734E+02  0.17614597844E+03  0.20429487423E+03  0.00000000000E+00 0.  1.
         14    1    3    3    0    0 -0.58231233383E+00 -0.11955806250E+02  0.94874982417E+02  0.95627102222E+02  0.00000000000E+00 0. -1.
        -13    1    4    4    0    0  0.69805145630E+01 -0.44896925036E+02  0.97981392851E+02  0.10800377219E+03  0.00000000000E+00 0.  1.
         13    1    4    4    0    0 -0.66004504517E+02  0.26933321721E+02  0.61438359966E+02  0.94109885298E+02  0.00000000000E+00 0. -1.
         21    1    1    2  503  501  0.20378495696E+02  0.40592383317E+02  0.79532318995E+02  0.91588287652E+02  0.00000000000E+00 0. -1.
          1    1    1    2  501    0 -0.49808472123E+02 -0.63413195487E+02  0.50898514442E+03  0.51533289677E+03  0.00000000000E+00 0. -1.
<scales pt_clust_5="13000.00000" pt_clust_6="13000.00000" pt_clust_7="13000.00000" pt_clust_8="13000.00000" pt_clust_9="45.42053" pt_clust_10="77.01430"></scales>
<clustering>
<clus scale="   45.421">  2  9  1 -1</clus>
<clus scale="   77.014">  2 10  1 -1</clus>
<clus scale="   83.746">  5  6 -1 -1</clus>
<clus scale="  107.837">  7  8 -1 -1</clus>
<clus scale="  117.787">  1  5  2 -1</clus>
<clus scale="   45.421">  2  5  1 -1</clus>
</clustering>
</event>
<event>
10    4  0.7204077E-005  0.1425084E+03  0.7546771E-02  0.1231189E+00
         -3   -1    0    0    0  501 -0.00000000000E+00  0.00000000000E+00  0.72396707916E+02  0.72396707916E+02  0.00000000000E+00 0.  1.
         21   -1    0    0  503  502  0.00000000000E+00 -0.00000000000E+00 -0.73242970869E+03  0.73242970869E+03  0.00000000000E+00 0. -1.
         24    2    1    2    0    0 -0.85572283998E+01 -0.44717402767E+02 -0.78198749540E+02  0.12025406545E+03  0.79203052719E+02 0.  0.
         23    2    1    2    0    0  0.38532460206E+02  0.79036033925E+02 -0.23985857566E+03  0.27218337358E+03  0.93915959196E+02 0.  0.
        -11    1    3    3    0    0  0.15280003840E+02 -0.53134466611E+02 -0.77198667044E+02  0.94954643134E+02  0.00000000000E+00 0.  1.
         12    1    3    3    0    0 -0.23837232240E+02  0.84170638445E+01 -0.10000824961E+01  0.25299422318E+02  0.00000000000E+00 0. -1.
        -13    1    4    4    0    0  0.16993186413E+02  0.52463304224E+02 -0.23009498951E+03  0.23661122305E+03  0.00000000000E+00 0. -1.
         13    1    4    4    0    0  0.21539273794E+02  0.26572729701E+02 -0.97635861456E+01  0.35572150536E+02  0.00000000000E+00 0.  1.
         21    1    1    2  503  501  0.65239827536E+02  0.64788370686E+02 -0.15706689749E+03  0.18199939110E+03  0.00000000000E+00 0. -1.
         -4    1    1    2    0  502 -0.95215059342E+02 -0.99107001845E+02 -0.18490877809E+03  0.23038958647E+03  0.00000000000E+00 0.  1.
<scales pt_clust_5="13000.00000" pt_clust_6="13000.00000" pt_clust_7="13000.00000" pt_clust_8="13000.00000" pt_clust_9="83.05850" pt_clust_10="107.18424"></scales>
<clustering>
<clus scale="   79.203">  5  6 -1 -1</clus>
<clus scale="   91.356">  1  5  2 -1</clus>
<clus scale="   83.058">  1  9  2 -1</clus>
<clus scale="   93.916">  7  8 -1 -1</clus>
<clus scale="  107.184">  2 10  1 -1</clus>
<clus scale="  107.184">  2  5  1 -1</clus>
</clustering>
</event>
<event>
10    4  0.7204077E-005  0.1317590E+03  0.7546771E-02  0.1224951E+00
         21   -1    0    0  501  502  0.00000000000E+00  0.00000000000E+00  0.70992334954E+03  0.70992334954E+03  0.00000000000E+00 0. -1.
          2   -1    0    0  503    0 -0.00000000000E+00 -0.00000000000E+00 -0.17637796104E+03  0.17637796104E+03  0.00000000000E+00 0. -1.
         24    2    1    2    0    0  0.94305427473E+02 -0.20728429280E+01  0.74155660840E+02  0.14479120359E+03  0.81040855577E+02 0.  0.
         23    2    1    2    0    0 -0.14976546006E+03  0.45994195299E+02  0.53906873587E+03  0.56714069014E+03  0.80674044119E+02 0.  0.
        -13    1    3    3    0    0  0.62448410696E+01  0.26025668402E+02  0.78384857250E+00  0.26775882326E+02  0.00000000000E+00 0.  1.
         14    1    3    3    0    0  0.88060586403E+02 -0.28098511330E+02  0.73371812267E+02  0.11801532126E+03  0.00000000000E+00 0. -1.
        -11    1    4    4    0    0 -0.11167094949E+03  0.24850575186E+02  0.48172415557E+03  0.49512232237E+03  0.00000000000E+00 0. -1.
         11    1    4    4    0    0 -0.38094510572E+02  0.21143620113E+02  0.57344580299E+02  0.72018367774E+02  0.00000000000E+00 0.  1.
         21    1    1    2  503  502  0.25547835593E+02 -0.19719994927E+02  0.38410843447E+02  0.50169343206E+02  0.00000000000E+00 0. -1.
          1    1    1    2  501    0  0.29912196992E+02 -0.24201357444E+02 -0.11808985166E+03  0.12420007365E+03  0.00000000000E+00 0. -1.
<scales pt_clust_5="13000.00000" pt_clust_6="13000.00000" pt_clust_7="13000.00000" pt_clust_8="13000.00000" pt_clust_9="32.27337" pt_clust_10="38.62466"></scales>
<clustering>
<clus scale="   32.273">  1  9  2 -1</clus>
<clus scale="   38.625">  1 10  2 -1</clus>
<clus scale="   80.674">  7  8 -1 -1</clus>
<clus scale="   81.041">  5  6 -1 -1</clus>
<clus scale="  131.534">  1  7  2 -1</clus>
<clus scale="   32.273">  1  5  2 -1</clus>
</clustering>
</event>
<event>
10    4  0.7204077E-005  0.9985466E+02  0.7546771E-02  0.1286091E+00
         -1   -1    0    0    0  501 -0.00000000000E+00  0.00000000000E+00  0.80306734877E+02  0.80306734877E+02  0.00000000000E+00 0.  1.
         21   -1    0    0  503  502  0.00000000000E+00 -0.00000000000E+00 -0.46398649058E+03  0.46398649058E+03  0.00000000000E+00 0. -1.
         24    2    1    2    0    0  0.22022863982E+02 -0.31581369948E+02  0.22832397075E+02  0.91838174414E+02  0.80190663158E+02 0.  0.
         23    2    1    2    0    0 -0.32781511966E+02  0.42983002509E+02 -0.17818600442E+03  0.20730177911E+03  0.91113168195E+02 0.  0.
        -13    1    3    3    0    0  0.38875770478E+02 -0.41940153755E+02  0.36456373361E+02  0.67818649249E+02  0.00000000000E+00 0.  1.
         14    1    3    3    0    0 -0.16852906495E+02  0.10358783807E+02 -0.13623976286E+02  0.24019525165E+02  0.00000000000E+00 0. -1.
        -11    1    4    4    0    0 -0.51469237183E+02  0.59980930244E+02 -0.11794273935E+03  0.14197635062E+03  0.00000000000E+00 0. -1.
         11    1    4    4    0    0  0.18687725218E+02 -0.16997927735E+02 -0.60243265075E+02  0.65325428495E+02  0.00000000000E+00 0.  1.
         21    1    1    2  503  501 -0.31581620624E+02  0.68468144962E+01 -0.15650938678E+03  0.15981071860E+03  0.00000000000E+00 0. -1.
         -2    1    1    2    0  502  0.42340268607E+02 -0.18248447057E+02 -0.71816761569E+02  0.85342553324E+02  0.00000000000E+00 0.  1.
<scales pt_clust_5="13000.00000" pt_clust_6="13000.00000" pt_clust_7="13000.00000" pt_clust_8="13000.00000" pt_clust_9="32.31528" pt_clust_10="37.99062"></scales>
<clustering>
<clus scale="   32.315">  2  9  1 -1</clus>
<clus scale="   37.991">  2 10  1 -1</clus>
<clus scale="   80.191">  5  6 -1 -1</clus>
<clus scale="   89.999">  1  5  2 -1</clus>
<clus scale="   91.113">  7  8 -1 -1</clus>
<clus scale="   32.315">  2  5  1 -1</clus>
</clustering>
</event>
<event>
10    4  0.7204077E-005  0.1319291E+03  0.7546771E-02  0.1228013E+00
         21   -1    0    0  501  502  0.00000000000E+00  0.00000000000E+00  0.26068912326E+03  0.26068912326E+03  0.00000000000E+00 0.  1.
         -3   -1    0    0    0  501 -0.00000000000E+00 -0.00000000000E+00 -0.21883564717E+03  0.21883564717E+03  0.00000000000E+00 0.  1.
         24    2    1    2    0    0  0.68129980996E+02 -0.65500096592E+02 -0.11230977218E+03  0.16818077247E+03  0.82093424450E+02 0.  0.
         23    2    1    2    0    0 -0.10459277542E+03 -0.36126674146E+00  0.29883493156E+02  0.14443160515E+03  0.95014136941E+02 0.  0.
        -11    1    3    3    0    0  0.65813554188E+02 -0.77419594803E+02 -0.68072600068E+02  0.12230738512E+03  0.00000000000E+00 0.  1.
         12    1    3    3    0    0  0.23164268076E+01  0.11919498211E+02 -0.44237172113E+02  0.45873387354E+02  0.00000000000E+00 0. -1.
        -13    1    4    4    0    0 -0.45535040618E+02 -0.34457592132E+02 -0.19383257107E+02  0.60303202533E+02  0.00000000000E+00 0.  1.
         13    1    4    4    0    0 -0.59057734801E+02  0.34096325390E+02  0.49266750264E+02  0.84128402615E+02  0.00000000000E+00 0. -1.
         21    1    1    2  503  502  0.49549962460E+02  0.12316137978E+02  0.85256682596E+02  0.99375992884E+02  0.00000000000E+00 0.  1.
         -4    1    1    2    0  503 -0.13087168036E+02  0.53545225356E+02  0.39023072518E+02  0.67536399921E+02  0.00000000000E+00 0.  1.
<scales pt_clust_5="13000.00000" pt_clust_6="13000.00000" pt_clust_7="13000.00000" pt_clust_8="13000.00000" pt_clust_9="51.05767" pt_clust_10="57.50100"></scales>
<clustering>
<clus scale="   51.058">  1  9  2 -1</clus>
<clus scale="   57.501">  1 10  2 -1</clus>
<clus scale="   82.093">  5  6 -1 -1</clus>
<clus scale="   95.014">  7  8 -1 -1</clus>
<clus scale="  122.951">  2  5  1 -1</clus>
<clus scale="   51.058">  1  5  2 -1</clus>
</clustering>
</event>
<event>
10    4  0.7204077E-005  0.1270031E+03  0.7546771E-02  0.1237286E+00
          2   -1    0    0  503    0 -0.00000000000E+00  0.00000000000E+00  0.16977623451E+04  0.16977623451E+04  0.00000000000E+00 0. -1.
         21   -1    0    0  501  502  0.00000000000E+00 -0.00000000000E+00 -0.28895410455E+02  0.28895410455E+02  0.00000000000E+00 0.  1.
         23    2    1    2    0    0  0.62235427189E+02  0.10005738837E+02  0.40548451718E+03  0.42044123624E+03  0.91541117831E+02 0.  0.
         24    2    1    2    0    0  0.58788508417E+02 -0.80083921551E+02  0.31648170643E+03  0.34128009590E+03  0.80261510935E+02 0.  0.
        -11    1    4    4    0    0  0.51067640612E+02 -0.54921601405E+02  0.11002993082E+03  0.13315732009E+03  0.00000000000E+00 0.  1.
         12    1    4    4    0    0  0.77208678045E+01 -0.25162320146E+02  0.20645177561E+03  0.20812277580E+03  0.00000000000E+00 0. -1.
        -11    1    3    3    0    0  0.13899212635E+02 -0.38775213930E+02  0.18402205852E+03  0.18857577614E+03  0.00000000000E+00 0.  1.
         11    1    3    3    0    0  0.48336214553E+02  0.48780952767E+02  0.22146245866E+03  0.23186546010E+03  0.00000000000E+00 0. -1.
         21    1    1    2  503  502  0.76866472707E+01  0.35693123663E+02  0.81022409405E+02  0.88869086013E+02  0.00000000000E+00 0.  1.
          1    1    1    2  501    0 -0.12871058288E+03  0.34385059051E+02  0.86587830165E+03  0.87606733742E+03  0.00000000000E+00 0. -1.
<scales pt_clust_5="13000.00000" pt_clust_6="13000.00000" pt_clust_7="13000.00000" pt_clust_8="13000.00000" pt_clust_9="36.51142" pt_clust_10="98.42706"></scales>
<clustering>
<clus scale="   36.511">  2  9  1 -1</clus>
<clus scale="   80.262">  5  6 -1 -1</clus>
<clus scale="   91.541">  7  8 -1 -1</clus>
<clus scale="  113.900">  1  7  2 -1</clus>
<clus scale="   98.427">  2 10  1 -1</clus>
<clus scale="   36.511">  2  5  1 -1</clus>
</clustering>
</event>
<event>
10    4  0.7204077E-005  0.9396522E+02  0.7546771E-02  0.1300785E+00
          2   -1    0    0  502    0 -0.00000000000E+00  0.00000000000E+00  0.68607795006E+03  0.68607795006E+03  0.00000000000E+00 0. -1.
         21   -1    0    0  503  502  0.00000000000E+00 -0.00000000000E+00 -0.90041790382E+02  0.90041790382E+02  0.00000000000E+00 0.  1.
         23    2    1    2    0    0 -0.63422388319E+01  0.28910894051E+02  0.33145284033E+03  0.34526329119E+03  0.92030924669E+02 0.  0.
         24    2    1    2    0    0  0.61442936347E+02  0.10512353546E+03  0.35787156862E+02  0.14998186856E+03  0.79922763749E+02 0.  0.
        -13    1    4    4    0    0  0.74707936194E+02  0.10320381685E+03  0.19501422062E+02  0.12888991041E+03  0.00000000000E+00 0.  1.
         14    1    4    4    0    0 -0.13264999847E+02  0.19197186064E+01  0.16285734800E+02  0.21091958146E+02  0.00000000000E+00 0. -1.
        -11    1    3    3    0    0  0.33980164700E+02 -0.63766665859E+01  0.20547872331E+03  0.20836703002E+03  0.00000000000E+00 0.  1.
         11    1    3    3    0    0 -0.40322403532E+02  0.35287560637E+02  0.12597411702E+03  0.13689626117E+03  0.00000000000E+00 0. -1.
         21    1    1    2  503  501 -0.26615877036E+02 -0.62510303553E+02  0.44694141585E+02  0.81323485247E+02  0.00000000000E+00 0.  1.
          1    1    1    2  501    0 -0.28484820479E+02 -0.71524125959E+02  0.18410202091E+03  0.19955109545E+03  0.00000000000E+00 0. -1.
<scales pt_clust_5="13000.00000" pt_clust_6="13000.00000" pt_clust_7="13000.00000" pt_clust_8="13000.00000" pt_clust_9="67.94073" pt_clust_10="84.30253"></scales>
<clustering>
<clus scale="   67.941">  2  9  1 -1</clus>
<clus scale="   79.923">  5  6 -1 -1</clus>
<clus scale="   84.303">  2 10  1 -1</clus>
<clus scale="   82.143">  2  5  1 -1</clus>
<clus scale="   92.031">  7  8 -1 -1</clus>
<clus scale="   67.941">  2  5  1 -1</clus>
</clustering>
</event>
<event>
10    4  0.7204077E-005  0.3534097E+03  0.7546771E-02  0.1075962E+00
          4   -1    0    0  503    0 -0.00000000000E+00  0.00000000000E+00  0.84915844315E+03  0.84915844315E+03  0.00000000000E+00 0. -1.
         21   -1    0    0  501  502  0.00000000000E+00 -0.00000000000E+00 -0.35658617816E+03  0.35658617816E+03  0.00000000000E+00 0. -1.
         24    2    1    2    0    0 -0.12472555456E+03 -0.17810365643E+03  0.22424513732E+03  0.32247077682E+03  0.80150757297E+02 0.  0.
         23    2    1    2    0    0 -0.28766517920E+03  0.38299820325E+01  0.10086240596E+03  0.31790811367E+03  0.90146656711E+02 0.  0.
        -11    1    3    3    0    0 -0.55760822494E+01 -0.22959805194E+02  0.68391272238E+02  0.72357525290E+02  0.00000000000E+00 0.  1.
         12    1    3    3    0    0 -0.11914947231E+03 -0.15514385124E+03  0.15585386508E+03  0.25011325153E+03  0.00000000000E+00 0. -1.
        -13    1    4    4    0    0 -0.23039158284E+03 -0.25506694104E+02  0.53190488387E+02  0.23782367616E+03  0.00000000000E+00 0.  1.
         13    1    4    4    0    0 -0.57273596363E+02  0.29336676136E+02  0.47671917570E+02  0.80084437514E+02  0.00000000000E+00 0. -1.
         21    1    1    2  503  502  0.26255612149E+01 -0.32204904813E+02 -0.48465928558E+02  0.58249426578E+02  0.00000000000E+00 0.  1.
          3    1    1    2  501    0  0.40976517254E+03  0.20647857921E+03  0.21593065027E+03  0.50711630424E+03  0.00000000000E+00 0. -1.
<scales pt_clust_5="13000.00000" pt_clust_6="13000.00000" pt_clust_7="13000.00000" pt_clust_8="13000.00000" pt_clust_9="32.31175" pt_clust_10="341.71937"></scales>
<clustering>
<clus scale="   32.312">  2  9  1 -1</clus>
<clus scale="   80.151">  5  6 -1 -1</clus>
<clus scale="   90.147">  7  8 -1 -1</clus>
<clus scale="  235.544">  1  5  2 -1</clus>
<clus scale="  341.719">  2 10  1 -1</clus>
<clus scale="   32.312">  2  5  1 -1</clus>
</clustering>
</event>
<event>
10    4  0.7204077E-005  0.1170148E+03  0.7546771E-02  0.1257074E+00
         21   -1    0    0  503  502  0.00000000000E+00  0.00000000000E+00  0.46743844135E+03  0.46743844135E+03  0.00000000000E+00 0. -1.
          2   -1    0    0  502    0 -0.00000000000E+00 -0.00000000000E+00 -0.83963049263E+02  0.83963049263E+02  0.00000000000E+00 0. -1.
         23    2    1    2    0    0  0.24949017944E+02 -0.19442851709E+02  0.35827354397E+02  0.10299775508E+03  0.91238480094E+02 0.  0.
         24    2    1    2    0    0  0.51623294005E+02 -0.14037703920E+02  0.20457036876E+03  0.22647840911E+03  0.81125904634E+02 0.  0.
        -11    1    4    4    0    0  0.71805311358E+01 -0.43215034679E+02  0.99777944942E+02  0.10897126936E+03  0.00000000000E+00 0.  1.
         12    1    4    4    0    0  0.44442762869E+02  0.29177330759E+02  0.10479242382E+03  0.11750713975E+03  0.00000000000E+00 0. -1.
        -11    1    3    3    0    0  0.45798208047E+02 -0.41482438692E+02  0.88942001474E+01  0.62428962640E+02  0.00000000000E+00 0. -1.
         11    1    3    3    0    0 -0.20849190103E+02  0.22039586983E+02  0.26933154249E+02  0.40568792441E+02  0.00000000000E+00 0.  1.
         21    1    1    2  503  501  0.36466223467E+02  0.18489376084E+02  0.84181622682E+02  0.93585191560E+02  0.00000000000E+00 0. -1.
          1    1    1    2  501    0 -0.11303853542E+03  0.14991179545E+02  0.58896046247E+02  0.12834013486E+03  0.00000000000E+00 0. -1.
<scales pt_clust_5="13000.00000" pt_clust_6="13000.00000" pt_clust_7="13000.00000" pt_clust_8="13000.00000" pt_clust_9="40.88572" pt_clust_10="84.32705"></scales>
<clustering>
<clus scale="   40.886">  1  9  2 -1</clus>
<clus scale="   81.126">  5  6 -1 -1</clus>
<clus scale="   91.238">  7  8 -1 -1</clus>
<clus scale="   97.893">  2  7  1 -1</clus>
<clus scale="   84.327">  1 10  2 -1</clus>
<clus scale="   40.886">  1  5  2 -1</clus>
</clustering>
</event>
<event>
10    4  0.7204077E-005  0.2397632E+03  0.7546771E-02  0.1155968E+00
          2   -1    0    0  502    0 -0.00000000000E+00  0.00000000000E+00  0.17695756230E+04  0.17695756230E+04  0.00000000000E+00 0. -1.
         21   -1    0    0  503  502  0.00000000000E+00 -0.00000000000E+00 -0.79387115446E+02  0.79387115446E+02  0.00000000000E+00 0.  1.
         23    2    1    2    0    0 -0.39496316899E+02  0.17788061078E+02  0.23745479400E+02  0.10697566720E+03  0.94887150946E+02 0.  0.
         24    2    1    2    0    0 -0.21370792138E+03 -0.51077286269E+02  0.88095688453E+03  0.91147949539E+03  0.80186490753E+02 0.  0.
        -13    1    4    4    0    0 -0.20604457491E+03 -0.66083318426E+02  0.83313708566E+03  0.86077800583E+03  0.00000000000E+00 0.  1.
         14    1    4    4    0    0 -0.76633464691E+01  0.15006032158E+02  0.47819798869E+02  0.50701489565E+02  0.00000000000E+00 0. -1.
        -11    1    3    3    0    0 -0.11786481343E+02 -0.38597347572E+02  0.16989189087E+02  0.43787086314E+02  0.00000000000E+00 0. -1.
         11    1    3    3    0    0 -0.27709835556E+02  0.56385408650E+02  0.67562903130E+01  0.63188580882E+02  0.00000000000E+00 0.  1.
         21    1    1    2  503  501  0.23749824022E+02  0.20488038899E+01  0.21171313998E+02  0.31882225061E+02  0.00000000000E+00 0. -1.
          1    1    1    2  501    0  0.22945441425E+03  0.31240421301E+02  0.76431482967E+03  0.79862535084E+03  0.00000000000E+00 0. -1.
<scales pt_clust_5="13000.00000" pt_clust_6="13000.00000" pt_clust_7="13000.00000" pt_clust_8="13000.00000" pt_clust_9="23.83803" pt_clust_10="225.95698"></scales>
<clustering>
<clus scale="   23.838">  2  9  1 -1</clus>
<clus scale="   80.186">  5  6 -1 -1</clus>
<clus scale="   94.887">  7  8 -1 -1</clus>
<clus scale="  100.229">  1  7  2 -1</clus>
<clus scale="  225.957">  2 10  1 -1</clus>
<clus scale="   23.838">  2  5  1 -1</clus>
</clustering>
</event>
<event>
10    4  0.7204077E-005  0.1212812E+03  0.7546771E-02  0.1244028E+00
          2   -1    0    0  503    0 -0.00000000000E+00  0.00000000000E+00  0.67238570443E+03  0.67238570443E+03  0.00000000000E+00 0. -1.
         21   -1    0    0  501  502  0.00000000000E+00 -0.00000000000E+00 -0.47716560274E+02  0.47716560274E+02  0.00000000000E+00 0. -1.
         24    2    1    2    0    0 -0.37184060251E+02  0.58870699071E+02  0.28119671854E+03  0.30087180997E+03  0.81264001690E+02 0.  0.
         23    2    1    2    0    0  0.19896314550E+02 -0.96910377801E+02  0.29280910389E+03  0.32221872722E+03  0.91105719835E+02 0.  0.
        -13    1    3    3    0    0 -0.97399944222E+01  0.74423191625E+02  0.18548571415E+03  0.20009654944E+03  0.00000000000E+00 0.  1.
         14    1    3    3    0    0 -0.27444065829E+02 -0.15552492554E+02  0.95711004392E+02  0.10077526053E+03  0.00000000000E+00 0. -1.
        -11    1    4    4    0    0  0.48722178969E+02 -0.92937156976E+02  0.21770378464E+03  0.24167354783E+03  0.00000000000E+00 0.  1.
         11    1    4    4    0    0 -0.28825864419E+02 -0.39732208247E+01  0.75105319251E+02  0.80545179390E+02  0.00000000000E+00 0. -1.
         21    1    1    2  503  502 -0.27166625381E+02  0.23251046103E+02  0.19312144492E+02  0.40639827809E+02  0.00000000000E+00 0. -1.
          1    1    1    2  501    0  0.44454371083E+02  0.14788632627E+02  0.31351177232E+02  0.56371899712E+02  0.00000000000E+00 0. -1.
<scales pt_clust_5="13000.00000" pt_clust_6="13000.00000" pt_clust_7="13000.00000" pt_clust_8="13000.00000" pt_clust_9="35.75803" pt_clust_10="41.92064"></scales>
<clustering>
<clus scale="   35.758">  2  9  1 -1</clus>
<clus scale="   41.921">  2 10  1 -1</clus>
<clus scale="   81.264">  5  6 -1 -1</clus>
<clus scale="   91.106">  7  8 -1 -1</clus>
<clus scale="  114.073">  1  5  2 -1</clus>
<clus scale="   35.758">  2  5  1 -1</clus>
</clustering>
</event>
<event>
10    4  0.7204077E-005  0.9754299E+02  0.7546771E-02  0.1292350E+00
          2   -1    0    0  502    0 -0.00000000000E+00  0.00000000000E+00  0.14548727924E+03  0.14548727924E+03  0.00000000000E+00 0. -1.
         21   -1    0    0  503  502  0.00000000000E+00 -0.00000000000E+00 -0.13522682440E+03  0.13522682440E+03  0.00000000000E+00 0.  1.
         24    2    1    2    0    0 -0.12755884693E+02  0.30871639668E+02  0.59691094803E+02  0.10438360564E+03  0.78848840183E+02 0.  0.
         23    2    1    2    0    0 -0.13263547093E+02 -0.40783285734E+02 -0.23752922962E+02  0.10374723574E+03  0.91433525024E+02 0.  0.
        -11    1    3    3    0    0 -0.21846530668E+02 -0.22112087641E+02  0.15193259182E+02  0.34598416823E+02  0.00000000000E+00 0.  1.
         12    1    3    3    0    0  0.90906459753E+01  0.52983727308E+02  0.44497835621E+02  0.69785188820E+02  0.00000000000E+00 0. -1.
        -11    1    4    4    0    0 -0.38854018303E+02 -0.36139476437E+02 -0.45457652084E+02  0.69871987437E+02  0.00000000000E+00 0.  1.
         11    1    4    4    0    0  0.25590471210E+02 -0.46438092970E+01  0.21704729121E+02  0.33875248306E+02  0.00000000000E+00 0. -1.
         21    1    1    2  503  501  0.85453213672E+01 -0.22749715973E+02 -0.25933512709E+02  0.35540387949E+02  0.00000000000E+00 0.  1.
          1    1    1    2  501    0  0.17474110418E+02  0.32661362040E+02  0.25579571205E+00  0.37042874303E+02  0.00000000000E+00 0. -1.
<scales pt_clust_5="13000.00000" pt_clust_6="13000.00000" pt_clust_7="13000.00000" pt_clust_8="13000.00000" pt_clust_9="24.30169" pt_clust_10="34.37127"></scales>
<clustering>
<clus scale="   24.302">  2  9  1 -1</clus>
<clus scale="   34.371">  2 10  1 -1</clus>
<clus scale="   78.849">  5  6 -1 -1</clus>
<clus scale="   85.859">  1  5  2 -1</clus>
<clus scale="   91.434">  7  8 -1 -1</clus>
<clus scale="   24.302">  2  5  1 -1</clus>
</clustering>
</event>
<event>
10    4  0.7204077E-005  0.2369084E+03  0.7546771E-02  0.1146761E+00
          2   -1    0    0  503    0 -0.00000000000E+00  0.00000000000E+00  0.16203559532E+04  0.16203559532E+04  0.00000000000E+00 0. -1.
         21   -1    0    0  501  502  0.00000000000E+00 -0.00000000000E+00 -0.13592841431E+03  0.13592841431E+03  0.00000000000E+00 0.  1.
         24    2    1    2    0    0 -0.27285952855E+02  0.10875869762E+03  0.40721966188E+03  0.42950677402E+03  0.77943815496E+02 0.  0.
         23    2    1    2    0    0  0.12280851868E+03  0.12987405279E+03  0.94094065035E+03  0.96333432118E+03  0.10341424001E+03 0.  0.
        -11    1    3    3    0    0 -0.38353700516E+02  0.10890281535E+03  0.39990645993E+03  0.41624032269E+03  0.00000000000E+00 0.  1.
         12    1    3    3    0    0  0.11067747660E+02 -0.14411772731E+00  0.73132019461E+01  0.13266451330E+02  0.00000000000E+00 0. -1.
        -11    1    4    4    0    0  0.93665025827E+02  0.24293021546E+02  0.46309275375E+03  0.47309426812E+03  0.00000000000E+00 0.  1.
         11    1    4    4    0    0  0.29143492850E+02  0.10558103124E+03  0.47784789661E+03  0.49024005306E+03  0.00000000000E+00 0. -1.
         21    1    1    2  503  502 -0.45912400853E+02 -0.12456025151E+03 -0.47961646239E+02  0.14115071490E+03  0.00000000000E+00 0.  1.
          1    1    1    2  501    0 -0.49610164969E+02 -0.11407249890E+03  0.18422887293E+03  0.22229255745E+03  0.00000000000E+00 0. -1.
<scales pt_clust_5="13000.00000" pt_clust_6="13000.00000" pt_clust_7="13000.00000" pt_clust_8="13000.00000" pt_clust_9="213.14565" pt_clust_10="124.39334"></scales>
<clustering>
<clus scale="   77.944">  5  6 -1 -1</clus>
<clus scale="  103.414">  7  8 -1 -1</clus>
<clus scale="  124.393">  2 10  1 -1</clus>
<clus scale="  129.157">  1  5  2 -1</clus>
<clus scale="  213.146">  2  9  1 -1</clus>
<clus scale="  124.393">  2  5  1 -1</clus>
</clustering>
</event>
<event>
10    4  0.7204077E-005  0.1286723E+03  0.7546771E-02  0.1234569E+00
         21   -1    0    0  501  502  0.00000000000E+00  0.00000000000E+00  0.11380408890E+03  0.11380408890E+03  0.00000000000E+00 0. -1.
          2   -1    0    0  503    0 -0.00000000000E+00 -0.00000000000E+00 -0.51981474689E+03  0.51981474689E+03  0.00000000000E+00 0. -1.
         24    2    1    2    0    0  0.92293063575E+02 -0.12311837203E+02 -0.15519353609E+03  0.19746925087E+03  0.78990382151E+02 0.  0.
         23    2    1    2    0    0 -0.62043770780E+02 -0.83497972147E+02 -0.65668347956E+02  0.15660352412E+03  0.96907125629E+02 0.  0.
        -13    1    3    3    0    0  0.88639675746E+02 -0.11371985752E+02 -0.73555832371E+02  0.11574443681E+03  0.00000000000E+00 0.  1.
         14    1    3    3    0    0  0.36533878291E+01 -0.93985145189E+00 -0.81637703724E+02  0.81724814057E+02  0.00000000000E+00 0. -1.
        -11    1    4    4    0    0 -0.35574369101E+02  0.97901060229E+01 -0.43667504816E+02  0.57168460621E+02  0.00000000000E+00 0.  1.
         11    1    4    4    0    0 -0.26469401679E+02 -0.93288078170E+02 -0.22000843139E+02  0.99435063497E+02  0.00000000000E+00 0. -1.
         21    1    1    2  503  502 -0.82870371683E+02  0.39624431984E+02 -0.15373338538E+02  0.93133955412E+02  0.00000000000E+00 0. -1.
          1    1    1    2  501    0  0.52621078888E+02  0.56185377366E+02 -0.16977543540E+03  0.18641210540E+03  0.00000000000E+00 0. -1.
<scales pt_clust_5="13000.00000" pt_clust_6="13000.00000" pt_clust_7="13000.00000" pt_clust_8="13000.00000" pt_clust_9="87.57404" pt_clust_10="76.97909"></scales>
<clustering>
<clus scale="   76.979">  1 10  2 -1</clus>
<clus scale="   78.990">  5  6 -1 -1</clus>
<clus scale="   87.574">  1  9  2 -1</clus>
<clus scale="   96.907">  7  8 -1 -1</clus>
<clus scale="  115.780">  2  5  1 -1</clus>
<clus scale="   76.979">  1  5  2 -1</clus>
</clustering>
</event>
<event>
10    4  0.7204077E-005  0.1154939E+03  0.7546771E-02  0.1250934E+00
          2   -1    0    0  503    0 -0.00000000000E+00  0.00000000000E+00  0.51791097996E+03  0.51791097996E+03  0.00000000000E+00 0. -1.
         21   -1    0    0  501  502  0.00000000000E+00 -0.00000000000E+00 -0.70199099150E+02  0.70199099150E+02  0.00000000000E+00 0. -1.
         24    2    1    2    0    0 -0.39644186738E+02 -0.31742264917E+02  0.14849360584E+03  0.18043896472E+03  0.89042889042E+02 0.  0.
         23    2    1    2    0    0  0.34860418548E+02  0.97067037111E+02  0.24119284765E+03  0.27722306629E+03  0.89673743382E+02 0.  0.
        -11    1    3    3    0    0 -0.52454653499E+02 -0.29364243096E+02  0.42435268967E+02  0.73583296329E+02  0.00000000000E+00 0.  1.
         12    1    3    3    0    0  0.12810466761E+02 -0.23780218204E+01  0.10605833688E+03  0.10685566839E+03  0.00000000000E+00 0. -1.
        -13    1    4    4    0    0 -0.17395490935E+02  0.57203953048E+02  0.60991466520E+02  0.85409919433E+02  0.00000000000E+00 0. -1.
         13    1    4    4    0    0  0.52255909483E+02  0.39863084062E+02  0.18020138113E+03  0.19181314686E+03  0.00000000000E+00 0.  1.
         21    1    1    2  503  502 -0.28544011782E+02 -0.16879072741E+02 -0.15246809669E+02  0.36498341199E+02  0.00000000000E+00 0.  1.
          1    1    1    2  501    0  0.33327779972E+02 -0.48445699453E+02  0.73272236986E+02  0.93949706898E+02  0.00000000000E+00 0. -1.
<scales pt_clust_5="13000.00000" pt_clust_6="13000.00000" pt_clust_7="13000.00000" pt_clust_8="13000.00000" pt_clust_9="33.16118" pt_clust_10="58.78122"></scales>
<clustering>
<clus scale="   33.161">  2  9  1 -1</clus>
<clus scale="   58.781">  2 10  1 -1</clus>
<clus scale="   89.043">  5  6 -1 -1</clus>
<clus scale="   89.674">  7  8 -1 -1</clus>
<clus scale="  115.005">  1  5  2 -1</clus>
<clus scale="   33.161">  2  5  1 -1</clus>
</clustering>
</event>
<event>
10    4  0.7204077E-005  0.2924394E+03  0.7546771E-02  0.1089564E+00
          2   -1    0    0  502    0 -0.00000000000E+00  0.00000000000E+00  0.19931216303E+04  0.19931216303E+04  0.00000000000E+00 0. -1.
         21   -1    0    0  503  502  0.00000000000E+00 -0.00000000000E+00 -0.23610161026E+03  0.23610161026E+03  0.00000000000E+00 0. -1.
         23    2    1    2    0    0  0.69612501360E+01  0.31948313728E+03  0.16941680941E+04  0.17264678631E+04  0.91475774803E+02 0.  0.
         24    2    1    2    0    0 -0.11642023976E+02 -0.17829507292E+03  0.21034326005E+03  0.28702695217E+03  0.78838534195E+02 0.  0.
        -11    1    4    4    0    0  0.60155182211E+01 -0.17327829010E+03  0.20371734818E+03  0.26751132729E+03  0.00000000000E+00 0.  1.
         12    1    4    4    0    0 -0.17657542198E+02 -0.50167828231E+01  0.66259118662E+01  0.19515624879E+02  0.00000000000E+00 0. -1.
        -13    1    3    3    0    0  0.48734095731E+02  0.18503731842E+03  0.94204725019E+03  0.96128395539E+03  0.00000000000E+00 0.  1.
         13    1    3    3    0    0 -0.41772845595E+02  0.13444581885E+03  0.75212084387E+03  0.76518390771E+03  0.00000000000E+00 0. -1.
         21    1    1    2  503  501 -0.13447307912E+02 -0.37460141258E+02 -0.83522450883E+02  0.92520765640E+02  0.00000000000E+00 0. -1.
          1    1    1    2  501    0  0.18128081752E+02 -0.10372792310E+03 -0.63968883189E+02  0.12320765964E+03  0.00000000000E+00 0. -1.
<scales pt_clust_5="13000.00000" pt_clust_6="13000.00000" pt_clust_7="13000.00000" pt_clust_8="13000.00000" pt_clust_9="39.80066" pt_clust_10="127.76654"></scales>
<clustering>
<clus scale="   39.801">  2  9  1 -1</clus>
<clus scale="   78.839">  5  6 -1 -1</clus>
<clus scale="   91.476">  7  8 -1 -1</clus>
<clus scale="  127.767">  2 10  1 -1</clus>
<clus scale="  288.736">  2  5  1 -1</clus>
<clus scale="   39.801">  2  5  1 -1</clus>
</clustering>
</event>
<event>
10    4  0.7204077E-005  0.9278073E+02  0.7546771E-02  0.1301744E+00
          2   -1    0    0  502    0 -0.00000000000E+00  0.00000000000E+00  0.46824141998E+03  0.46824141998E+03  0.00000000000E+00 0. -1.
         21   -1    0    0  503  502  0.00000000000E+00 -0.00000000000E+00 -0.10584588381E+03  0.10584588381E+03  0.00000000000E+00 0. -1.
         23    2    1    2    0    0  0.81379451556E+00 -0.23923093478E+02  0.33782295122E+03  0.35065032548E+03  0.90875341655E+02 0.  0.
         24    2    1    2    0    0 -0.25273816497E+02 -0.26018367305E+01  0.72882416210E+02  0.11240971508E+03  0.81722469961E+02 0.  0.
        -13    1    4    4    0    0  0.86420168560E+01  0.31362863526E+02  0.48952762386E+02  0.58776582149E+02  0.00000000000E+00 0.  1.
         14    1    4    4    0    0 -0.33915833353E+02 -0.33964700257E+02  0.23929653824E+02  0.53633132928E+02  0.00000000000E+00 0. -1.
        -11    1    3    3    0    0 -0.29115271581E+01  0.34518133750E+02  0.10455056553E+03  0.11013990785E+03  0.00000000000E+00 0.  1.
         11    1    3    3    0    0  0.37253216737E+01 -0.58441227227E+02  0.23327238569E+03  0.24051041763E+03  0.00000000000E+00 0. -1.
         21    1    1    2  503  501  0.20124707130E+02 -0.21884667783E+02 -0.54449360691E+02  0.62037693387E+02  0.00000000000E+00 0. -1.
          1    1    1    2  501    0  0.43353148512E+01  0.48409597991E+02  0.61395294355E+01  0.48989569851E+02  0.00000000000E+00 0. -1.
<scales pt_clust_5="13000.00000" pt_clust_6="13000.00000" pt_clust_7="13000.00000" pt_clust_8="13000.00000" pt_clust_9="29.73117" pt_clust_10="40.81941"></scales>
<clustering>
<clus scale="   29.731">  2  9  1 -1</clus>
<clus scale="   40.819">  2 10  1 -1</clus>
<clus scale="   81.722">  5  6 -1 -1</clus>
<clus scale="   83.836">  2  5  1 -1</clus>
<clus scale="   90.875">  7  8 -1 -1</clus>
<clus scale="   29.731">  2  5  1 -1</clus>
</clustering>
</event>
<event>
10    4  0.7204077E-005  0.1073551E+03  0.7546771E-02  0.1268109E+00
         21   -1    0    0  501  502  0.00000000000E+00  0.00000000000E+00  0.32637701344E+02  0.32637701344E+02  0.00000000000E+00 0.  1.
          4   -1    0    0  503    0 -0.00000000000E+00 -0.00000000000E+00 -0.10302557484E+04  0.10302557484E+04  0.00000000000E+00 0. -1.
         24    2    1    2    0    0 -0.20847877613E+02 -0.58397701458E+02 -0.71721876379E+03  0.72487401436E+03  0.84821318224E+02 0.  0.
         23    2    1    2    0    0  0.12270934848E+02  0.39825910176E+02 -0.20748986067E+03  0.23038193557E+03  0.91033592659E+02 0.  0.
        -13    1    3    3    0    0 -0.34394614154E+01 -0.33441739861E+02 -0.78060570256E+02  0.84991955434E+02  0.00000000000E+00 0.  1.
         14    1    3    3    0    0 -0.17408416197E+02 -0.24955961597E+02 -0.63915819354E+03  0.63988205893E+03  0.00000000000E+00 0. -1.
        -13    1    4    4    0    0  0.51452220695E+02  0.17512849159E+02 -0.12660842282E+03  0.13778143427E+03  0.00000000000E+00 0. -1.
         13    1    4    4    0    0 -0.39181285846E+02  0.22313061017E+02 -0.80881437848E+02  0.92600501299E+02  0.00000000000E+00 0.  1.
         21    1    1    2  503  502  0.35331097526E+02  0.24254532064E+02 -0.18374566679E+02  0.46628247647E+02  0.00000000000E+00 0.  1.
          3    1    1    2  501    0 -0.26754154761E+02 -0.56827407811E+01 -0.54534855881E+02  0.61009252133E+02  0.00000000000E+00 0. -1.
<scales pt_clust_5="13000.00000" pt_clust_6="13000.00000" pt_clust_7="13000.00000" pt_clust_8="13000.00000" pt_clust_9="31.11985" pt_clust_10="27.35102"></scales>
<clustering>
<clus scale="   27.351">  1 10  2 -1</clus>
<clus scale="   31.120">  1  9  2 -1</clus>
<clus scale="   84.821">  5  6 -1 -1</clus>
<clus scale="   91.034">  7  8 -1 -1</clus>
<clus scale="  102.140">  2  5  1 -1</clus>
<clus scale="   27.351">  1  5  2 -1</clus>
</clustering>
</event>
<event>
10    4  0.7204077E-005  0.3592933E+03  0.7546771E-02  0.1085580E+00
          2   -1    0    0  503    0 -0.00000000000E+00  0.00000000000E+00  0.10930860569E+04  0.10930860569E+04  0.00000000000E+00 0. -1.
         21   -1    0    0  501  502  0.00000000000E+00 -0.00000000000E+00 -0.28329233931E+03  0.28329233931E+03  0.00000000000E+00 0. -1.
         23    2    1    2    0    0  0.14844667561E+03 -0.12868590102E+02  0.47804659748E+03  0.50896413530E+03  0.91180730167E+02 0.  0.
         24    2    1    2    0    0  0.15315836574E+03  0.29310775128E+03  0.64326583573E+02  0.34675191916E+03  0.82032586401E+02 0.  0.
        -11    1    4    4    0    0  0.47527902002E+02  0.44121427838E+02  0.37614808257E+02  0.74969831689E+02  0.00000000000E+00 0.  1.
         12    1    4    4    0    0  0.10563046374E+03  0.24898632344E+03  0.26711775316E+02  0.27178208747E+03  0.00000000000E+00 0. -1.
        -11    1    3    3    0    0  0.91901337910E+02 -0.25883116121E+02  0.16540076601E+03  0.19097959317E+03  0.00000000000E+00 0. -1.
         11    1    3    3    0    0  0.56545337703E+02  0.13014526019E+02  0.31264583147E+03  0.31798454214E+03  0.00000000000E+00 0.  1.
         21    1    1    2  503  502 -0.31235721235E+02  0.12058536478E+02 -0.10503399611E+02  0.35091309272E+02  0.00000000000E+00 0. -1.
          1    1    1    2  501    0 -0.27036932012E+03 -0.29229769765E+03  0.27792393619E+03  0.48557103252E+03  0.00000000000E+00 0. -1.
<scales pt_clust_5="13000.00000" pt_clust_6="13000.00000" pt_clust_7="13000.00000" pt_clust_8="13000.00000" pt_clust_9="33.48251" pt_clust_10="349.80346"></scales>
<clustering>
<clus scale="   33.483">  2  9  1 -1</clus>
<clus scale="   82.033">  5  6 -1 -1</clus>
<clus scale="   91.181">  7  8 -1 -1</clus>
<clus scale="  173.064">  1  7  2 -1</clus>
<clus scale="  349.803">  2 10  1 -1</clus>
<clus scale="   33.483">  2  5  1 -1</clus>
</clustering>
</event>
<event>
10    4  0.7204077E-005  0.1339362E+03  0.7546771E-02  0.1241805E+00
         21   -1    0    0  501  502  0.00000000000E+00  0.00000000000E+00  0.12873255338E+03  0.12873255338E+03  0.00000000000E+00 0. -1.
          2   -1    0    0  503    0 -0.00000000000E+00 -0.00000000000E+00 -0.30823731643E+03  0.30823731643E+03  0.00000000000E+00 0. -1.
         24    2    1    2    0    0  0.25220487256E+02 -0.12427723422E+02 -0.60642157205E+01  0.85603122507E+02  0.80626289657E+02 0.  0.
         23    2    1    2    0    0  0.23489235522E+02 -0.63433197286E+02 -0.11972443522E+03  0.16463745093E+03  0.90531956547E+02 0.  0.
        -11    1    3    3    0    0  0.53392789307E+02  0.25190614762E+01 -0.51282435414E+01  0.53697621014E+02  0.00000000000E+00 0.  1.
         12    1    3    3    0    0 -0.28172302051E+02 -0.14946784898E+02 -0.93597217910E+00  0.31905501494E+02  0.00000000000E+00 0. -1.
        -11    1    4    4    0    0 -0.24099655071E+02  0.54907750729E+01 -0.49533711748E+02  0.55358202509E+02  0.00000000000E+00 0.  1.
         11    1    4    4    0    0  0.47588890594E+02 -0.68923972359E+02 -0.70190723467E+02  0.10927924842E+03  0.00000000000E+00 0. -1.
         21    1    1    2  503  502 -0.78862458451E+01 -0.42405075510E+02  0.12855377023E+02  0.45007155219E+02  0.00000000000E+00 0. -1.
          1    1    1    2  501    0 -0.40823476933E+02  0.11826599622E+03 -0.66571489138E+02  0.14172214116E+03  0.00000000000E+00 0. -1.
<scales pt_clust_5="13000.00000" pt_clust_6="13000.00000" pt_clust_7="13000.00000" pt_clust_8="13000.00000" pt_clust_9="43.13216" pt_clust_10="98.70604"></scales>
<clustering>
<clus scale="   43.132">  1  9  2 -1</clus>
<clus scale="   80.626">  5  6 -1 -1</clus>
<clus scale="   88.589">  2  5  1 -1</clus>
<clus scale="   90.532">  7  8 -1 -1</clus>
<clus scale="   98.706">  1 10  2 -1</clus>
<clus scale="   43.132">  1  5  2 -1</clus>
</clustering>
</event>
<event>
10    4  0.7204077E-005  0.1918567E+03  0.7546771E-02  0.1165475E+00
         21   -1    0    0  501  502  0.00000000000E+00  0.00000000000E+00  0.13444746819E+03  0.13444746819E+03  0.00000000000E+00 0. -1.
          2   -1    0    0  503    0 -0.00000000000E+00 -0.00000000000E+00 -0.93351164009E+03  0.93351164009E+03  0.00000000000E+00 0. -1.
         24    2    1    2    0    0  0.13925538628E+03  0.26592489871E+02 -0.37715778895E+03  0.41083301943E+03  0.80228105788E+02 0.  0.
         23    2    1    2    0    0  0.17865719237E+02  0.15165073692E+03 -0.29103043307E+03  0.34128244916E+03  0.91966663529E+02 0.  0.
        -13    1    3    3    0    0  0.38080559424E+02 -0.27512464006E+02 -0.13321066111E+03  0.14125206163E+03  0.00000000000E+00 0.  1.
         14    1    3    3    0    0  0.10117482686E+03  0.54104953876E+02 -0.24394712784E+03  0.26958095780E+03  0.00000000000E+00 0. -1.
        -11    1    4    4    0    0 -0.24541349103E+02  0.67262909092E+01 -0.26854250122E+02  0.36995561285E+02  0.00000000000E+00 0.  1.
         11    1    4    4    0    0  0.42407068340E+02  0.14492444601E+03 -0.26417618295E+03  0.30428688788E+03  0.00000000000E+00 0. -1.
         21    1    1    2  503  502 -0.29109699341E+02 -0.39070525186E+02  0.38412424995E+02  0.62043492230E+02  0.00000000000E+00 0. -1.
          1    1    1    2  501    0 -0.12801140618E+03 -0.13917270160E+03 -0.16928837487E+03  0.25380014746E+03  0.00000000000E+00 0. -1.
<scales pt_clust_5="13000.00000" pt_clust_6="13000.00000" pt_clust_7="13000.00000" pt_clust_8="13000.00000" pt_clust_9="48.72248" pt_clust_10="168.37796"></scales>
<clustering>
<clus scale="   48.722">  1  9  2 -1</clus>
<clus scale="   80.228">  5  6 -1 -1</clus>
<clus scale="   91.967">  7  8 -1 -1</clus>
<clus scale="  156.826">  2  5  1 -1</clus>
<clus scale="  168.378">  1 10  2 -1</clus>
<clus scale="   48.722">  1  5  2 -1</clus>
</clustering>
</event>
<event>
10    4  0.7204077E-005  0.1639444E+03  0.7546771E-02  0.1193795E+00
          2   -1    0    0  502    0 -0.00000000000E+00  0.00000000000E+00  0.16318176772E+03  0.16318176772E+03  0.00000000000E+00 0. -1.
         21   -1    0    0  503  502  0.00000000000E+00 -0.00000000000E+00 -0.56859300628E+03  0.56859300628E+03  0.00000000000E+00 0. -1.
         23    2    1    2    0    0 -0.31383475126E+02  0.84991315523E+02 -0.12728109801E+03  0.18128919844E+03  0.91961129465E+02 0.  0.
         24    2    1    2    0    0 -0.10307877618E+03 -0.14917824605E+03  0.21059266757E+02  0.19966604943E+03  0.80892863638E+02 0.  0.
        -13    1    4    4    0    0 -0.14351466836E+02 -0.85940853767E+02  0.24973826404E+02  0.90639323429E+02  0.00000000000E+00 0.  1.
         14    1    4    4    0    0 -0.88727309345E+02 -0.63237392282E+02 -0.39145596469E+01  0.10902672601E+03  0.00000000000E+00 0. -1.
        -11    1    3    3    0    0 -0.26075884511E+02  0.11378494926E+02  0.58720283307E+01  0.29050002005E+02  0.00000000000E+00 0.  1.
         11    1    3    3    0    0 -0.53075906148E+01  0.73612820597E+02 -0.13315312634E+03  0.15223919643E+03  0.00000000000E+00 0. -1.
         21    1    1    2  503  501  0.10147339788E+02  0.18733541709E+02 -0.14946394211E+03  0.15097477962E+03  0.00000000000E+00 0. -1.
          1    1    1    2  501    0  0.12431491152E+03  0.45453388817E+02 -0.14972546519E+03  0.19984474651E+03  0.00000000000E+00 0. -1.
<scales pt_clust_5="13000.00000" pt_clust_6="13000.00000" pt_clust_7="13000.00000" pt_clust_8="13000.00000" pt_clust_9="21.30526" pt_clust_10="142.59778"></scales>
<clustering>
<clus scale="   21.305">  2  9  1 -1</clus>
<clus scale="   80.893">  5  6 -1 -1</clus>
<clus scale="   91.961">  7  8 -1 -1</clus>
<clus scale="  132.915">  1  7  2 -1</clus>
<clus scale="  142.598">  2 10  1 -1</clus>
<clus scale="   21.305">  2  5  1 -1</clus>
</clustering>
</event>
<event>
10    4  0.7204077E-005  0.1615741E+03  0.7546771E-02  0.1196380E+00
         21   -1    0    0  503  502  0.00000000000E+00  0.00000000000E+00  0.40700500671E+03  0.40700500671E+03  0.00000000000E+00 0.  1.
         -1   -1    0    0    0  501 -0.00000000000E+00 -0.00000000000E+00 -0.24921775520E+03  0.24921775520E+03  0.00000000000E+00 0.  1.
         23    2    1    2    0    0 -0.80991438895E+02  0.54847212798E+02 -0.10564717514E+03  0.17113832594E+03  0.92515788185E+02 0.  0.
         24    2    1    2    0    0 -0.81880360833E+02 -0.70943469695E+02 -0.77524842142E-01  0.13421362980E+03  0.79220723497E+02 0.  0.
        -11    1    4    4    0    0 -0.37359683241E+01 -0.54060224542E+02  0.21996018405E+01  0.54233786380E+02  0.00000000000E+00 0.  1.
         12    1    4    4    0    0 -0.78144392509E+02 -0.16883245153E+02 -0.22771266826E+01  0.79979843420E+02  0.00000000000E+00 0. -1.
        -11    1    3    3    0    0 -0.59092455867E+02  0.16970701590E+02 -0.11117145333E+03  0.12703942336E+03  0.00000000000E+00 0. -1.
         11    1    3    3    0    0 -0.21898983028E+02  0.37876511208E+02  0.55242781875E+01  0.44098902576E+02  0.00000000000E+00 0.  1.
         21    1    1    2  503  501  0.17916213991E+02 -0.62547838753E+02  0.56278624493E+02  0.86026196192E+02  0.00000000000E+00 0.  1.
         -2    1    1    2    0  502  0.14495558574E+03  0.78644095650E+02  0.20723332701E+03  0.26484460999E+03  0.00000000000E+00 0.  1.
<scales pt_clust_5="13000.00000" pt_clust_6="13000.00000" pt_clust_7="13000.00000" pt_clust_8="13000.00000" pt_clust_9="65.06322" pt_clust_10="140.82001"></scales>
<clustering>
<clus scale="   65.063">  1  9  2 -1</clus>
<clus scale="   79.221">  5  6 -1 -1</clus>
<clus scale="   92.516">  7  8 -1 -1</clus>
<clus scale="  131.207">  2  7  1 -1</clus>
<clus scale="  140.820">  1 10  2 -1</clus>
<clus scale="   65.063">  1  5  2 -1</clus>
</clustering>
</event>
<event>
10    4  0.7204077E-005  0.1000768E+03  0.7546771E-02  0.1287125E+00
          2   -1    0    0  502    0 -0.00000000000E+00  0.00000000000E+00  0.32686045282E+03  0.32686045282E+03  0.00000000000E+00 0. -1.
         21   -1    0    0  503  502  0.00000000000E+00 -0.00000000000E+00 -0.14470097757E+03  0.14470097757E+03  0.00000000000E+00 0. -1.
         24    2    1    2    0    0  0.22747080876E+02 -0.36912602900E+02  0.19801257353E+03  0.21756753944E+03  0.79035972835E+02 0.  0.
         23    2    1    2    0    0  0.92627060469E+01  0.31632224483E+02  0.73168486886E+02  0.12253359873E+03  0.92598380097E+02 0.  0.
        -11    1    3    3    0    0  0.26709174842E+02  0.19805569989E+02  0.69950530530E+02  0.77451386978E+02  0.00000000000E+00 0.  1.
         12    1    3    3    0    0 -0.39620939657E+01 -0.56718172889E+02  0.12806204300E+03  0.14011615246E+03  0.00000000000E+00 0. -1.
        -11    1    4    4    0    0  0.10661725688E+02  0.63770490232E+02  0.38548471127E+02  0.75275045303E+02  0.00000000000E+00 0. -1.
         11    1    4    4    0    0 -0.13990196414E+01 -0.32138265749E+02  0.34620015758E+02  0.47258553431E+02  0.00000000000E+00 0.  1.
         21    1    1    2  503  501 -0.13394598955E+02 -0.24046807627E+02 -0.92539355532E+02  0.96546344108E+02  0.00000000000E+00 0. -1.
          1    1    1    2  501    0 -0.18615187968E+02  0.29327186045E+02  0.35177703709E+01  0.34913948112E+02  0.00000000000E+00 0. -1.
<scales pt_clust_5="13000.00000" pt_clust_6="13000.00000" pt_clust_7="13000.00000" pt_clust_8="13000.00000" pt_clust_9="27.52570" pt_clust_10="31.55102"></scales>
<clustering>
<clus scale="   27.526">  2  9  1 -1</clus>
<clus scale="   31.551">  2 10  1 -1</clus>
<clus scale="   79.036">  5  6 -1 -1</clus>
<clus scale="   87.679">  1  5  2 -1</clus>
<clus scale="   92.598">  7  8 -1 -1</clus>
<clus scale="   27.526">  2  5  1 -1</clus>
</clustering>
</event>
<event>
10    4  0.7204077E-005  0.1088273E+03  0.7546771E-02  0.1274934E+00
         21   -1    0    0  503  502  0.00000000000E+00  0.00000000000E+00  0.33414211788E+03  0.33414211788E+03  0.00000000000E+00 0.  1.
         -1   -1    0    0    0  501 -0.00000000000E+00 -0.00000000000E+00 -0.22806473343E+03  0.22806473343E+03  0.00000000000E+00 0.  1.
         24    2    1    2    0    0  0.51111239131E+00 -0.26562809540E+02 -0.15820655598E+03  0.17953409561E+03  0.80606036029E+02 0.  0.
         23    2    1    2    0    0 -0.34950046870E+02  0.56121237938E+02  0.53205514895E+02  0.13473844199E+03  0.10465429667E+03 0.  0.
        -13    1    3    3    0    0 -0.30670602184E+02  0.11994039160E+02 -0.84586567085E+02  0.90771306837E+02  0.00000000000E+00 0.  1.
         14    1    3    3    0    0  0.31181714575E+02 -0.38556848700E+02 -0.73619988894E+02  0.88762788771E+02  0.00000000000E+00 0. -1.
        -11    1    4    4    0    0  0.32607146266E+02 -0.45112231060E+01  0.16510553738E+02  0.36826288249E+02  0.00000000000E+00 0. -1.
         11    1    4    4    0    0 -0.67557193136E+02  0.60632461044E+02  0.36694961157E+02  0.97912153745E+02  0.00000000000E+00 0.  1.
         21    1    1    2  503  501 -0.28526692281E+01  0.32161858650E+02  0.92149876570E+01  0.33577356523E+02  0.00000000000E+00 0. -1.
         -2    1    1    2    0  502  0.37291603707E+02 -0.61720287048E+02  0.20186343787E+03  0.21435695718E+03  0.00000000000E+00 0.  1.
<scales pt_clust_5="13000.00000" pt_clust_6="13000.00000" pt_clust_7="13000.00000" pt_clust_8="13000.00000" pt_clust_9="32.28812" pt_clust_10="53.64979"></scales>
<clustering>
<clus scale="   32.288">  1  9  2 -1</clus>
<clus scale="   53.650">  1 10  2 -1</clus>
<clus scale="   80.606">  5  6 -1 -1</clus>
<clus scale="   85.955">  2  5  1 -1</clus>
<clus scale="  104.654">  7  8 -1 -1</clus>
<clus scale="   32.288">  1  5  2 -1</clus>
</clustering>
</event>
<event>
10    4  0.7204077E-005  0.6035615E+03  0.7546771E-02  0.1030597E+00
          2   -1    0    0  503    0 -0.00000000000E+00  0.00000000000E+00  0.11596814645E+04  0.11596814645E+04  0.00000000000E+00 0. -1.
         21   -1    0    0  501  502  0.00000000000E+00 -0.00000000000E+00 -0.54376070521E+03  0.54376070521E+03  0.00000000000E+00 0. -1.
         24    2    1    2    0    0 -0.14620381353E+03  0.64614732326E+01  0.14370661576E+03  0.22005489522E+03  0.79719883136E+02 0.  0.
         23    2    1    2    0    0 -0.60505537983E+02 -0.64099601072E+03  0.23108516349E+03  0.69005366715E+03  0.90757395688E+02 0.  0.
        -11    1    3    3    0    0 -0.79945280802E+02 -0.19878592452E+02  0.11871876000E+03  0.14450103922E+03  0.00000000000E+00 0.  1.
         12    1    3    3    0    0 -0.66258532733E+02  0.26340065685E+02  0.24987855760E+02  0.75553855995E+02  0.00000000000E+00 0. -1.
        -11    1    4    4    0    0  0.52970266013E+01 -0.43590381892E+02 -0.52794919978E+01  0.44227287053E+02  0.00000000000E+00 0.  1.
         11    1    4    4    0    0 -0.65802564584E+02 -0.59740562883E+03  0.23636465549E+03  0.64582638009E+03  0.00000000000E+00 0. -1.
         21    1    1    2  503  502 -0.52408525267E+02  0.11105968400E+03 -0.59447179222E+02  0.13643633698E+03  0.00000000000E+00 0. -1.
          1    1    1    2  501    0  0.25911787678E+03  0.52347485349E+03  0.30057615927E+03  0.65689727037E+03  0.00000000000E+00 0. -1.
<scales pt_clust_5="13000.00000" pt_clust_6="13000.00000" pt_clust_7="13000.00000" pt_clust_8="13000.00000" pt_clust_9="122.80434" pt_clust_10="596.69921"></scales>
<clustering>
<clus scale="   79.720">  5  6 -1 -1</clus>
<clus scale="   90.757">  7  8 -1 -1</clus>
<clus scale="  122.804">  2  9  1 -1</clus>
<clus scale="  171.226">  1  5  2 -1</clus>
<clus scale="  596.699">  2 10  1 -1</clus>
<clus scale="  122.804">  2  5  1 -1</clus>
</clustering>
</event>
<event>
10    4  0.7204077E-005  0.1579463E+03  0.7546771E-02  0.1192632E+00
         21   -1    0    0  501  502  0.00000000000E+00  0.00000000000E+00  0.39193843607E+02  0.39193843607E+02  0.00000000000E+00 0.  1.
          2   -1    0    0  503    0 -0.00000000000E+00 -0.00000000000E+00 -0.11545220833E+04  0.11545220833E+04  0.00000000000E+00 0. -1.
         24    2    1    2    0    0 -0.86657071776E+02  0.74053225735E+02 -0.49397216025E+03  0.51336172775E+03  0.80860621345E+02 0.  0.
         23    2    1    2    0    0  0.94574977262E+02 -0.11944138254E+03 -0.56053407089E+03  0.58791334609E+03  0.90735812619E+02 0.  0.
        -13    1    3    3    0    0 -0.57587205364E+02  0.30931273207E+02 -0.12812615790E+03  0.14383790259E+03  0.00000000000E+00 0.  1.
         14    1    3    3    0    0 -0.29069866412E+02  0.43121952527E+02 -0.36584600234E+03  0.36952382515E+03  0.00000000000E+00 0. -1.
        -13    1    4    4    0    0  0.98818940626E+02 -0.73662830572E+02 -0.47586076882E+03  0.49156369571E+03  0.00000000000E+00 0. -1.
         13    1    4    4    0    0 -0.42439633638E+01 -0.45778551964E+02 -0.84673302071E+02  0.96349650381E+02  0.00000000000E+00 0.  1.
         21    1    1    2  503  502  0.38763467157E+01  0.22739463032E+02  0.34108462012E+01  0.23318299995E+02  0.00000000000E+00 0.  1.
          1    1    1    2  501    0 -0.11794252202E+02  0.22648693769E+02 -0.64232854780E+02  0.69122553104E+02  0.00000000000E+00 0. -1.
<scales pt_clust_5="13000.00000" pt_clust_6="13000.00000" pt_clust_7="13000.00000" pt_clust_8="13000.00000" pt_clust_9="23.06749" pt_clust_10="27.30710"></scales>
<clustering>
<clus scale="   23.067">  1  9  2 -1</clus>
<clus scale="   27.307">  1 10  2 -1</clus>
<clus scale="   80.861">  5  6 -1 -1</clus>
<clus scale="   90.736">  7  8 -1 -1</clus>
<clus scale="  152.488">  2  5  1 -1</clus>
<clus scale="   23.067">  1  5  2 -1</clus>
</clustering>
</event>
<event>
10    4  0.7204077E-005  0.3988243E+03  0.7546771E-02  0.1096669E+00
         21   -1    0    0  503  502  0.00000000000E+00  0.00000000000E+00  0.46923007431E+03  0.46923007431E+03  0.00000000000E+00 0. -1.
          2   -1    0    0  502    0 -0.00000000000E+00 -0.00000000000E+00 -0.68895141591E+03  0.68895141591E+03  0.00000000000E+00 0. -1.
         24    2    1    2    0    0 -0.50167858300E+02  0.54729070427E+01 -0.33110186247E+03  0.34430736175E+03  0.79826996095E+02 0.  0.
         23    2    1    2    0    0 -0.34749567023E+03 -0.74883365858E+02 -0.39603827524E+02  0.36915205269E+03  0.91345583040E+02 0.  0.
        -13    1    3    3    0    0 -0.11059990344E+02  0.22124666915E+02 -0.24645847256E+02  0.34917646820E+02  0.00000000000E+00 0.  1.
         14    1    3    3    0    0 -0.39107867956E+02 -0.16651759872E+02 -0.30645601522E+03  0.30938971493E+03  0.00000000000E+00 0. -1.
        -13    1    4    4    0    0 -0.26543454983E+03 -0.93976038800E+02 -0.17896339973E+02  0.28214761224E+03  0.00000000000E+00 0. -1.
         13    1    4    4    0    0 -0.82061120399E+02  0.19092672942E+02 -0.21707487551E+02  0.87004440444E+02  0.00000000000E+00 0.  1.
         21    1    1    2  503  501  0.33281437206E+02 -0.33061364478E+01  0.49155298604E+02  0.59454419362E+02  0.00000000000E+00 0. -1.
          1    1    1    2  501    0  0.36438209132E+03  0.72716595263E+02  0.10182904979E+03  0.38526765642E+03  0.00000000000E+00 0. -1.
<scales pt_clust_5="13000.00000" pt_clust_6="13000.00000" pt_clust_7="13000.00000" pt_clust_8="13000.00000" pt_clust_9="32.90287" pt_clust_10="32.90287"></scales>
<clustering>
<clus scale="   32.903">  9 10 -1 -1</clus>
<clus scale="   79.827">  5  6 -1 -1</clus>
<clus scale="   91.346">  7  8 -1 -1</clus>
<clus scale="   94.441">  2  5  1 -1</clus>
<clus scale="  394.180">  2  7  1 -1</clus>
<clus scale="  398.824">  1  5  2 -1</clus>
</clustering>
</event>
<event>
10    4  0.7204077E-005  0.1709783E+03  0.7546771E-02  0.1184814E+00
          2   -1    0    0  503    0 -0.00000000000E+00  0.00000000000E+00  0.14864635643E+04  0.14864635643E+04  0.00000000000E+00 0. -1.
         21   -1    0    0  501  502  0.00000000000E+00 -0.00000000000E+00 -0.53794858898E+02  0.53794858898E+02  0.00000000000E+00 0.  1.
         23    2    1    2    0    0 -0.78092381785E+02 -0.69390508098E+02  0.43437097994E+03  0.45601720278E+03  0.91433463840E+02 0.  0.
         24    2    1    2    0    0  0.44677621504E+01  0.16832039977E+03  0.41314045768E+03  0.45354760393E+03  0.81661945759E+02 0.  0.
        -13    1    4    4    0    0 -0.27738225404E+02  0.92645843141E+02  0.28797774355E+03  0.30378255740E+03  0.00000000000E+00 0.  1.
         14    1    4    4    0    0  0.32205987555E+02  0.75674556625E+02  0.12516271413E+03  0.14976504653E+03  0.00000000000E+00 0. -1.
        -11    1    3    3    0    0 -0.86121475270E+02 -0.27785710270E+02  0.22721868982E+03  0.24457572897E+03  0.00000000000E+00 0. -1.
         11    1    3    3    0    0  0.80290934855E+01 -0.41604797827E+02  0.20715229012E+03  0.21144147381E+03  0.00000000000E+00 0.  1.
         21    1    1    2  503  502 -0.32554915918E+02  0.75072255072E+01  0.81054522798E+01  0.34378472071E+02  0.00000000000E+00 0.  1.
          1    1    1    2  501    0  0.10617953555E+03 -0.10643711718E+03  0.57705181547E+03  0.59631514438E+03  0.00000000000E+00 0. -1.
<scales pt_clust_5="13000.00000" pt_clust_6="13000.00000" pt_clust_7="13000.00000" pt_clust_8="13000.00000" pt_clust_9="33.40929" pt_clust_10="150.21631"></scales>
<clustering>
<clus scale="   33.409">  2  9  1 -1</clus>
<clus scale="   81.662">  5  6 -1 -1</clus>
<clus scale="   91.433">  7  8 -1 -1</clus>
<clus scale="  142.929">  1  7  2 -1</clus>
<clus scale="  150.216">  2 10  1 -1</clus>
<clus scale="   33.409">  2  5  1 -1</clus>
</clustering>
</event>
<event>
10    4  0.7204077E-005  0.1809707E+03  0.7546771E-02  0.1197951E+00
          2   -1    0    0  503    0 -0.00000000000E+00  0.00000000000E+00  0.11278394368E+04  0.11278394368E+04  0.00000000000E+00 0. -1.
         21   -1    0    0  501  502  0.00000000000E+00 -0.00000000000E+00 -0.10697049240E+03  0.10697049240E+03  0.00000000000E+00 0. -1.
         24    2    1    2    0    0 -0.30911833786E+02 -0.30889623176E+02  0.20278801261E+03  0.22189927252E+03  0.78781970013E+02 0.  0.
         23    2    1    2    0    0  0.98269477512E+02 -0.16402110648E+03  0.17814370335E+03  0.27638050896E+03  0.89951059530E+02 0.  0.
        -11    1    3    3    0    0 -0.35276643944E+02  0.18177345961E+02  0.10828885217E+03  0.11533140517E+03  0.00000000000E+00 0.  1.
         12    1    3    3    0    0  0.43648101582E+01 -0.49066969137E+02  0.94499160443E+02  0.10656786735E+03  0.00000000000E+00 0. -1.
        -11    1    4    4    0    0  0.39522409827E+02 -0.13845132681E+03  0.99868753375E+02  0.17522716306E+03  0.00000000000E+00 0. -1.
         11    1    4    4    0    0  0.58747067684E+02 -0.25569779672E+02  0.78274949974E+02  0.10115334590E+03  0.00000000000E+00 0.  1.
         21    1    1    2  503  502 -0.34422085915E+02  0.37349708469E+02 -0.21963588685E+02  0.55337870842E+02  0.00000000000E+00 0. -1.
          1    1    1    2  501    0 -0.32935557811E+02  0.15756102119E+03  0.66190081709E+03  0.68119227684E+03  0.00000000000E+00 0. -1.
<scales pt_clust_5="13000.00000" pt_clust_6="13000.00000" pt_clust_7="13000.00000" pt_clust_8="13000.00000" pt_clust_9="50.79253" pt_clust_10="157.03260"></scales>
<clustering>
<clus scale="   50.793">  2  9  1 -1</clus>
<clus scale="   78.782">  5  6 -1 -1</clus>
<clus scale="   89.951">  7  8 -1 -1</clus>
<clus scale="   90.231">  1  5  2 -1</clus>
<clus scale="  157.033">  2 10  1 -1</clus>
<clus scale="   50.793">  2  5  1 -1</clus>
</clustering>
</event>
<event>
10    4  0.7204077E-005  0.2217334E+03  0.7546771E-02  0.1133898E+00
         21   -1    0    0  501  502  0.00000000000E+00  0.00000000000E+00  0.14971512177E+04  0.14971512177E+04  0.00000000000E+00 0. -1.
          2   -1    0    0  503    0 -0.00000000000E+00 -0.00000000000E+00 -0.89293066909E+02  0.89293066909E+02  0.00000000000E+00 0. -1.
         24    2    1    2    0    0 -0.14535169742E+03 -0.86131515588E+02  0.21381563830E+03  0.28341746413E+03  0.77862557578E+02 0.  0.
         23    2    1    2    0    0  0.16613055990E+03  0.20870179577E+03  0.45400547915E+03  0.53513159991E+03  0.95336517818E+02 0.  0.
        -13    1    3    3    0    0 -0.14300871811E+03 -0.62068272564E+02  0.20530346809E+03  0.25778572095E+03  0.00000000000E+00 0.  1.
         14    1    3    3    0    0 -0.23429793036E+01 -0.24063243024E+02  0.85121702126E+01  0.25631743182E+02  0.00000000000E+00 0. -1.
        -11    1    4    4    0    0 -0.68803603927E+01  0.41431764782E+02  0.80849409615E+02  0.91107395568E+02  0.00000000000E+00 0.  1.
         11    1    4    4    0    0  0.17301092029E+03  0.16727003099E+03  0.37315606954E+03  0.44402420434E+03  0.00000000000E+00 0. -1.
         21    1    1    2  503  502 -0.22713602365E+02  0.25887120833E+02  0.42349084125E+02  0.54584756880E+02  0.00000000000E+00 0. -1.
          1    1    1    2  501    0  0.19347398792E+01 -0.14845740102E+03  0.69768794919E+03  0.71331046367E+03  0.00000000000E+00 0. -1.
<scales pt_clust_5="13000.00000" pt_clust_6="13000.00000" pt_clust_7="13000.00000" pt_clust_8="13000.00000" pt_clust_9="34.43909" pt_clust_10="146.02639"></scales>
<clustering>
<clus scale="   34.439">  2  9  1 -1</clus>
<clus scale="   77.863">  5  6 -1 -1</clus>
<clus scale="   95.337">  7  8 -1 -1</clus>
<clus scale="  146.026">  1 10  2 -1</clus>
<clus scale="  214.800">  2  5  1 -1</clus>
<clus scale="  146.026">  1  5  2 -1</clus>
</clustering>
</event>
<event>
10    4  0.7204077E-005  0.1465663E+03  0.7546771E-02  0.1208523E+00
         21   -1    0    0  501  502  0.00000000000E+00  0.00000000000E+00  0.38152536405E+02  0.38152536405E+02  0.00000000000E+00 0. -1.
          2   -1    0    0  503    0 -0.00000000000E+00 -0.00000000000E+00 -0.16892690877E+04  0.16892690877E+04  0.00000000000E+00 0. -1.
         24    2    1    2    0    0 -0.12702220525E+03 -0.10168433006E+02 -0.80065266111E+03  0.81391798402E+03  0.71970572443E+02 0.  0.
         23    2    1    2    0    0  0.49390082237E+02 -0.10741003694E+03 -0.25756126020E+03  0.29734089967E+03  0.89986174505E+02 0.  0.
        -11    1    3    3    0    0 -0.72264753777E+02  0.13613027966E+02 -0.26716283059E+03  0.27709833493E+03  0.00000000000E+00 0.  1.
         12    1    3    3    0    0 -0.54757451474E+02 -0.23781460972E+02 -0.53348983052E+03  0.53681964909E+03  0.00000000000E+00 0. -1.
        -13    1    4    4    0    0  0.40006328072E+02 -0.28408325417E+02 -0.33073154995E+02  0.59172399141E+02  0.00000000000E+00 0. -1.
         13    1    4    4    0    0  0.93837541652E+01 -0.79001711523E+02 -0.22448810520E+03  0.23816850053E+03  0.00000000000E+00 0.  1.
         21    1    1    2  503  502  0.26271350166E+02 -0.10424613082E+02 -0.13558064159E+03  0.13849536733E+03  0.00000000000E+00 0.  1.
          1    1    1    2  501    0  0.51360772848E+02  0.12800308303E+03 -0.45732198844E+03  0.47766737314E+03  0.00000000000E+00 0. -1.
<scales pt_clust_5="13000.00000" pt_clust_6="13000.00000" pt_clust_7="13000.00000" pt_clust_8="13000.00000" pt_clust_9="28.26405" pt_clust_10="115.69000"></scales>
<clustering>
<clus scale="   28.264">  2  9  1 -1</clus>
<clus scale="   71.971">  5  6 -1 -1</clus>
<clus scale="   89.986">  7  8 -1 -1</clus>
<clus scale="  135.178">  2  5  1 -1</clus>
<clus scale="  115.690">  1 10  2 -1</clus>
<clus scale="  115.690">  1  5  2 -1</clus>
</clustering>
</event>
<event>
10    4  0.7204077E-005  0.2134672E+03  0.7546771E-02  0.1139140E+00
         21   -1    0    0  503  502  0.00000000000E+00  0.00000000000E+00  0.16226741084E+03  0.16226741084E+03  0.00000000000E+00 0. -1.
          2   -1    0    0  502    0 -0.00000000000E+00 -0.00000000000E+00 -0.44186584785E+03  0.44186584785E+03  0.00000000000E+00 0. -1.
         23    2    1    2    0    0  0.96409717427E+02 -0.16287120064E+03 -0.14070477890E+03  0.25024020483E+03  0.83668773703E+02 0.  0.
         24    2    1    2    0    0 -0.10371741799E+03  0.17848001720E+03 -0.81394123875E+02  0.23580266033E+03  0.79783907434E+02 0.  0.
        -13    1    4    4    0    0 -0.39933102752E+02  0.13695177373E+02 -0.29970970677E+02  0.51773252380E+02  0.00000000000E+00 0.  1.
         14    1    4    4    0    0 -0.63784315236E+02  0.16478483983E+03 -0.51423153197E+02  0.18402940795E+03  0.00000000000E+00 0. -1.
        -13    1    3    3    0    0  0.46681104898E+02 -0.14655991924E+03 -0.95229305665E+02  0.18090759005E+03  0.00000000000E+00 0. -1.
         13    1    3    3    0    0  0.49728612529E+02 -0.16311281403E+02 -0.45475473239E+02  0.69332614773E+02  0.00000000000E+00 0.  1.
         21    1    1    2  503  501 -0.33517668257E+02 -0.95569403724E+01  0.12335060941E+02  0.36971920738E+02  0.00000000000E+00 0. -1.
          1    1    1    2  501    0  0.40825368819E+02 -0.60518761863E+01 -0.69834595175E+02  0.81118472791E+02  0.00000000000E+00 0. -1.
<scales pt_clust_5="13000.00000" pt_clust_6="13000.00000" pt_clust_7="13000.00000" pt_clust_8="13000.00000" pt_clust_9="34.85354" pt_clust_10="39.97399"></scales>
<clustering>
<clus scale="   34.854">  1  9  2 -1</clus>
<clus scale="   39.974">  1 10  2 -1</clus>
<clus scale="   79.784">  5  6 -1 -1</clus>
<clus scale="   83.669">  7  8 -1 -1</clus>
<clus scale="  211.975">  1  5  2 -1</clus>
<clus scale="   34.854">  1  5  2 -1</clus>
</clustering>
</event>
<event>
10    4  0.7204077E-005  0.3419809E+03  0.7546771E-02  0.1102796E+00
          2   -1    0    0  503    0 -0.00000000000E+00  0.00000000000E+00  0.17331494048E+03  0.17331494048E+03  0.00000000000E+00 0. -1.
         21   -1    0    0  501  502  0.00000000000E+00 -0.00000000000E+00 -0.25802258602E+04  0.25802258602E+04  0.00000000000E+00 0.  1.
         24    2    1    2    0    0 -0.92855309673E+02 -0.40737450058E+02 -0.21979106160E+02  0.12964632786E+03  0.77739570680E+02 0.  0.
         23    2    1    2    0    0  0.58770153216E+02 -0.83599576622E+02 -0.10341536631E+03  0.17206382379E+03  0.92023917256E+02 0.  0.
        -13    1    3    3    0    0 -0.91399979469E+02 -0.30353621029E+02  0.92044009470E+01  0.96747194034E+02  0.00000000000E+00 0.  1.
         14    1    3    3    0    0 -0.14553302036E+01 -0.10383829028E+02 -0.31183507107E+02  0.32899133831E+02  0.00000000000E+00 0. -1.
        -11    1    4    4    0    0 -0.16955576229E+02 -0.33566954433E+02 -0.45914583699E+01  0.37885531342E+02  0.00000000000E+00 0.  1.
         11    1    4    4    0    0  0.75725729445E+02 -0.50032622189E+02 -0.98823907938E+02  0.13417829244E+03  0.00000000000E+00 0. -1.
         21    1    1    2  503  502  0.90255414123E+02  0.35396373847E+03 -0.21510007394E+04  0.21817975499E+04  0.00000000000E+00 0.  1.
          1    1    1    2  501    0 -0.56170257667E+02 -0.22962671179E+03 -0.13051570782E+03  0.27003309909E+03  0.00000000000E+00 0. -1.
<scales pt_clust_5="13000.00000" pt_clust_6="13000.00000" pt_clust_7="13000.00000" pt_clust_8="13000.00000" pt_clust_9="13000.00000" pt_clust_10="341.98086"></scales>
<clustering>
<clus scale="   77.740">  5  6 -1 -1</clus>
<clus scale="   92.024">  7  8 -1 -1</clus>
<clus scale="  127.770">  1  5  2 -1</clus>
<clus scale="  136.312">  1  7  2 -1</clus>
<clus scale="  341.981">  1 10  2 -1</clus>
<clus scale="  341.981">  2  5  1 -1</clus>
</clustering>
</event>
<event>
10    4  0.7204077E-005  0.1294344E+03  0.7546771E-02  0.1231927E+00
          2   -1    0    0  503    0 -0.00000000000E+00  0.00000000000E+00  0.18386194759E+03  0.18386194759E+03  0.00000000000E+00 0. -1.
         21   -1    0    0  501  502  0.00000000000E+00 -0.00000000000E+00 -0.19352477142E+03  0.19352477142E+03  0.00000000000E+00 0. -1.
         24    2    1    2    0    0  0.22276396307E+02 -0.71150993266E+02  0.22549071379E+02  0.11214498858E+03  0.80680457170E+02 0.  0.
         23    2    1    2    0    0 -0.43825889195E+02  0.99664936583E+02  0.23775626717E+02  0.14580947392E+03  0.94028262300E+02 0.  0.
        -13    1    3    3    0    0  0.16507101353E+02 -0.15308390427E+02  0.46070394632E+02  0.51276821997E+02  0.00000000000E+00 0.  1.
         14    1    3    3    0    0  0.57692949543E+01 -0.55842602838E+02 -0.23521323253E+02  0.60868166587E+02  0.00000000000E+00 0. -1.
        -13    1    4    4    0    0 -0.36745231221E-01  0.10006592567E+03  0.16798214746E+02  0.10146610689E+03  0.00000000000E+00 0.  1.
         13    1    4    4    0    0 -0.43789143963E+02 -0.40098908342E+00  0.69774119710E+01  0.44343367025E+02  0.00000000000E+00 0. -1.
         21    1    1    2  503  502  0.86172813666E+01  0.23641396399E+02 -0.60484273591E+02  0.65509697860E+02  0.00000000000E+00 0. -1.
          1    1    1    2  501    0  0.12932211521E+02 -0.52155339715E+02  0.44967516649E+01  0.53922558648E+02  0.00000000000E+00 0. -1.
<scales pt_clust_5="13000.00000" pt_clust_6="13000.00000" pt_clust_7="13000.00000" pt_clust_8="13000.00000" pt_clust_9="25.16293" pt_clust_10="49.85396"></scales>
<clustering>
<clus scale="   25.163">  2  9  1 -1</clus>
<clus scale="   49.854">  2 10  1 -1</clus>
<clus scale="   80.680">  5  6 -1 -1</clus>
<clus scale="   94.028">  7  8 -1 -1</clus>
<clus scale="  120.089">  1  5  2 -1</clus>
<clus scale="   25.163">  2  5  1 -1</clus>
</clustering>
</event>
<event>
10    4  0.7204077E-005  0.1391387E+03  0.7546771E-02  0.1223265E+00
         21   -1    0    0  501  502  0.00000000000E+00  0.00000000000E+00  0.19408125019E+03  0.19408125019E+03  0.00000000000E+00 0.  1.
         -3   -1    0    0    0  501 -0.00000000000E+00 -0.00000000000E+00 -0.18091087136E+03  0.18091087136E+03  0.00000000000E+00 0.  1.
         23    2    1    2    0    0  0.80031299832E+02 -0.17927199871E+02  0.12005871036E+01  0.13795889152E+03  0.11092709720E+03 0.  0.
         24    2    1    2    0    0 -0.81624732223E+02 -0.66381744503E+02  0.15246159104E+02  0.13278428275E+03  0.79561846795E+02 0.  0.
        -13    1    4    4    0    0 -0.45677409143E+02  0.99825039851E+00  0.30464202105E+02  0.54913475758E+02  0.00000000000E+00 0.  1.
         14    1    4    4    0    0 -0.35947323080E+02 -0.67379994902E+02 -0.15218043001E+02  0.77870806997E+02  0.00000000000E+00 0. -1.
        -11    1    3    3    0    0  0.13189138613E+02 -0.57056623248E+02 -0.10897841827E+02  0.59566555971E+02  0.00000000000E+00 0.  1.
         11    1    3    3    0    0  0.66842161220E+02  0.39129423377E+02  0.12098428931E+02  0.78392335550E+02  0.00000000000E+00 0. -1.
         21    1    1    2  503  502 -0.78291519570E+01  0.29351733294E+02  0.27137893444E+02  0.40734323712E+02  0.00000000000E+00 0. -1.
         -4    1    1    2    0  503  0.94225843472E+01  0.54957211080E+02 -0.30414260818E+02  0.63514623565E+02  0.00000000000E+00 0.  1.
<scales pt_clust_5="13000.00000" pt_clust_6="13000.00000" pt_clust_7="13000.00000" pt_clust_8="13000.00000" pt_clust_9="30.37795" pt_clust_10="58.62679"></scales>
<clustering>
<clus scale="   30.378">  1  9  2 -1</clus>
<clus scale="   58.627">  1 10  2 -1</clus>
<clus scale="   79.562">  5  6 -1 -1</clus>
<clus scale="  110.927">  7  8 -1 -1</clus>
<clus scale="  115.693">  1  5  2 -1</clus>
<clus scale="   30.378">  1  5  2 -1</clus>
</clustering>
</event>
<event>
10    4  0.7204077E-005  0.1215309E+03  0.7546771E-02  0.1240985E+00
          2   -1    0    0  502    0 -0.00000000000E+00  0.00000000000E+00  0.37117284378E+03  0.37117284378E+03  0.00000000000E+00 0. -1.
         21   -1    0    0  503  502  0.00000000000E+00 -0.00000000000E+00 -0.17052001925E+03  0.17052001925E+03  0.00000000000E+00 0. -1.
         23    2    1    2    0    0  0.91777861180E+02  0.26130734931E+02  0.20658835457E+03  0.24473953440E+03  0.90070529828E+02 0.  0.
         24    2    1    2    0    0 -0.10792773743E+02  0.54176121715E+02 -0.91225444858E+02  0.13875521625E+03  0.88765940085E+02 0.  0.
        -11    1    4    4    0    0 -0.13960623536E+02  0.27458153242E+02  0.11260046139E+02  0.32796917965E+02  0.00000000000E+00 0.  1.
         12    1    4    4    0    0  0.31678497931E+01  0.26717968473E+02 -0.10248549100E+03  0.10595829829E+03  0.00000000000E+00 0. -1.
        -13    1    3    3    0    0  0.64427088194E+02  0.52892438662E+01  0.19939054904E+03  0.20960776904E+03  0.00000000000E+00 0. -1.
         13    1    3    3    0    0  0.27350772987E+02  0.20841491065E+02  0.71978055228E+01  0.35131765357E+02  0.00000000000E+00 0.  1.
         21    1    1    2  503  501 -0.19309305831E+01 -0.38892401459E+02  0.71763256804E+01  0.39596048217E+02  0.00000000000E+00 0.  1.
          1    1    1    2  501    0 -0.79054156854E+02 -0.41414455188E+02  0.78113589143E+02  0.11860206416E+03  0.00000000000E+00 0. -1.
<scales pt_clust_5="13000.00000" pt_clust_6="13000.00000" pt_clust_7="13000.00000" pt_clust_8="13000.00000" pt_clust_9="38.94031" pt_clust_10="91.94291"></scales>
<clustering>
<clus scale="   38.940">  2  9  1 -1</clus>
<clus scale="   88.766">  5  6 -1 -1</clus>
<clus scale="   90.071">  7  8 -1 -1</clus>
<clus scale="   91.943">  2 10  1 -1</clus>
<clus scale="  120.567">  2  5  1 -1</clus>
<clus scale="   38.940">  2  5  1 -1</clus>
</clustering>
</event>
<event>
10    4  0.7204077E-005  0.7577593E+03  0.7546771E-02  0.9623255E-01
          2   -1    0    0  503    0 -0.00000000000E+00  0.00000000000E+00  0.38503036410E+03  0.38503036410E+03  0.00000000000E+00 0. -1.
         21   -1    0    0  501  502  0.00000000000E+00 -0.00000000000E+00 -0.15924525141E+04  0.15924525141E+04  0.00000000000E+00 0. -1.
         24    2    1    2    0    0 -0.46103164802E+03  0.41220422746E+03 -0.24906716271E+03  0.67166512337E+03  0.81468280937E+02 0.  0.
         23    2    1    2    0    0 -0.65824326589E+02  0.40911532103E+02 -0.89510876927E+02  0.15143055062E+03  0.94405609697E+02 0.  0.
        -13    1    3    3    0    0 -0.75285003986E+02  0.73482787386E+02 -0.76522314422E+02  0.13008926348E+03  0.00000000000E+00 0.  1.
         14    1    3    3    0    0 -0.38574664403E+03  0.33872144008E+03 -0.17254484829E+03  0.54157585989E+03  0.00000000000E+00 0. -1.
        -11    1    4    4    0    0 -0.67036037364E+02  0.20623799439E+02 -0.10472591567E+03  0.12604240883E+03  0.00000000000E+00 0.  1.
         11    1    4    4    0    0  0.12117107741E+01  0.20287732663E+02  0.15215038747E+02  0.25388141793E+02  0.00000000000E+00 0. -1.
         21    1    1    2  503  502 -0.21308106106E+02  0.70249784603E+01 -0.10610092155E+03  0.10844718190E+03  0.00000000000E+00 0. -1.
          1    1    1    2  501    0  0.54816408071E+03 -0.46014073803E+03 -0.76274318879E+03  0.10459400223E+04  0.00000000000E+00 0. -1.
<scales pt_clust_5="13000.00000" pt_clust_6="13000.00000" pt_clust_7="13000.00000" pt_clust_8="13000.00000" pt_clust_9="22.43626" pt_clust_10="703.02122"></scales>
<clustering>
<clus scale="   22.436">  2  9  1 -1</clus>
<clus scale="   81.468">  5  6 -1 -1</clus>
<clus scale="   94.406">  7  8 -1 -1</clus>
<clus scale="   98.154">  5  7 -1 -1</clus>
<clus scale="  703.021">  2 10  1 -1</clus>
<clus scale="   22.436">  2  5  1 -1</clus>
</clustering>
</event>
<event>
10    4  0.7204077E-005  0.1186146E+03  0.7546771E-02  0.1255908E+00
         21   -1    0    0  501  502  0.00000000000E+00  0.00000000000E+00  0.11846970536E+03  0.11846970536E+03  0.00000000000E+00 0. -1.
          2   -1    0    0  503    0 -0.00000000000E+00 -0.00000000000E+00 -0.97083657923E+03  0.97083657923E+03  0.00000000000E+00 0. -1.
         24    2    1    2    0    0 -0.29184028339E+02 -0.42052698810E+02 -0.64043131730E+03  0.64757303505E+03  0.81107500070E+02 0.  0.
         23    2    1    2    0    0 -0.84434848748E+02  0.31916966613E+02  0.34895237571E+02  0.13222527840E+03  0.90099446186E+02 0.  0.
        -11    1    3    3    0    0  0.15981350614E+02 -0.18441758847E+02 -0.58112822226E+02  0.63028581960E+02  0.00000000000E+00 0.  1.
         12    1    3    3    0    0 -0.45165378953E+02 -0.23610939963E+02 -0.58231849507E+03  0.58454445309E+03  0.00000000000E+00 0. -1.
        -13    1    4    4    0    0  0.11970362239E+02  0.23070411838E+02 -0.67258836680E+01  0.26847178355E+02  0.00000000000E+00 0.  1.
         13    1    4    4    0    0 -0.96405210987E+02  0.88465547750E+01  0.41621121239E+02  0.10537810005E+03  0.00000000000E+00 0. -1.
         21    1    1    2  503  502  0.13923288238E+02 -0.25914539283E+02  0.10467875507E+02  0.31224953470E+02  0.00000000000E+00 0.  1.
          1    1    1    2  501    0  0.99695588849E+02  0.36050271480E+02 -0.25729866965E+03  0.27828301765E+03  0.00000000000E+00 0. -1.
<scales pt_clust_5="13000.00000" pt_clust_6="13000.00000" pt_clust_7="13000.00000" pt_clust_8="13000.00000" pt_clust_9="29.41804" pt_clust_10="77.14602"></scales>
<clustering>
<clus scale="   29.418">  1  9  2 -1</clus>
<clus scale="   81.108">  5  6 -1 -1</clus>
<clus scale="   90.099">  7  8 -1 -1</clus>
<clus scale="   96.175">  2  5  1 -1</clus>
<clus scale="   77.146">  1 10  2 -1</clus>
<clus scale="   29.418">  1  5  2 -1</clus>
</clustering>
</event>
<event>
10    4  0.7204077E-005  0.1039901E+03  0.7546771E-02  0.1277282E+00
          2   -1    0    0  503    0 -0.00000000000E+00  0.00000000000E+00  0.87419347657E+03  0.87419347657E+03  0.00000000000E+00 0. -1.
         21   -1    0    0  501  502  0.00000000000E+00 -0.00000000000E+00 -0.67146509659E+02  0.67146509659E+02  0.00000000000E+00 0.  1.
         24    2    1    2    0    0  0.27739702915E+02 -0.48503084315E+02  0.56007050171E+03  0.56845407345E+03  0.79618003185E+02 0.  0.
         23    2    1    2    0    0 -0.55500259226E+01  0.40918133605E+02  0.28562871321E+03  0.30260672681E+03  0.91005345208E+02 0.  0.
        -13    1    3    3    0    0  0.46737177771E+02 -0.38909676428E+02  0.23681752908E+03  0.24450126541E+03  0.00000000000E+00 0.  1.
         14    1    3    3    0    0 -0.18997474856E+02 -0.95934078872E+01  0.32325297263E+03  0.32395280804E+03  0.00000000000E+00 0. -1.
        -13    1    4    4    0    0  0.40087296845E+02  0.34733890486E+02  0.13319828156E+03  0.14337090614E+03  0.00000000000E+00 0.  1.
         13    1    4    4    0    0 -0.45637322768E+02  0.61842431198E+01  0.15243043165E+03  0.15923582067E+03  0.00000000000E+00 0. -1.
         21    1    1    2  503  502 -0.99020340230E+01  0.28542549811E+02 -0.34107297395E+02  0.45563528870E+02  0.00000000000E+00 0.  1.
          1    1    1    2  501    0 -0.12287642969E+02 -0.20957599101E+02 -0.45449506109E+01  0.24715657100E+02  0.00000000000E+00 0. -1.
<scales pt_clust_5="13000.00000" pt_clust_6="13000.00000" pt_clust_7="13000.00000" pt_clust_8="13000.00000" pt_clust_9="23.00909" pt_clust_10="24.29418"></scales>
<clustering>
<clus scale="   24.294">  2 10  1 -1</clus>
<clus scale="   23.009">  2  9  1 -1</clus>
<clus scale="   79.618">  5  6 -1 -1</clus>
<clus scale="   91.005">  7  8 -1 -1</clus>
<clus scale="   94.186">  1  5  2 -1</clus>
<clus scale="   24.294">  2  5  1 -1</clus>
</clustering>
</event>
<event>
10    4  0.7204077E-005  0.1639914E+03  0.7546771E-02  0.1210343E+00
         -1   -1    0    0    0  501 -0.00000000000E+00  0.00000000000E+00  0.52934966711E+03  0.52934966711E+03  0.00000000000E+00 0.  1.
         21   -1    0    0  501  502  0.00000000000E+00 -0.00000000000E+00 -0.11564960786E+03  0.11564960786E+03  0.00000000000E+00 0.  1.
         23    2    1    2    0    0  0.26304744995E+02 -0.11951951684E+02  0.62041264207E+02  0.11352883655E+03  0.90580845132E+02 0.  0.
         24    2    1    2    0    0 -0.51786599831E+02 -0.12587006879E+03  0.12333726987E+03  0.19926933919E+03  0.77272642404E+02 0.  0.
        -13    1    4    4    0    0 -0.48098927734E+02 -0.13663605389E+03  0.11106837031E+03  0.18253520470E+03  0.00000000000E+00 0.  1.
         14    1    4    4    0    0 -0.36876720963E+01  0.10765985103E+02  0.12268899555E+02  0.16734134487E+02  0.00000000000E+00 0. -1.
        -11    1    3    3    0    0  0.51714085498E+02  0.11901584882E+02  0.15305456293E+02  0.55229080690E+02  0.00000000000E+00 0. -1.
         11    1    3    3    0    0 -0.25409340502E+02 -0.23853536566E+02  0.46735807914E+02  0.58299755856E+02  0.00000000000E+00 0.  1.
         21    1    1    2  503  502 -0.33647116250E+02 -0.12951602931E+01 -0.21683611185E+02  0.40049779851E+02  0.00000000000E+00 0.  1.
         -2    1    1    2    0  503  0.59128971085E+02  0.13911718077E+03  0.25000513636E+03  0.29215131938E+03  0.00000000000E+00 0.  1.
<scales pt_clust_5="13000.00000" pt_clust_6="13000.00000" pt_clust_7="13000.00000" pt_clust_8="13000.00000" pt_clust_9="33.67203" pt_clust_10="144.64489"></scales>
<clustering>
<clus scale="   33.672">  2  9  1 -1</clus>
<clus scale="   77.273">  5  6 -1 -1</clus>
<clus scale="   90.581">  7  8 -1 -1</clus>
<clus scale="   92.823">  1  7  2 -1</clus>
<clus scale="  144.645">  2 10  1 -1</clus>
<clus scale="   33.672">  2  5  1 -1</clus>
</clustering>
</event>
<event>
10    4  0.7204077E-005  0.2682410E+03  0.7546771E-02  0.1130280E+00
          2   -1    0    0  502    0 -0.00000000000E+00  0.00000000000E+00  0.10774202442E+04  0.10774202442E+04  0.00000000000E+00 0. -1.
         21   -1    0    0  503  502  0.00000000000E+00 -0.00000000000E+00 -0.42156481318E+03  0.42156481318E+03  0.00000000000E+00 0. -1.
         24    2    1    2    0    0 -0.44897674863E+02 -0.93502558175E+02  0.64689749109E+03  0.65996295378E+03  0.79474566912E+02 0.  0.
         23    2    1    2    0    0  0.28034251405E+03  0.10876286709E+02  0.24759489866E+03  0.38490737870E+03  0.90223264978E+02 0.  0.
        -11    1    3    3    0    0 -0.24037619859E+02  0.90821646685E+01  0.11085888032E+03  0.11379799747E+03  0.00000000000E+00 0.  1.
         12    1    3    3    0    0 -0.20860055005E+02 -0.10258472284E+03  0.53603861078E+03  0.54616495631E+03  0.00000000000E+00 0. -1.
        -11    1    4    4    0    0  0.24466521642E+03 -0.12929737029E+02  0.23666896776E+03  0.34064709969E+03  0.00000000000E+00 0. -1.
         11    1    4    4    0    0  0.35677297634E+02  0.23806023737E+02  0.10925930892E+02  0.44260279015E+02  0.00000000000E+00 0.  1.
         21    1    1    2  503  501 -0.34323196879E+02 -0.10208722483E+03 -0.10374181126E+03  0.14954011743E+03  0.00000000000E+00 0. -1.
          1    1    1    2  501    0 -0.20112164231E+03  0.18471349629E+03 -0.13489514745E+03  0.30457460748E+03  0.00000000000E+00 0. -1.
<scales pt_clust_5="13000.00000" pt_clust_6="13000.00000" pt_clust_7="13000.00000" pt_clust_8="13000.00000" pt_clust_9="107.70275" pt_clust_10="252.61237"></scales>
<clustering>
<clus scale="   79.475">  5  6 -1 -1</clus>
<clus scale="   90.223">  7  8 -1 -1</clus>
<clus scale="  107.703">  2  9  1 -1</clus>
<clus scale="  132.558">  1  5  2 -1</clus>
<clus scale="  252.612">  2 10  1 -1</clus>
<clus scale="  107.703">  2  5  1 -1</clus>
</clustering>
</event>
<event>
10    4  0.7204077E-005  0.1551078E+03  0.7546771E-02  0.1210583E+00
          2   -1    0    0  502    0 -0.00000000000E+00  0.00000000000E+00  0.58584774793E+03  0.58584774793E+03  0.00000000000E+00 0. -1.
         21   -1    0    0  503  502  0.00000000000E+00 -0.00000000000E+00 -0.17891955463E+03  0.17891955463E+03  0.00000000000E+00 0.  1.
         23    2    1    2    0    0 -0.60243020881E+02  0.38463505942E+01  0.31753355170E+03  0.33576740980E+03  0.90929538936E+02 0.  0.
         24    2    1    2    0    0  0.87655040285E+02 -0.13176992534E+03  0.18600677431E+03  0.25667879865E+03  0.78985861241E+02 0.  0.
        -13    1    4    4    0    0  0.36124955559E+02 -0.98269113847E+02  0.71703014558E+02  0.12689820112E+03  0.00000000000E+00 0.  1.
         14    1    4    4    0    0  0.51530084726E+02 -0.33500811495E+02  0.11430375975E+03  0.12978059753E+03  0.00000000000E+00 0. -1.
        -11    1    3    3    0    0 -0.36804397102E+02  0.42216979148E+02  0.11021618390E+03  0.12363027206E+03  0.00000000000E+00 0. -1.
         11    1    3    3    0    0 -0.23438623780E+02 -0.38370628554E+02  0.20731736780E+03  0.21213713775E+03  0.00000000000E+00 0.  1.
         21    1    1    2  503  501  0.12056094841E+02  0.50148068800E+02 -0.55935443103E+02  0.76085162958E+02  0.00000000000E+00 0. -1.
          1    1    1    2  501    0 -0.39468114244E+02  0.77775505948E+02 -0.40676689606E+02  0.96235931152E+02  0.00000000000E+00 0. -1.
<scales pt_clust_5="13000.00000" pt_clust_6="13000.00000" pt_clust_7="13000.00000" pt_clust_8="13000.00000" pt_clust_9="43.80477" pt_clust_10="145.13598"></scales>
<clustering>
<clus scale="   43.805">  9 10 -1 -1</clus>
<clus scale="   78.986">  5  6 -1 -1</clus>
<clus scale="   90.930">  7  8 -1 -1</clus>
<clus scale="  109.143">  1  7  2 -1</clus>
<clus scale="  145.136">  2  9  1 -1</clus>
<clus scale="  145.136">  2  5  1 -1</clus>
</clustering>
</event>
<event>
10    4  0.7204077E-005  0.1823118E+03  0.7546771E-02  0.1182995E+00
         21   -1    0    0  501  502  0.00000000000E+00  0.00000000000E+00  0.17854936872E+03  0.17854936872E+03  0.00000000000E+00 0.  1.
         -1   -1    0    0    0  501 -0.00000000000E+00 -0.00000000000E+00 -0.48243702947E+03  0.48243702947E+03  0.00000000000E+00 0.  1.
         23    2    1    2    0    0  0.45612086245E+02  0.85728719350E+02 -0.50497278931E+01  0.13390683759E+03  0.92063378536E+02 0.  0.
         24    2    1    2    0    0  0.15351907962E+03  0.28766814030E+02 -0.95363216426E+02  0.20081961966E+03  0.82696669792E+02 0.  0.
        -13    1    4    4    0    0  0.11660046652E+03 -0.24374094477E+01 -0.31650016607E+02  0.12084425228E+03  0.00000000000E+00 0.  1.
         14    1    4    4    0    0  0.36918613103E+02  0.31204223478E+02 -0.63713199819E+02  0.79975367379E+02  0.00000000000E+00 0. -1.
        -11    1    3    3    0    0  0.40126702274E+02  0.47299075353E+02  0.40485565210E+02  0.74070478296E+02  0.00000000000E+00 0.  1.
         11    1    3    3    0    0  0.54853839712E+01  0.38429643996E+02 -0.45535293104E+02  0.59836359290E+02  0.00000000000E+00 0. -1.
         21    1    1    2  503  502 -0.25770781906E+02 -0.29640589686E+02  0.78528786531E+01  0.40054531081E+02  0.00000000000E+00 0.  1.
         -2    1    1    2    0  503 -0.17336038396E+03 -0.84854943694E+02 -0.21132759508E+03  0.28620540987E+03  0.00000000000E+00 0.  1.
<scales pt_clust_5="13000.00000" pt_clust_6="13000.00000" pt_clust_7="13000.00000" pt_clust_8="13000.00000" pt_clust_9="39.27719" pt_clust_10="162.47730"></scales>
<clustering>
<clus scale="   39.277">  1  9  2 -1</clus>
<clus scale="   82.697">  5  6 -1 -1</clus>
<clus scale="   92.063">  7  8 -1 -1</clus>
<clus scale="  122.783">  2  7  1 -1</clus>
<clus scale="  162.477">  1 10  2 -1</clus>
<clus scale="   39.277">  1  5  2 -1</clus>
</clustering>
</event>
<event>
10    4  0.7204077E-005  0.3662177E+03  0.7546771E-02  0.1067646E+00
         21   -1    0    0  503  502  0.00000000000E+00  0.00000000000E+00  0.65894485828E+03  0.65894485828E+03  0.00000000000E+00 0. -1.
          2   -1    0    0  502    0 -0.00000000000E+00 -0.00000000000E+00 -0.11669605484E+04  0.11669605484E+04  0.00000000000E+00 0. -1.
         24    2    1    2    0    0 -0.23434007676E+03 -0.63832933489E+02 -0.46329431001E+03  0.52910289642E+03  0.79488001220E+02 0.  0.
         23    2    1    2    0    0  0.38571108538E+03 -0.22042939137E+03 -0.87196362533E+02  0.46185982131E+03  0.91373578971E+02 0.  0.
        -13    1    3    3    0    0 -0.58317500665E+02  0.10564624375E+02 -0.16001143918E+03  0.17063470585E+03  0.00000000000E+00 0.  1.
         14    1    3    3    0    0 -0.17602257610E+03 -0.74397557865E+02 -0.30328287083E+03  0.35846819057E+03  0.00000000000E+00 0. -1.
        -11    1    4    4    0    0  0.24089836114E+03 -0.86471383138E+02 -0.58048715298E+02  0.26244804028E+03  0.00000000000E+00 0. -1.
         11    1    4    4    0    0  0.14481272425E+03 -0.13395800823E+03 -0.29147647235E+02  0.19941178103E+03  0.00000000000E+00 0.  1.
         21    1    1    2  503  501 -0.88471075374E+02 -0.30078009127E+02  0.36704308974E+03  0.37875116837E+03  0.00000000000E+00 0. -1.
          1    1    1    2  501    0 -0.62899933245E+02  0.31434033399E+03 -0.32456810737E+03  0.45619152063E+03  0.00000000000E+00 0. -1.
<scales pt_clust_5="13000.00000" pt_clust_6="13000.00000" pt_clust_7="13000.00000" pt_clust_8="13000.00000" pt_clust_9="93.44420" pt_clust_10="354.63558"></scales>
<clustering>
<clus scale="   79.488">  5  6 -1 -1</clus>
<clus scale="   91.374">  7  8 -1 -1</clus>
<clus scale="   93.444">  1  9  2 -1</clus>
<clus scale="  265.773">  2  5  1 -1</clus>
<clus scale="  354.636">  1 10  2 -1</clus>
<clus scale="   93.444">  1  5  2 -1</clus>
</clustering>
</event>
<event>
10    4  0.7204077E-005  0.5047067E+03  0.7546771E-02  0.1012558E+00
          2   -1    0    0  503    0 -0.00000000000E+00  0.00000000000E+00  0.60476517074E+03  0.60476517074E+03  0.00000000000E+00 0. -1.
         21   -1    0    0  501  502  0.00000000000E+00 -0.00000000000E+00 -0.43449878236E+03  0.43449878236E+03  0.00000000000E+00 0. -1.
         24    2    1    2    0    0 -0.26326851284E+03 -0.25715062264E+03  0.21186469245E+03  0.43273023272E+03  0.83258956462E+02 0.  0.
         23    2    1    2    0    0 -0.26996279517E+00 -0.73864455594E+02  0.60537998158E+02  0.13133012420E+03  0.90148331219E+02 0.  0.
        -13    1    3    3    0    0 -0.54473193712E+02 -0.15395512832E+02  0.19653231510E+02  0.59921616778E+02  0.00000000000E+00 0.  1.
         14    1    3    3    0    0 -0.20879531912E+03 -0.24175510981E+03  0.19221146094E+03  0.37280861595E+03  0.00000000000E+00 0. -1.
        -13    1    4    4    0    0  0.35514175408E+02 -0.12610483402E+02 -0.58245874287E+00  0.37691115727E+02  0.00000000000E+00 0.  1.
         13    1    4    4    0    0 -0.35784138204E+02 -0.61253972192E+02  0.61120456901E+02  0.93639008474E+02  0.00000000000E+00 0. -1.
         21    1    1    2  503  502 -0.20702932792E+01 -0.20888817203E+02  0.47934964197E+01  0.21531521227E+02  0.00000000000E+00 0.  1.
          1    1    1    2  501    0  0.26560876891E+03  0.35190389544E+03 -0.10692979865E+03  0.45367207494E+03  0.00000000000E+00 0. -1.
<scales pt_clust_5="13000.00000" pt_clust_6="13000.00000" pt_clust_7="13000.00000" pt_clust_8="13000.00000" pt_clust_9="20.99116" pt_clust_10="435.65070"></scales>
<clustering>
<clus scale="   20.991">  1  9  2 -1</clus>
<clus scale="   83.259">  5  6 -1 -1</clus>
<clus scale="   90.148">  7  8 -1 -1</clus>
<clus scale="  107.592">  5  7 -1 -1</clus>
<clus scale="  435.651">  2 10  1 -1</clus>
<clus scale="  435.651">  2  5  1 -1</clus>
</clustering>
</event>
<event>
10    4  0.7204077E-005  0.9147963E+02  0.7546771E-02  0.1305364E+00
         21   -1    0    0  501  502  0.00000000000E+00  0.00000000000E+00  0.69726698764E+03  0.69726698764E+03  0.00000000000E+00 0.  1.
         -3   -1    0    0    0  501 -0.00000000000E+00 -0.00000000000E+00 -0.47381669529E+02  0.47381669529E+02  0.00000000000E+00 0.  1.
         24    2    1    2    0    0  0.18950550069E+01 -0.39779208800E+01  0.37299796415E+02  0.89930138832E+02  0.81711320939E+02 0.  0.
         23    2    1    2    0    0  0.43720893037E+02 -0.19332546094E+01  0.47764294902E+03  0.48826640608E+03  0.91356677911E+02 0.  0.
        -13    1    3    3    0    0 -0.27194489644E+02  0.75562026043E+01  0.48978562936E+02  0.56529072981E+02  0.00000000000E+00 0.  1.
         14    1    3    3    0    0  0.29089544651E+02 -0.11534123484E+02 -0.11678766521E+02  0.33401065851E+02  0.00000000000E+00 0. -1.
        -11    1    4    4    0    0  0.50356628649E+02 -0.36965395267E+02  0.35853592542E+03  0.36393713786E+03  0.00000000000E+00 0.  1.
         11    1    4    4    0    0 -0.66357356120E+01  0.35032140658E+02  0.11910702360E+03  0.12432926822E+03  0.00000000000E+00 0. -1.
         21    1    1    2  503  502 -0.57482178223E+01 -0.26008772338E+02  0.10259903721E+03  0.10600028624E+03  0.00000000000E+00 0. -1.
         -4    1    1    2    0  503 -0.39867730221E+02  0.31919947827E+02  0.32343535470E+02  0.60451826019E+02  0.00000000000E+00 0.  1.
<scales pt_clust_5="13000.00000" pt_clust_6="13000.00000" pt_clust_7="13000.00000" pt_clust_8="13000.00000" pt_clust_9="26.63641" pt_clust_10="50.18574"></scales>
<clustering>
<clus scale="   26.636">  1  9  2 -1</clus>
<clus scale="   50.186">  1 10  2 -1</clus>
<clus scale="   81.711">  5  6 -1 -1</clus>
<clus scale="   81.849">  2  5  1 -1</clus>
<clus scale="   91.357">  7  8 -1 -1</clus>
<clus scale="   26.636">  1  5  2 -1</clus>
</clustering>
</event>
<event>
10    4  0.7204077E-005  0.1223667E+03  0.7546771E-02  0.1244647E+00
          4   -1    0    0  503    0 -0.00000000000E+00  0.00000000000E+00  0.39833863543E+03  0.39833863543E+03  0.00000000000E+00 0. -1.
         21   -1    0    0  501  502  0.00000000000E+00 -0.00000000000E+00 -0.13650535268E+03  0.13650535268E+03  0.00000000000E+00 0.  1.
         24    2    1    2    0    0 -0.76376484551E+02 -0.21315068814E+02  0.29977322716E+03  0.32024175171E+03  0.80019324319E+02 0.  0.
         23    2    1    2    0    0  0.62208650885E+02 -0.45138028825E+02  0.11542651870E+02  0.12404166225E+03  0.96673384503E+02 0.  0.
        -11    1    3    3    0    0 -0.14030457184E+02  0.19103270451E+02  0.20771171173E+02  0.31515555248E+02  0.00000000000E+00 0.  1.
         12    1    3    3    0    0 -0.62346027367E+02 -0.40418339265E+02  0.27900205599E+03  0.28872619646E+03  0.00000000000E+00 0. -1.
        -13    1    4    4    0    0  0.54127314643E+02 -0.73266681186E+02 -0.34519916930E+01  0.91157495627E+02  0.00000000000E+00 0.  1.
         13    1    4    4    0    0  0.80813362417E+01  0.28128652361E+02  0.14994643563E+02  0.32884166626E+02  0.00000000000E+00 0. -1.
         21    1    1    2  503  502 -0.11701216013E+01  0.20278768607E+02 -0.33811810074E+02  0.39444088800E+02  0.00000000000E+00 0.  1.
          3    1    1    2  501    0  0.15337955267E+02  0.46174329033E+02 -0.15670786212E+02  0.51116485344E+02  0.00000000000E+00 0. -1.
<scales pt_clust_5="13000.00000" pt_clust_6="13000.00000" pt_clust_7="13000.00000" pt_clust_8="13000.00000" pt_clust_9="20.31250" pt_clust_10="55.02344"></scales>
<clustering>
<clus scale="   20.312">  2  9  1 -1</clus>
<clus scale="   55.023">  2 10  1 -1</clus>
<clus scale="   80.019">  5  6 -1 -1</clus>
<clus scale="   96.673">  7  8 -1 -1</clus>
<clus scale="  109.686">  1  5  2 -1</clus>
<clus scale="   20.312">  2  5  1 -1</clus>
</clustering>
</event>
<event>
10    4  0.7204077E-005  0.9583406E+02  0.7546771E-02  0.1294440E+00
         21   -1    0    0  501  502  0.00000000000E+00  0.00000000000E+00  0.60179413451E+02  0.60179413451E+02  0.00000000000E+00 0. -1.
          2   -1    0    0  503    0 -0.00000000000E+00 -0.00000000000E+00 -0.69626742041E+03  0.69626742041E+03  0.00000000000E+00 0. -1.
         23    2    1    2    0    0  0.19511951651E+02  0.83199703913E+01 -0.23293453761E+03  0.25076216673E+03  0.90405902924E+02 0.  0.
         24    2    1    2    0    0  0.29951036493E+02 -0.59577912774E+02 -0.24753369625E+03  0.26886969643E+03  0.81064114149E+02 0.  0.
        -13    1    4    4    0    0 -0.19566096320E+02 -0.16934570835E+02 -0.21700074523E+02  0.33771364333E+02  0.00000000000E+00 0.  1.
         14    1    4    4    0    0  0.49517132813E+02 -0.42643341939E+02 -0.22583362173E+03  0.23509833210E+03  0.00000000000E+00 0. -1.
        -11    1    3    3    0    0  0.49301233782E+02  0.75940763099E+01 -0.75217958131E+02  0.90255320468E+02  0.00000000000E+00 0. -1.
         11    1    3    3    0    0 -0.29789282131E+02  0.72589408139E+00 -0.15771657948E+03  0.16050684626E+03  0.00000000000E+00 0.  1.
         21    1    1    2  503  502  0.32864675626E+02  0.23778968549E+02  0.16702900724E+02  0.43869273323E+02  0.00000000000E+00 0. -1.
          1    1    1    2  501    0 -0.82327663770E+02  0.27478973833E+02 -0.17232267382E+03  0.19294569738E+03  0.00000000000E+00 0. -1.
<scales pt_clust_5="13000.00000" pt_clust_6="13000.00000" pt_clust_7="13000.00000" pt_clust_8="13000.00000" pt_clust_9="40.56509" pt_clust_10="79.45383"></scales>
<clustering>
<clus scale="   40.565">  1  9  2 -1</clus>
<clus scale="   79.454">  1 10  2 -1</clus>
<clus scale="   81.064">  5  6 -1 -1</clus>
<clus scale="   87.077">  1  5  2 -1</clus>
<clus scale="   90.406">  7  8 -1 -1</clus>
<clus scale="   40.565">  1  5  2 -1</clus>
</clustering>
</event>
<event>
10    4  0.7204077E-005  0.9954457E+02  0.7546771E-02  0.1284335E+00
         21   -1    0    0  503  502  0.00000000000E+00  0.00000000000E+00  0.14906307604E+03  0.14906307604E+03  0.00000000000E+00 0.  1.
         -3   -1    0    0    0  501 -0.00000000000E+00 -0.00000000000E+00 -0.50204869761E+03  0.50204869761E+03  0.00000000000E+00 0.  1.
         24    2    1    2    0    0 -0.17909800254E+02  0.49658059099E+02 -0.36281283418E+03  0.37617890242E+03  0.84206473628E+02 0.  0.
         23    2    1    2    0    0 -0.17755646536E+02 -0.43610910327E+01 -0.58444300092E+02  0.10923197426E+03  0.90452229873E+02 0.  0.
        -13    1    3    3    0    0 -0.23027783649E+02  0.60113606665E+02 -0.15231668195E+03  0.16536110827E+03  0.00000000000E+00 0.  1.
         14    1    3    3    0    0  0.51179833948E+01 -0.10455547566E+02 -0.21049615222E+03  0.21081779415E+03  0.00000000000E+00 0. -1.
        -11    1    4    4    0    0 -0.47203300321E+01 -0.31062226808E+02 -0.70486120660E+02  0.77171475660E+02  0.00000000000E+00 0.  1.
         11    1    4    4    0    0 -0.13035316504E+02  0.26701135775E+02  0.12041820567E+02  0.32060498602E+02  0.00000000000E+00 0. -1.
         21    1    1    2  503  501  0.38654916858E+02 -0.16500316206E+02  0.10837478856E+03  0.11623922672E+03  0.00000000000E+00 0.  1.
         -4    1    1    2    0  502 -0.29894700678E+01 -0.28796651860E+02 -0.40103275856E+02  0.49461670251E+02  0.00000000000E+00 0.  1.
<scales pt_clust_5="13000.00000" pt_clust_6="13000.00000" pt_clust_7="13000.00000" pt_clust_8="13000.00000" pt_clust_9="53.22596" pt_clust_10="28.95142"></scales>
<clustering>
<clus scale="   28.951">  1 10  2 -1</clus>
<clus scale="   53.226">  1  9  2 -1</clus>
<clus scale="   84.206">  5  6 -1 -1</clus>
<clus scale="   90.452">  7  8 -1 -1</clus>
<clus scale="   93.906">  2  5  1 -1</clus>
<clus scale="   28.951">  1  5  2 -1</clus>
</clustering>
</event>
<event>
10    4  0.7204077E-005  0.2488777E+03  0.7546771E-02  0.1141690E+00
          2   -1    0    0  502    0 -0.00000000000E+00  0.00000000000E+00  0.11281031003E+04  0.11281031003E+04  0.00000000000E+00 0. -1.
         21   -1    0    0  503  502  0.00000000000E+00 -0.00000000000E+00 -0.15756517264E+03  0.15756517264E+03  0.00000000000E+00 0. -1.
         24    2    1    2    0    0 -0.93500961683E+02 -0.29889610914E+02  0.33057846321E+03  0.35418029945E+03  0.80782086529E+02 0.  0.
         23    2    1    2    0    0 -0.17378343725E+03  0.16250274924E+03  0.46788132535E+03  0.53320871277E+03  0.93759107246E+02 0.  0.
        -11    1    3    3    0    0 -0.90465515292E+01  0.20558996206E+02  0.11560865165E+03  0.11777042394E+03  0.00000000000E+00 0.  1.
         12    1    3    3    0    0 -0.84454410154E+02 -0.50448607120E+02  0.21496981156E+03  0.23640987550E+03  0.00000000000E+00 0. -1.
        -13    1    4    4    0    0 -0.77627663656E+02  0.48620294045E+02  0.96574269298E+02  0.13310363124E+03  0.00000000000E+00 0.  1.
         13    1    4    4    0    0 -0.96155773591E+02  0.11388245519E+03  0.37130705605E+03  0.40010508153E+03  0.00000000000E+00 0. -1.
         21    1    1    2  503  501  0.50436993254E+02 -0.89968189246E+02 -0.20483496168E+02  0.10515578434E+03  0.00000000000E+00 0. -1.
          1    1    1    2  501    0  0.21684740568E+03 -0.42644949075E+02  0.19256163530E+03  0.29312347640E+03  0.00000000000E+00 0. -1.
<scales pt_clust_5="13000.00000" pt_clust_6="13000.00000" pt_clust_7="13000.00000" pt_clust_8="13000.00000" pt_clust_9="103.14148" pt_clust_10="230.54144"></scales>
<clustering>
<clus scale="   80.782">  5  6 -1 -1</clus>
<clus scale="   93.759">  7  8 -1 -1</clus>
<clus scale="  103.141">  2  9  1 -1</clus>
<clus scale="  125.784">  1  5  2 -1</clus>
<clus scale="  230.541">  2 10  1 -1</clus>
<clus scale="  103.141">  2  5  1 -1</clus>
</clustering>
</event>
<event>
10    4  0.7204077E-005  0.1321914E+03  0.7546771E-02  0.1238835E+00
          4   -1    0    0  503    0 -0.00000000000E+00  0.00000000000E+00  0.36123853620E+03  0.36123853620E+03  0.00000000000E+00 0. -1.
         21   -1    0    0  501  502  0.00000000000E+00 -0.00000000000E+00 -0.24311357768E+03  0.24311357768E+03  0.00000000000E+00 0.  1.
         23    2    1    2    0    0  0.25189139550E+02 -0.27825255154E+02 -0.13338795304E+03  0.16683877272E+03  0.92919817536E+02 0.  0.
         24    2    1    2    0    0  0.42091449828E+02  0.89646699168E+02  0.11616377153E+02  0.12841287105E+03  0.80911707515E+02 0.  0.
        -13    1    4    4    0    0  0.33786443081E+02 -0.31213472529E+01 -0.32863334416E+01  0.34089096970E+02  0.00000000000E+00 0.  1.
         14    1    4    4    0    0  0.83050067468E+01  0.92768046421E+02  0.14902710594E+02  0.94323774081E+02  0.00000000000E+00 0. -1.
        -13    1    3    3    0    0 -0.17195413427E+02  0.25636482933E+02 -0.53651539371E+02  0.61898297044E+02  0.00000000000E+00 0.  1.
         13    1    3    3    0    0  0.42384552977E+02 -0.53461738087E+02 -0.79736413666E+02  0.10494047567E+03  0.00000000000E+00 0. -1.
         21    1    1    2  503  502  0.35645519035E+01  0.21009431462E+02 -0.18776552723E+02  0.28401781155E+02  0.00000000000E+00 0. -1.
          3    1    1    2  501    0 -0.70845141281E+02 -0.82830875476E+02  0.25867308713E+03  0.28069868896E+03  0.00000000000E+00 0. -1.
<scales pt_clust_5="13000.00000" pt_clust_6="13000.00000" pt_clust_7="13000.00000" pt_clust_8="13000.00000" pt_clust_9="21.30967" pt_clust_10="104.53652"></scales>
<clustering>
<clus scale="   21.310">  2  9  1 -1</clus>
<clus scale="   80.912">  5  6 -1 -1</clus>
<clus scale="   92.920">  7  8 -1 -1</clus>
<clus scale="   97.870">  1  7  2 -1</clus>
<clus scale="  104.537">  2 10  1 -1</clus>
<clus scale="   21.310">  2  5  1 -1</clus>
</clustering>
</event>
<event>
10    4  0.7204077E-005  0.1212089E+03  0.7546771E-02  0.1252720E+00
         21   -1    0    0  503  502  0.00000000000E+00  0.00000000000E+00  0.42166422522E+03  0.42166422522E+03  0.00000000000E+00 0. -1.
          4   -1    0    0  502    0 -0.00000000000E+00 -0.00000000000E+00 -0.85773417809E+02  0.85773417809E+02  0.00000000000E+00 0. -1.
         23    2    1    2    0    0 -0.32518664547E+01  0.34806106441E+01  0.54912259655E+01  0.96172806711E+02  0.95897684551E+02 0.  0.
         24    2    1    2    0    0 -0.51493117101E+02  0.71456452033E+02  0.26925008355E+03  0.29482488634E+03  0.81661131903E+02 0.  0.
        -11    1    4    4    0    0 -0.50338126430E+02  0.27130819370E+02  0.68477247048E+02  0.89214021854E+02  0.00000000000E+00 0.  1.
         12    1    4    4    0    0 -0.11549906712E+01  0.44325632662E+02  0.20077283651E+03  0.20561086448E+03  0.00000000000E+00 0. -1.
        -13    1    3    3    0    0 -0.46075857092E+01 -0.42877005223E+02  0.20059561706E+02  0.47561049597E+02  0.00000000000E+00 0.  1.
         13    1    3    3    0    0  0.13557192544E+01  0.46357615867E+02 -0.14568335740E+02  0.48611757115E+02  0.00000000000E+00 0. -1.
         21    1    1    2  503  501  0.14047158787E+02 -0.29194025649E+02  0.40414701896E+02  0.51797315885E+02  0.00000000000E+00 0. -1.
          3    1    1    2  501    0  0.40697824769E+02 -0.45743037028E+02  0.20734795991E+02  0.64642634092E+02  0.00000000000E+00 0. -1.
<scales pt_clust_5="13000.00000" pt_clust_6="13000.00000" pt_clust_7="13000.00000" pt_clust_8="13000.00000" pt_clust_9="25.26598" pt_clust_10="96.07030"></scales>
<clustering>
<clus scale="   25.266">  9 10 -1 -1</clus>
<clus scale="   81.661">  5  6 -1 -1</clus>
<clus scale="   95.898">  7  8 -1 -1</clus>
<clus scale="   96.016">  2  7  1 -1</clus>
<clus scale="   96.070">  1  9  2 -1</clus>
<clus scale="   96.070">  1  5  2 -1</clus>
</clustering>
</event>
<event>
10    4  0.7204077E-005  0.3537700E+03  0.7546771E-02  0.1113667E+00
          2   -1    0    0  503    0 -0.00000000000E+00  0.00000000000E+00  0.10726014186E+04  0.10726014186E+04  0.00000000000E+00 0. -1.
         21   -1    0    0  501  502  0.00000000000E+00 -0.00000000000E+00 -0.19330469937E+03  0.19330469937E+03  0.00000000000E+00 0. -1.
         24    2    1    2    0    0  0.10445729343E+02 -0.31824497540E+02  0.87401784538E+02  0.12271595640E+03  0.79361338890E+02 0.  0.
         23    2    1    2    0    0  0.80747375195E+02 -0.29796782221E+03  0.58687493329E+03  0.66944886402E+03  0.91840255565E+02 0.  0.
        -11    1    3    3    0    0 -0.25415419234E+02 -0.30743947393E+02  0.74651411960E+02  0.84640221785E+02  0.00000000000E+00 0.  1.
         12    1    3    3    0    0  0.35861148577E+02 -0.10805501471E+01  0.12750372578E+02  0.38075734619E+02  0.00000000000E+00 0. -1.
        -13    1    4    4    0    0  0.43582340969E+02 -0.41457121429E+02  0.79355867013E+02  0.99576437931E+02  0.00000000000E+00 0.  1.
         13    1    4    4    0    0  0.37165034226E+02 -0.25651070078E+03  0.50751906628E+03  0.56987242609E+03  0.00000000000E+00 0. -1.
         21    1    1    2  503  502 -0.30932782804E+02 -0.40441964497E+02  0.14038971351E+02  0.52815549424E+02  0.00000000000E+00 0. -1.
          1    1    1    2  501    0 -0.60260321735E+02  0.37023428425E+03  0.19098103009E+03  0.42092574816E+03  0.00000000000E+00 0. -1.
<scales pt_clust_5="13000.00000" pt_clust_6="13000.00000" pt_clust_7="13000.00000" pt_clust_8="13000.00000" pt_clust_9="50.91551" pt_clust_10="341.64102"></scales>
<clustering>
<clus scale="   50.916">  2  9  1 -1</clus>
<clus scale="   79.361">  5  6 -1 -1</clus>
<clus scale="   87.422">  1  5  2 -1</clus>
<clus scale="   91.840">  7  8 -1 -1</clus>
<clus scale="  341.641">  2 10  1 -1</clus>
<clus scale="   50.916">  2  5  1 -1</clus>
</clustering>
</event>
<event>
10    4  0.7204077E-005  0.2283394E+03  0.7546771E-02  0.1147588E+00
          2   -1    0    0  503    0 -0.00000000000E+00  0.00000000000E+00  0.18698599913E+04  0.18698599913E+04  0.00000000000E+00 0. -1.
         21   -1    0    0  501  502  0.00000000000E+00 -0.00000000000E+00 -0.59369800319E+02  0.59369800319E+02  0.00000000000E+00 0.  1.
         23    2    1    2    0    0  0.64010801732E+02 -0.10085383652E+03  0.47807397224E+03  0.50117349647E+03  0.91385291762E+02 0.  0.
         24    2    1    2    0    0 -0.11327690750E+03 -0.16011722125E+03  0.53691876794E+03  0.57737140886E+03  0.81282212624E+02 0.  0.
        -11    1    4    4    0    0 -0.10719058541E+03 -0.14375022247E+03  0.38799362535E+03  0.42742601860E+03  0.00000000000E+00 0.  1.
         12    1    4    4    0    0 -0.60863220819E+01 -0.16366998782E+02  0.14892514259E+03  0.14994539026E+03  0.00000000000E+00 0. -1.
        -11    1    3    3    0    0  0.39706076943E+02 -0.72998008910E+01  0.61752098562E+02  0.73777918892E+02  0.00000000000E+00 0. -1.
         11    1    3    3    0    0  0.24304724789E+02 -0.93554035634E+02  0.41632187367E+03  0.42739557757E+03  0.00000000000E+00 0.  1.
         21    1    1    2  503  502 -0.39863289187E+02  0.36189648733E+02  0.89734212641E+02  0.10464703254E+03  0.00000000000E+00 0. -1.
          1    1    1    2  501    0  0.89129394952E+02  0.22478140904E+03  0.70576323814E+03  0.74603785373E+03  0.00000000000E+00 0. -1.
<scales pt_clust_5="13000.00000" pt_clust_6="13000.00000" pt_clust_7="13000.00000" pt_clust_8="13000.00000" pt_clust_9="53.84025" pt_clust_10="213.38260"></scales>
<clustering>
<clus scale="   53.840">  2  9  1 -1</clus>
<clus scale="   81.282">  5  6 -1 -1</clus>
<clus scale="   91.385">  7  8 -1 -1</clus>
<clus scale="  141.436">  1  7  2 -1</clus>
<clus scale="  213.383">  2 10  1 -1</clus>
<clus scale="   53.840">  2  5  1 -1</clus>
</clustering>
</event>
<event>
10    4  0.7204077E-005  0.2323799E+03  0.7546771E-02  0.1158874E+00
         21   -1    0    0  501  502  0.00000000000E+00  0.00000000000E+00  0.21496410735E+03  0.21496410735E+03  0.00000000000E+00 0.  1.
          2   -1    0    0  503    0 -0.00000000000E+00 -0.00000000000E+00 -0.96257414471E+03  0.96257414471E+03  0.00000000000E+00 0. -1.
         24    2    1    2    0    0 -0.25761071803E+02 -0.58702047541E+02 -0.17267209437E+03  0.20098588445E+03  0.80436996279E+02 0.  0.
         23    2    1    2    0    0  0.56854550861E+02 -0.49958739565E+02 -0.27666274232E+03  0.30082381936E+03  0.90688376837E+02 0.  0.
        -13    1    3    3    0    0  0.25052606841E+02 -0.41533522473E+02 -0.93893634740E+02  0.10568198164E+03  0.00000000000E+00 0.  1.
         14    1    3    3    0    0 -0.50813678644E+02 -0.17168525067E+02 -0.78778459625E+02  0.95303902812E+02  0.00000000000E+00 0. -1.
        -11    1    4    4    0    0  0.79257260122E+02 -0.26362575970E+02 -0.17178955526E+03  0.19101923985E+03  0.00000000000E+00 0.  1.
         11    1    4    4    0    0 -0.22402709261E+02 -0.23596163596E+02 -0.10487318706E+03  0.10980457951E+03  0.00000000000E+00 0. -1.
         21    1    1    2  503  502  0.90290777694E+02  0.23191621896E+03  0.78647351381E+02  0.26100376057E+03  0.00000000000E+00 0.  1.
          1    1    1    2  501    0 -0.12138425675E+03 -0.12325543186E+03 -0.37692255205E+03  0.41472478768E+03  0.00000000000E+00 0. -1.
<scales pt_clust_5="13000.00000" pt_clust_6="13000.00000" pt_clust_7="13000.00000" pt_clust_8="13000.00000" pt_clust_9="13000.00000" pt_clust_10="232.37991"></scales>
<clustering>
<clus scale="   80.437">  5  6 -1 -1</clus>
<clus scale="   90.688">  7  8 -1 -1</clus>
<clus scale="  102.858">  2  5  1 -1</clus>
<clus scale="  124.960">  2  7  1 -1</clus>
<clus scale="  232.380">  2 10  1 -1</clus>
<clus scale="  232.380">  1  5  2 -1</clus>
</clustering>
</event>
<event>
10    4  0.7204077E-005  0.1994736E+03  0.7546771E-02  0.1165486E+00
         21   -1    0    0  501  502  0.00000000000E+00  0.00000000000E+00  0.20120808273E+03  0.20120808273E+03  0.00000000000E+00 0. -1.
          2   -1    0    0  503    0 -0.00000000000E+00 -0.00000000000E+00 -0.93969578953E+03  0.93969578953E+03  0.00000000000E+00 0. -1.
         24    2    1    2    0    0 -0.12432305803E+03 -0.29476073516E+02 -0.68217686303E+03  0.69875625397E+03  0.81055341242E+02 0.  0.
         23    2    1    2    0    0 -0.17129501724E+02 -0.15163708614E+03  0.11428886697E+02  0.17989356970E+03  0.94571936885E+02 0.  0.
        -13    1    3    3    0    0 -0.15749333870E+02  0.23535391284E+02 -0.88912875402E+02  0.93313748036E+02  0.00000000000E+00 0.  1.
         14    1    3    3    0    0 -0.10857372416E+03 -0.53011464800E+02 -0.59326398763E+03  0.60544250594E+03  0.00000000000E+00 0. -1.
        -13    1    4    4    0    0 -0.36073400331E+02 -0.12304877814E+03 -0.24144384126E+02  0.13048081582E+03  0.00000000000E+00 0. -1.
         13    1    4    4    0    0  0.18943898607E+02 -0.28588308001E+02  0.35573270823E+02  0.49412753879E+02  0.00000000000E+00 0.  1.
         21    1    1    2  503  502  0.22451479033E+02 -0.99516767413E+01 -0.21104104928E+02  0.32380364815E+02  0.00000000000E+00 0. -1.
          1    1    1    2  501    0  0.11900108072E+03  0.19106483639E+03 -0.46635625542E+02  0.22987368377E+03  0.00000000000E+00 0. -1.
<scales pt_clust_5="13000.00000" pt_clust_6="13000.00000" pt_clust_7="13000.00000" pt_clust_8="13000.00000" pt_clust_9="24.55819" pt_clust_10="175.62996"></scales>
<clustering>
<clus scale="   24.558">  2  9  1 -1</clus>
<clus scale="   81.055">  5  6 -1 -1</clus>
<clus scale="   94.572">  7  8 -1 -1</clus>
<clus scale="  139.505">  2  5  1 -1</clus>
<clus scale="  175.630">  1 10  2 -1</clus>
<clus scale="  175.630">  1  5  2 -1</clus>
</clustering>
</event>
<event>
10    4  0.7204077E-005  0.2056675E+03  0.7546771E-02  0.1146243E+00
          2   -1    0    0  502    0 -0.00000000000E+00  0.00000000000E+00  0.24763019639E+04  0.24763019639E+04  0.00000000000E+00 0. -1.
         21   -1    0    0  503  502  0.00000000000E+00 -0.00000000000E+00 -0.55395812090E+02  0.55395812090E+02  0.00000000000E+00 0.  1.
         24    2    1    2    0    0 -0.44819979943E+02  0.15387461304E+03  0.68194977416E+03  0.70487633743E+03  0.78159640845E+02 0.  0.
         23    2    1    2    0    0 -0.11173481882E+03 -0.25237856736E+03  0.78401770459E+03  0.83625812112E+03  0.92001483819E+02 0.  0.
        -13    1    3    3    0    0 -0.46520568037E+02  0.42151860429E+02  0.17976383306E+03  0.19041002669E+03  0.00000000000E+00 0.  1.
         14    1    3    3    0    0  0.17005880937E+01  0.11172275261E+03  0.50218594109E+03  0.51446631074E+03  0.00000000000E+00 0. -1.
        -11    1    4    4    0    0 -0.10351492792E+03 -0.12114209109E+03  0.44031561955E+03  0.46826124264E+03  0.00000000000E+00 0.  1.
         11    1    4    4    0    0 -0.82198908920E+01 -0.13123647626E+03  0.34370208505E+03  0.36799687848E+03  0.00000000000E+00 0. -1.
         21    1    1    2  503  501  0.25251488476E+01  0.53644951960E+02  0.56645526287E+02  0.78056856815E+02  0.00000000000E+00 0. -1.
          1    1    1    2  501    0  0.15402964991E+03  0.44859002358E+02  0.89829314680E+03  0.91250646065E+03  0.00000000000E+00 0. -1.
<scales pt_clust_5="13000.00000" pt_clust_6="13000.00000" pt_clust_7="13000.00000" pt_clust_8="13000.00000" pt_clust_9="53.70435" pt_clust_10="163.39975"></scales>
<clustering>
<clus scale="   53.704">  2  9  1 -1</clus>
<clus scale="   78.160">  5  6 -1 -1</clus>
<clus scale="   92.001">  7  8 -1 -1</clus>
<clus scale="  163.400">  2 10  1 -1</clus>
<clus scale="  199.859">  1  5  2 -1</clus>
<clus scale="   53.704">  2  5  1 -1</clus>
</clustering>
</event>
<event>
10    4  0.7204077E-005  0.1602313E+03  0.7546771E-02  0.1208772E+00
         -1   -1    0    0    0  501 -0.00000000000E+00  0.00000000000E+00  0.17691325024E+03  0.17691325024E+03  0.00000000000E+00 0.  1.
         21   -1    0    0  503  502  0.00000000000E+00 -0.00000000000E+00 -0.52162481463E+03  0.52162481463E+03  0.00000000000E+00 0.  1.
         23    2    1    2    0    0 -0.42253696658E+02  0.39906936666E+01 -0.16272738412E+03  0.19128472002E+03  0.91150107253E+02 0.  0.
         24    2    1    2    0    0 -0.93580039602E+02 -0.14235631620E+02  0.10875651296E+03  0.16627794856E+03  0.82828135602E+02 0.  0.
        -13    1    4    4    0    0 -0.95343121753E+02 -0.36703229979E+02  0.96918663897E+02  0.14082139528E+03  0.00000000000E+00 0.  1.
         14    1    4    4    0    0  0.17630821509E+01  0.22467598359E+02  0.11837849065E+02  0.25456553285E+02  0.00000000000E+00 0. -1.
        -13    1    3    3    0    0 -0.64244982553E+02  0.25861247812E+02 -0.10566305405E+03  0.12633646708E+03  0.00000000000E+00 0.  1.
         13    1    3    3    0    0  0.21991285895E+02 -0.21870554146E+02 -0.57064330065E+02  0.64948252938E+02  0.00000000000E+00 0. -1.
         21    1    1    2  503  501 -0.15147735732E+02 -0.17663567389E+02 -0.25664562537E+02  0.34642824379E+02  0.00000000000E+00 0.  1.
         -2    1    1    2    0  502  0.15098147199E+03  0.27908505342E+02 -0.26507613069E+03  0.30633257192E+03  0.00000000000E+00 0.  1.
<scales pt_clust_5="13000.00000" pt_clust_6="13000.00000" pt_clust_7="13000.00000" pt_clust_8="13000.00000" pt_clust_9="23.26920" pt_clust_10="137.16255"></scales>
<clustering>
<clus scale="   23.269">  2  9  1 -1</clus>
<clus scale="   82.828">  5  6 -1 -1</clus>
<clus scale="   91.150">  7  8 -1 -1</clus>
<clus scale="  102.908">  1  7  2 -1</clus>
<clus scale="  137.163">  2 10  1 -1</clus>
<clus scale="   23.269">  2  5  1 -1</clus>
</clustering>
</event>
<event>
10    4  0.7204077E-005  0.3766034E+03  0.7546771E-02  0.1089574E+00
          2   -1    0    0  503    0 -0.00000000000E+00  0.00000000000E+00  0.12744245600E+04  0.12744245600E+04  0.00000000000E+00 0. -1.
         21   -1    0    0  501  502  0.00000000000E+00 -0.00000000000E+00 -0.31211573030E+03  0.31211573030E+03  0.00000000000E+00 0. -1.
         23    2    1    2    0    0  0.40481427924E+02  0.83036840177E+02  0.29723854381E+03  0.32464460578E+03  0.92246979916E+02 0.  0.
         24    2    1    2    0    0 -0.36205908655E+03  0.95457425637E+02  0.63155066076E+03  0.73783267021E+03  0.73088370262E+02 0.  0.
        -11    1    4    4    0    0 -0.13777045751E+03  0.61233109066E+02  0.20219023741E+03  0.25221238017E+03  0.00000000000E+00 0.  1.
         12    1    4    4    0    0 -0.22428862904E+03  0.34224316571E+02  0.42936042335E+03  0.48562029004E+03  0.00000000000E+00 0. -1.
        -13    1    3    3    0    0  0.54605775448E+02  0.50550988450E+02  0.10222721859E+03  0.12644207119E+03  0.00000000000E+00 0.  1.
         13    1    3    3    0    0 -0.14124347524E+02  0.32485851727E+02  0.19501132522E+03  0.19820253460E+03  0.00000000000E+00 0. -1.
         21    1    1    2  503  502  0.48773274572E+02  0.11247531253E+03  0.24992745555E+02  0.12511660790E+03  0.00000000000E+00 0. -1.
          1    1    1    2  501    0  0.27280438405E+03 -0.29096957834E+03  0.85268795289E+01  0.39894640637E+03  0.00000000000E+00 0. -1.
<scales pt_clust_5="13000.00000" pt_clust_6="13000.00000" pt_clust_7="13000.00000" pt_clust_8="13000.00000" pt_clust_9="122.59498" pt_clust_10="369.44306"></scales>
<clustering>
<clus scale="   73.088">  5  6 -1 -1</clus>
<clus scale="   92.247">  7  8 -1 -1</clus>
<clus scale="  122.595">  2  9  1 -1</clus>
<clus scale="  135.158">  1  7  2 -1</clus>
<clus scale="  369.443">  2 10  1 -1</clus>
<clus scale="  122.595">  2  5  1 -1</clus>
</clustering>
</event>
<event>
10    4  0.7204077E-005  0.1823785E+03  0.7546771E-02  0.1166902E+00
          2   -1    0    0  502    0 -0.00000000000E+00  0.00000000000E+00  0.68893709025E+03  0.68893709025E+03  0.00000000000E+00 0. -1.
         21   -1    0    0  503  502  0.00000000000E+00 -0.00000000000E+00 -0.12157464565E+03  0.12157464565E+03  0.00000000000E+00 0.  1.
         23    2    1    2    0    0 -0.16266101723E+03 -0.27135609152E+02  0.49745433172E+03  0.53218437473E+03  0.92544307011E+02 0.  0.
         24    2    1    2    0    0  0.12733251611E+03 -0.36885731187E+02 -0.48771289116E+01  0.15528248975E+03  0.80713929491E+02 0.  0.
        -13    1    4    4    0    0  0.59583360993E+02  0.23218233195E+02 -0.92332542205E+01  0.64610496388E+02  0.00000000000E+00 0.  1.
         14    1    4    4    0    0  0.67749155114E+02 -0.60103964382E+02  0.43561253088E+01  0.90671993365E+02  0.00000000000E+00 0. -1.
        -11    1    3    3    0    0 -0.55570033636E+02 -0.54636425342E+02  0.18498461807E+03  0.20072985960E+03  0.00000000000E+00 0.  1.
         11    1    3    3    0    0 -0.10709098359E+03  0.27500816190E+02  0.31246971365E+03  0.33145451514E+03  0.00000000000E+00 0. -1.
         21    1    1    2  503  501 -0.93583306476E+01  0.21957000885E+02 -0.28995469301E+01  0.24043618961E+02  0.00000000000E+00 0. -1.
          1    1    1    2  501    0  0.44686831766E+02  0.42064339454E+02  0.77684788728E+02  0.99001252451E+02  0.00000000000E+00 0. -1.
<scales pt_clust_5="13000.00000" pt_clust_6="13000.00000" pt_clust_7="13000.00000" pt_clust_8="13000.00000" pt_clust_9="23.86814" pt_clust_10="62.22157"></scales>
<clustering>
<clus scale="   23.868">  2  9  1 -1</clus>
<clus scale="   62.222">  2 10  1 -1</clus>
<clus scale="   80.714">  5  6 -1 -1</clus>
<clus scale="   92.544">  7  8 -1 -1</clus>
<clus scale="  176.670">  2  5  1 -1</clus>
<clus scale="   23.868">  2  5  1 -1</clus>
</clustering>
</event>
<event>
10    4  0.7204077E-005  0.1809319E+03  0.7546771E-02  0.1167152E+00
          2   -1    0    0  503    0 -0.00000000000E+00  0.00000000000E+00  0.96461193019E+03  0.96461193019E+03  0.00000000000E+00 0. -1.
         21   -1    0    0  501  502  0.00000000000E+00 -0.00000000000E+00 -0.10622379875E+03  0.10622379875E+03  0.00000000000E+00 0.  1.
         24    2    1    2    0    0 -0.85702736986E+02 -0.12330279772E+03  0.31109859288E+03  0.35488600912E+03  0.81321620280E+02 0.  0.
         23    2    1    2    0    0  0.50325374548E+02  0.19182962198E+03  0.12207031333E+03  0.24741966344E+03  0.83570815873E+02 0.  0.
        -11    1    3    3    0    0 -0.71043080195E+02 -0.52847594298E+02  0.23003721413E+03  0.24648956844E+03  0.00000000000E+00 0.  1.
         12    1    3    3    0    0 -0.14659656791E+02 -0.70455203424E+02  0.81061378750E+02  0.10839644068E+03  0.00000000000E+00 0. -1.
        -13    1    4    4    0    0 -0.70748166456E+01  0.75689762104E+02  0.11073323822E+02  0.76821947505E+02  0.00000000000E+00 0.  1.
         13    1    4    4    0    0  0.57400191194E+02  0.11613985988E+03  0.11099698951E+03  0.17059771593E+03  0.00000000000E+00 0. -1.
         21    1    1    2  503  502 -0.23980816450E+02  0.13030989447E+02 -0.40294525166E+01  0.27588452859E+02  0.00000000000E+00 0.  1.
          1    1    1    2  501    0  0.59358178887E+02 -0.81557813708E+02  0.42924867774E+03  0.44094160352E+03  0.00000000000E+00 0. -1.
<scales pt_clust_5="13000.00000" pt_clust_6="13000.00000" pt_clust_7="13000.00000" pt_clust_8="13000.00000" pt_clust_9="27.29260" pt_clust_10="99.28072"></scales>
<clustering>
<clus scale="   27.293">  2  9  1 -1</clus>
<clus scale="   81.322">  5  6 -1 -1</clus>
<clus scale="   83.571">  7  8 -1 -1</clus>
<clus scale="   99.281">  2 10  1 -1</clus>
<clus scale="  179.904">  1  5  2 -1</clus>
<clus scale="   27.293">  2  5  1 -1</clus>
</clustering>
</event>
<event>
10    4  0.7204077E-005  0.1836932E+03  0.7546771E-02  0.1165648E+00
          2   -1    0    0  503    0 -0.00000000000E+00  0.00000000000E+00  0.10527605757E+04  0.10527605757E+04  0.00000000000E+00 0. -1.
         21   -1    0    0  501  502  0.00000000000E+00 -0.00000000000E+00 -0.13659330964E+03  0.13659330964E+03  0.00000000000E+00 0.  1.
         23    2    1    2    0    0 -0.14691197918E+03 -0.64407505171E+02  0.82364791681E+03  0.84318056139E+03  0.82620287420E+02 0.  0.
         24    2    1    2    0    0  0.11936499700E+03  0.50024493342E+02 -0.34381272970E+02  0.16379525856E+03  0.94320529851E+02 0.  0.
        -11    1    4    4    0    0  0.11498990418E+03  0.14791765946E+02 -0.23241083930E+01  0.11596066524E+03  0.00000000000E+00 0.  1.
         12    1    4    4    0    0  0.43750928213E+01  0.35232727396E+02 -0.32057164577E+02  0.47834593316E+02  0.00000000000E+00 0. -1.
        -11    1    3    3    0    0 -0.88640496402E+02 -0.79465986293E+02  0.59125410527E+03  0.60311972076E+03  0.00000000000E+00 0. -1.
         11    1    3    3    0    0 -0.58271482778E+02  0.15058481122E+02  0.23239381154E+03  0.24006084062E+03  0.00000000000E+00 0.  1.
         21    1    1    2  503  502 -0.86280128631E+01 -0.53183580591E+02  0.44876146466E+02  0.70119928494E+02  0.00000000000E+00 0. -1.
          1    1    1    2  501    0  0.36174995038E+02  0.67566592419E+02  0.82024475787E+02  0.11225813692E+03  0.00000000000E+00 0. -1.
<scales pt_clust_5="13000.00000" pt_clust_6="13000.00000" pt_clust_7="13000.00000" pt_clust_8="13000.00000" pt_clust_9="53.87890" pt_clust_10="70.45969"></scales>
<clustering>
<clus scale="   53.879">  2  9  1 -1</clus>
<clus scale="   70.460">  2 10  1 -1</clus>
<clus scale="   82.620">  7  8 -1 -1</clus>
<clus scale="   94.321">  5  6 -1 -1</clus>
<clus scale="  177.969">  1  7  2 -1</clus>
<clus scale="   53.879">  2  5  1 -1</clus>
</clustering>
</event>
<event>
10    4  0.7204077E-005  0.1225686E+03  0.7546771E-02  0.1242288E+00
         21   -1    0    0  501  502  0.00000000000E+00  0.00000000000E+00  0.20865972813E+03  0.20865972813E+03  0.00000000000E+00 0.  1.
          2   -1    0    0  503    0 -0.00000000000E+00 -0.00000000000E+00 -0.84897680433E+03  0.84897680433E+03  0.00000000000E+00 0. -1.
         24    2    1    2    0    0  0.93516383781E+02  0.34928808541E+02 -0.64298766612E+03  0.65573250226E+03  0.81158117481E+02 0.  0.
         23    2    1    2    0    0 -0.31390032293E+02 -0.16730576737E+02 -0.14601782004E+03  0.17633101486E+03  0.92228936378E+02 0.  0.
        -13    1    3    3    0    0  0.42899584014E+02  0.51907910492E+02 -0.24158706583E+03  0.25079696142E+03  0.00000000000E+00 0.  1.
         14    1    3    3    0    0  0.50616799767E+02 -0.16979101951E+02 -0.40140060030E+03  0.40493554085E+03  0.00000000000E+00 0. -1.
        -13    1    4    4    0    0 -0.18988820263E+02 -0.38740009460E+02 -0.19552842528E+02  0.47367470683E+02  0.00000000000E+00 0.  1.
         13    1    4    4    0    0 -0.12401212030E+02  0.22009432723E+02 -0.12646497751E+03  0.12896354417E+03  0.00000000000E+00 0. -1.
         21    1    1    2  503  502 -0.34627199034E+02  0.15497820259E+01  0.17766238228E+03  0.18101206262E+03  0.00000000000E+00 0.  1.
          1    1    1    2  501    0 -0.27499152454E+02 -0.19748013829E+02 -0.28973972312E+02  0.44560952721E+02  0.00000000000E+00 0. -1.
<scales pt_clust_5="13000.00000" pt_clust_6="13000.00000" pt_clust_7="13000.00000" pt_clust_8="13000.00000" pt_clust_9="61.32511" pt_clust_10="33.85541"></scales>
<clustering>
<clus scale="   33.855">  1 10  2 -1</clus>
<clus scale="   61.325">  1  9  2 -1</clus>
<clus scale="   81.158">  5  6 -1 -1</clus>
<clus scale="   92.229">  7  8 -1 -1</clus>
<clus scale="  114.471">  2  5  1 -1</clus>
<clus scale="   33.855">  1  5  2 -1</clus>
</clustering>
</event>
<event>
10    4  0.7204077E-005  0.1669327E+03  0.7546771E-02  0.1181142E+00
          2   -1    0    0  502    0 -0.00000000000E+00  0.00000000000E+00  0.12078800706E+04  0.12078800706E+04  0.00000000000E+00 0. -1.
         21   -1    0    0  503  502  0.00000000000E+00 -0.00000000000E+00 -0.86162623999E+02  0.86162623999E+02  0.00000000000E+00 0. -1.
         24    2    1    2    0    0 -0.86663783639E+02  0.13906898539E+03  0.91388749894E+03  0.93278283001E+03  0.89680840463E+02 0.  0.
         23    2    1    2    0    0 -0.36900309587E+02 -0.79404861673E+02  0.70813196284E+02  0.14370970245E+03  0.89281604511E+02 0.  0.
        -13    1    3    3    0    0 -0.17441997951E+02  0.34598555714E+02  0.73357882542E+02  0.82961812185E+02  0.00000000000E+00 0.  1.
         14    1    3    3    0    0 -0.69221785688E+02  0.10447042968E+03  0.84052961640E+03  0.84982101782E+03  0.00000000000E+00 0. -1.
        -13    1    4    4    0    0  0.14465229014E+02 -0.18992983772E+02 -0.13938852597E+02  0.27645395543E+02  0.00000000000E+00 0.  1.
         13    1    4    4    0    0 -0.51365538601E+02 -0.60411877901E+02  0.84752048881E+02  0.11606430690E+03  0.00000000000E+00 0. -1.
         21    1    1    2  503  501  0.30603690280E+02 -0.25590381242E+02 -0.92244990011E+01  0.40945632889E+02  0.00000000000E+00 0. -1.
          1    1    1    2  501    0  0.92960402946E+02 -0.34073742475E+02  0.14624125038E+03  0.17660452926E+03  0.00000000000E+00 0. -1.
<scales pt_clust_5="13000.00000" pt_clust_6="13000.00000" pt_clust_7="13000.00000" pt_clust_8="13000.00000" pt_clust_9="39.89303" pt_clust_10="108.39164"></scales>
<clustering>
<clus scale="   39.893">  2  9  1 -1</clus>
<clus scale="   89.282">  7  8 -1 -1</clus>
<clus scale="   89.681">  5  6 -1 -1</clus>
<clus scale="  108.392">  2 10  1 -1</clus>
<clus scale="  166.719">  2  7  1 -1</clus>
<clus scale="   39.893">  2  5  1 -1</clus>
</clustering>
</event>
<event>
10    4  0.7204077E-005  0.3504770E+03  0.7546771E-02  0.1062419E+00
          2   -1    0    0  502    0 -0.00000000000E+00  0.00000000000E+00  0.24674802132E+04  0.24674802132E+04  0.00000000000E+00 0. -1.
         21   -1    0    0  503  502  0.00000000000E+00 -0.00000000000E+00 -0.73308207692E+02  0.73308207692E+02  0.00000000000E+00 0. -1.
         24    2    1    2    0    0 -0.36414643739E+02  0.78390564008E+02  0.59458523325E+03  0.60624584873E+03  0.80816599111E+02 0.  0.
         23    2    1    2    0    0 -0.19135335362E+03  0.76311958306E+02  0.12724427840E+04  0.12921800261E+04  0.90437605535E+02 0.  0.
        -13    1    3    3    0    0 -0.49095346720E+02  0.23398659537E+02  0.18621519949E+03  0.19399471864E+03  0.00000000000E+00 0.  1.
         14    1    3    3    0    0  0.12680702981E+02  0.54991904471E+02  0.40837003376E+03  0.41225113009E+03  0.00000000000E+00 0. -1.
        -13    1    4    4    0    0 -0.76122768286E+00  0.27656894094E+02  0.12804263475E+03  0.13099770827E+03  0.00000000000E+00 0.  1.
         13    1    4    4    0    0 -0.19059212593E+03  0.48655064212E+02  0.11444001492E+04  0.11611823178E+04  0.00000000000E+00 0. -1.
         21    1    1    2  503  501 -0.25932311475E+02  0.14478768976E+02 -0.39397309515E+01  0.29960657694E+02  0.00000000000E+00 0. -1.
          1    1    1    2  501    0  0.25370030883E+03 -0.16918129129E+03  0.53108371924E+03  0.61240188836E+03  0.00000000000E+00 0. -1.
<scales pt_clust_5="13000.00000" pt_clust_6="13000.00000" pt_clust_7="13000.00000" pt_clust_8="13000.00000" pt_clust_9="29.70050" pt_clust_10="283.58082"></scales>
<clustering>
<clus scale="   29.700">  2  9  1 -1</clus>
<clus scale="   80.817">  5  6 -1 -1</clus>
<clus scale="   90.438">  7  8 -1 -1</clus>
<clus scale="  110.666">  5  7 -1 -1</clus>
<clus scale="  283.581">  2 10  1 -1</clus>
<clus scale="   29.700">  2  5  1 -1</clus>
</clustering>
</event>
<event>
10    4  0.7204077E-005  0.2163804E+03  0.7546771E-02  0.1160307E+00
         -3   -1    0    0    0  501 -0.00000000000E+00  0.00000000000E+00  0.61115998611E+03  0.61115998611E+03  0.00000000000E+00 0.  1.
         21   -1    0    0  503  502  0.00000000000E+00 -0.00000000000E+00 -0.41180295992E+03  0.41180295992E+03  0.00000000000E+00 0.  1.
         24    2    1    2    0    0  0.19154981870E+01 -0.96953181268E+02 -0.70879519366E+02  0.14458459346E+03  0.80481115231E+02 0.  0.
         23    2    1    2    0    0  0.99643175694E+02  0.25637455093E+03  0.48688797399E+03  0.56672304680E+03  0.91969776180E+02 0.  0.
        -11    1    3    3    0    0  0.36914870724E+01 -0.10726314503E+03 -0.44463478329E+02  0.11617233003E+03  0.00000000000E+00 0.  1.
         12    1    3    3    0    0 -0.17759888854E+01  0.10309963762E+02 -0.26416041037E+02  0.28412263433E+02  0.00000000000E+00 0. -1.
        -13    1    4    4    0    0  0.62350516150E+02  0.18238843038E+03  0.24944335812E+03  0.31523818822E+03  0.00000000000E+00 0.  1.
         13    1    4    4    0    0  0.37292659544E+02  0.73986120546E+02  0.23744461587E+03  0.25148485858E+03  0.00000000000E+00 0. -1.
         21    1    1    2  503  501 -0.19622536908E+02  0.12021416968E+02 -0.63697593481E+02  0.67726965352E+02  0.00000000000E+00 0.  1.
         -4    1    1    2    0  502 -0.81936136973E+02 -0.17144278663E+03 -0.15295383495E+03  0.24392834041E+03  0.00000000000E+00 0.  1.
<scales pt_clust_5="13000.00000" pt_clust_6="13000.00000" pt_clust_7="13000.00000" pt_clust_8="13000.00000" pt_clust_9="23.01214" pt_clust_10="195.86229"></scales>
<clustering>
<clus scale="   23.012">  2  9  1 -1</clus>
<clus scale="   80.481">  5  6 -1 -1</clus>
<clus scale="   91.970">  7  8 -1 -1</clus>
<clus scale="  123.220">  1  5  2 -1</clus>
<clus scale="  195.862">  2 10  1 -1</clus>
<clus scale="   23.012">  2  5  1 -1</clus>
</clustering>
</event>
<event>
10    4  0.7204077E-005  0.1370040E+03  0.7546771E-02  0.1219057E+00
         21   -1    0    0  501  502  0.00000000000E+00  0.00000000000E+00  0.13985082037E+03  0.13985082037E+03  0.00000000000E+00 0. -1.
          4   -1    0    0  503    0 -0.00000000000E+00 -0.00000000000E+00 -0.57832216461E+03  0.57832216461E+03  0.00000000000E+00 0. -1.
         23    2    1    2    0    0 -0.81689319009E+02 -0.79820993022E+02 -0.48199703395E+03  0.50327133226E+03  0.88973913977E+02 0.  0.
         24    2    1    2    0    0  0.12611173775E+01  0.47416983231E+02  0.43427081669E+02  0.10392292256E+03  0.81633949406E+02 0.  0.
        -13    1    4    4    0    0  0.28161037292E+02 -0.46249165023E+00  0.39968988131E+02  0.48895581928E+02  0.00000000000E+00 0.  1.
         14    1    4    4    0    0 -0.26899919914E+02  0.47879474881E+02  0.34580935380E+01  0.55027340633E+02  0.00000000000E+00 0. -1.
        -11    1    3    3    0    0 -0.34081078196E+02 -0.22740229339E+02 -0.48686028810E+02  0.63631496310E+02  0.00000000000E+00 0.  1.
         11    1    3    3    0    0 -0.47608240813E+02 -0.57080763682E+02 -0.43331100514E+03  0.43963983595E+03  0.00000000000E+00 0. -1.
         21    1    1    2  503  502  0.20661852067E+02 -0.20526171792E+02 -0.93453978055E+01  0.30587126694E+02  0.00000000000E+00 0. -1.
          3    1    1    2  501    0  0.59766349564E+02  0.52930181582E+02  0.94440058468E+01  0.80391603473E+02  0.00000000000E+00 0. -1.
<scales pt_clust_5="13000.00000" pt_clust_6="13000.00000" pt_clust_7="13000.00000" pt_clust_8="13000.00000" pt_clust_9="29.12449" pt_clust_10="81.11276"></scales>
<clustering>
<clus scale="   29.124">  1  9  2 -1</clus>
<clus scale="   81.113">  1 10  2 -1</clus>
<clus scale="   81.634">  5  6 -1 -1</clus>
<clus scale="   88.974">  7  8 -1 -1</clus>
<clus scale="  132.355">  1  5  2 -1</clus>
<clus scale="   29.124">  1  5  2 -1</clus>
</clustering>
</event>
<event>
10    4  0.7204077E-005  0.2650304E+03  0.7546771E-02  0.1143738E+00
         21   -1    0    0  503  502  0.00000000000E+00  0.00000000000E+00  0.42086396267E+03  0.42086396267E+03  0.00000000000E+00 0. -1.
          2   -1    0    0  502    0 -0.00000000000E+00 -0.00000000000E+00 -0.41741268105E+03  0.41741268105E+03  0.00000000000E+00 0. -1.
         24    2    1    2    0    0 -0.33701631255E+01 -0.58834255831E+02 -0.89348734103E+02  0.13446095077E+03  0.81386260127E+02 0.  0.
         23    2    1    2    0    0 -0.17617594135E+03  0.20016550169E+03 -0.13204092201E+03  0.31202940506E+03  0.93932710786E+02 0.  0.
        -13    1    3    3    0    0  0.10216225375E+02 -0.74903352092E+02 -0.52539298403E+02  0.92061182332E+02  0.00000000000E+00 0.  1.
         14    1    3    3    0    0 -0.13586388501E+02  0.16069096261E+02 -0.36809435700E+02  0.42399768439E+02  0.00000000000E+00 0. -1.
        -13    1    4    4    0    0 -0.10159680417E+03  0.16417659069E+03 -0.59744689667E+02  0.20210218082E+03  0.00000000000E+00 0. -1.
         13    1    4    4    0    0 -0.74579137177E+02  0.35988911004E+02 -0.72296232347E+02  0.10992722424E+03  0.00000000000E+00 0.  1.
         21    1    1    2  503  501 -0.16435556032E+02  0.34649446463E+02  0.85716555328E+02  0.93904416827E+02  0.00000000000E+00 0. -1.
          1    1    1    2  501    0  0.19598166051E+03 -0.17598069232E+03  0.13912438241E+03  0.29788187106E+03  0.00000000000E+00 0. -1.
<scales pt_clust_5="13000.00000" pt_clust_6="13000.00000" pt_clust_7="13000.00000" pt_clust_8="13000.00000" pt_clust_9="38.34986" pt_clust_10="247.82607"></scales>
<clustering>
<clus scale="   38.350">  1  9  2 -1</clus>
<clus scale="   81.386">  5  6 -1 -1</clus>
<clus scale="   93.933">  7  8 -1 -1</clus>
<clus scale="   99.162">  2  5  1 -1</clus>
<clus scale="  247.826">  1 10  2 -1</clus>
<clus scale="   38.350">  1  5  2 -1</clus>
</clustering>
</event>
<event>
10    4  0.7204077E-005  0.9558055E+02  0.7546771E-02  0.1295909E+00
          2   -1    0    0  503    0 -0.00000000000E+00  0.00000000000E+00  0.48295722400E+03  0.48295722400E+03  0.00000000000E+00 0. -1.
         21   -1    0    0  501  502  0.00000000000E+00 -0.00000000000E+00 -0.17550099933E+03  0.17550099933E+03  0.00000000000E+00 0.  1.
         23    2    1    2    0    0 -0.25650934800E+02 -0.23213865254E+02  0.40153403410E+03  0.41304733993E+03  0.90452586966E+02 0.  0.
         24    2    1    2    0    0 -0.22351589966E+02  0.29629361465E+02  0.12113116249E+02  0.88683649783E+02  0.79627693165E+02 0.  0.
        -13    1    4    4    0    0 -0.23522060462E+02 -0.65605695004E+01 -0.26304080623E+02  0.35891963696E+02  0.00000000000E+00 0.  1.
         14    1    4    4    0    0  0.11704704959E+01  0.36189930965E+02  0.38417196872E+02  0.52791686088E+02  0.00000000000E+00 0. -1.
        -11    1    3    3    0    0  0.18285048203E+02  0.25340119753E+02  0.13919280934E+03  0.14265729154E+03  0.00000000000E+00 0.  1.
         11    1    3    3    0    0 -0.43935983003E+02 -0.48553985008E+02  0.26234122475E+03  0.27039004839E+03  0.00000000000E+00 0. -1.
         21    1    1    2  503  502  0.85538713544E+01 -0.25310324367E+02 -0.10964287315E+03  0.11285096750E+03  0.00000000000E+00 0.  1.
          1    1    1    2  501    0  0.39448653412E+02  0.18894828156E+02  0.34519474671E+01  0.43876266117E+02  0.00000000000E+00 0. -1.
<scales pt_clust_5="13000.00000" pt_clust_6="13000.00000" pt_clust_7="13000.00000" pt_clust_8="13000.00000" pt_clust_9="26.71668" pt_clust_10="43.53460"></scales>
<clustering>
<clus scale="   26.717">  2  9  1 -1</clus>
<clus scale="   43.535">  2 10  1 -1</clus>
<clus scale="   79.628">  5  6 -1 -1</clus>
<clus scale="   85.408">  2  5  1 -1</clus>
<clus scale="   90.453">  7  8 -1 -1</clus>
<clus scale="   26.717">  2  5  1 -1</clus>
</clustering>
</event>
<event>
10    4  0.7204077E-005  0.1500191E+03  0.7546771E-02  0.1202128E+00
         21   -1    0    0  503  502  0.00000000000E+00  0.00000000000E+00  0.30667252060E+03  0.30667252060E+03  0.00000000000E+00 0. -1.
         -1   -1    0    0    0  501 -0.00000000000E+00 -0.00000000000E+00 -0.29928544234E+03  0.29928544234E+03  0.00000000000E+00 0.  1.
         24    2    1    2    0    0 -0.46443666407E+02  0.11720353304E+03 -0.10749341167E+03  0.18427350667E+03  0.80673473963E+02 0.  0.
         23    2    1    2    0    0  0.19905173023E+02 -0.10403215115E+03  0.51323091449E+02  0.14812354184E+03  0.89931193407E+02 0.  0.
        -11    1    3    3    0    0 -0.20374435223E+02  0.30833090593E+01 -0.49536983623E+02  0.53652000446E+02  0.00000000000E+00 0.  1.
         12    1    3    3    0    0 -0.26069231185E+02  0.11412022398E+03 -0.57956428047E+02  0.13062150622E+03  0.00000000000E+00 0. -1.
        -13    1    4    4    0    0 -0.31721833277E+02 -0.47219122020E+02  0.42174712927E+02  0.70814028280E+02  0.00000000000E+00 0. -1.
         13    1    4    4    0    0  0.51627006300E+02 -0.56813029127E+02  0.91483785218E+01  0.77309513565E+02  0.00000000000E+00 0.  1.
         21    1    1    2  503  501  0.14608833080E+02  0.10227835461E+03  0.10783193450E+03  0.14933856140E+03  0.00000000000E+00 0. -1.
         -2    1    1    2    0  502  0.11929660304E+02 -0.11544973650E+03 -0.44274536013E+02  0.12422235303E+03  0.00000000000E+00 0.  1.
<scales pt_clust_5="13000.00000" pt_clust_6="13000.00000" pt_clust_7="13000.00000" pt_clust_8="13000.00000" pt_clust_9="103.31641" pt_clust_10="93.73416"></scales>
<clustering>
<clus scale="   80.673">  5  6 -1 -1</clus>
<clus scale="   89.931">  7  8 -1 -1</clus>
<clus scale="  103.316">  1  9  2 -1</clus>
<clus scale="   93.734">  1 10  2 -1</clus>
<clus scale="  144.659">  2  5  1 -1</clus>
<clus scale="  103.316">  1  5  2 -1</clus>
</clustering>
</event>
<event>
10    4  0.7204077E-005  0.9767161E+02  0.7546771E-02  0.1291293E+00
         21   -1    0    0  501  502  0.00000000000E+00  0.00000000000E+00  0.22401449180E+02  0.22401449180E+02  0.00000000000E+00 0. -1.
          2   -1    0    0  503    0 -0.00000000000E+00 -0.00000000000E+00 -0.77234608663E+03  0.77234608663E+03  0.00000000000E+00 0. -1.
         24    2    1    2    0    0  0.28171711790E+02  0.48855570997E+01 -0.27814817636E+03  0.29168298154E+03  0.83036375714E+02 0.  0.
         23    2    1    2    0    0 -0.31808846321E+02  0.11328225380E+02 -0.17216257055E+03  0.19901444034E+03  0.93950334599E+02 0.  0.
        -11    1    3    3    0    0 -0.53707052632E+01  0.38487961336E+02 -0.99109095860E+02  0.10645553309E+03  0.00000000000E+00 0.  1.
         12    1    3    3    0    0  0.33542417053E+02 -0.33602404236E+02 -0.17903908050E+03  0.18522744845E+03  0.00000000000E+00 0. -1.
        -11    1    4    4    0    0 -0.61613225640E+02  0.18069673826E+02 -0.14309424352E+03  0.15683961621E+03  0.00000000000E+00 0. -1.
         11    1    4    4    0    0  0.29804379320E+02 -0.67414484462E+01 -0.29068327034E+02  0.42174824130E+02  0.00000000000E+00 0.  1.
         21    1    1    2  503  502 -0.16053875562E+02 -0.25281268733E+02 -0.17131433086E+03  0.17391224634E+03  0.00000000000E+00 0. -1.
          1    1    1    2  501    0  0.19691010092E+02  0.90674862528E+01 -0.12831955967E+03  0.13013786758E+03  0.00000000000E+00 0. -1.
<scales pt_clust_5="13000.00000" pt_clust_6="13000.00000" pt_clust_7="13000.00000" pt_clust_8="13000.00000" pt_clust_9="28.85594" pt_clust_10="21.67846"></scales>
<clustering>
<clus scale="   21.678">  1 10  2 -1</clus>
<clus scale="   28.856">  2  9  1 -1</clus>
<clus scale="   83.036">  5  6 -1 -1</clus>
<clus scale="   87.225">  2  5  1 -1</clus>
<clus scale="   93.950">  7  8 -1 -1</clus>
<clus scale="   21.678">  1  5  2 -1</clus>
</clustering>
</event>
<event>
10    4  0.7204077E-005  0.2805831E+03  0.7546771E-02  0.1109391E+00
         21   -1    0    0  501  502  0.00000000000E+00  0.00000000000E+00  0.12042482411E+04  0.12042482411E+04  0.00000000000E+00 0. -1.
          2   -1    0    0  503    0 -0.00000000000E+00 -0.00000000000E+00 -0.28027852451E+03  0.28027852451E+03  0.00000000000E+00 0. -1.
         23    2    1    2    0    0  0.34811663162E+02 -0.18025487276E+03  0.22676890890E+03  0.30575479540E+03  0.91423114285E+02 0.  0.
         24    2    1    2    0    0 -0.25771110975E+03  0.23259888423E+03  0.48827457550E+03  0.60327447143E+03  0.70786790919E+02 0.  0.
        -13    1    4    4    0    0 -0.25827382675E+02  0.52990292947E+02  0.10783443890E+03  0.12289544766E+03  0.00000000000E+00 0.  1.
         14    1    4    4    0    0 -0.23188372707E+03  0.17960859128E+03  0.38044013660E+03  0.48037902377E+03  0.00000000000E+00 0. -1.
        -13    1    3    3    0    0  0.49304161824E+02 -0.14583389882E+03  0.21886130673E+03  0.26757933030E+03  0.00000000000E+00 0. -1.
         13    1    3    3    0    0 -0.14492498662E+02 -0.34420973935E+02  0.79076021668E+01  0.38175465107E+02  0.00000000000E+00 0.  1.
         21    1    1    2  503  502  0.18327642627E+03 -0.11185801095E+03  0.35384878871E+03  0.41389784768E+03  0.00000000000E+00 0.  1.
          1    1    1    2  501    0  0.39623020316E+02  0.59513999484E+02 -0.14492255647E+03  0.16159965114E+03  0.00000000000E+00 0. -1.
<scales pt_clust_5="13000.00000" pt_clust_6="13000.00000" pt_clust_7="13000.00000" pt_clust_8="13000.00000" pt_clust_9="271.50707" pt_clust_10="71.49759"></scales>
<clustering>
<clus scale="   70.787">  5  6 -1 -1</clus>
<clus scale="   71.498">  1 10  2 -1</clus>
<clus scale="   91.423">  7  8 -1 -1</clus>
<clus scale="  195.327">  2  7  1 -1</clus>
<clus scale="  271.507">  1  9  2 -1</clus>
<clus scale="   71.498">  1  5  2 -1</clus>
</clustering>
</event>
<event>
10    4  0.7204077E-005  0.3190210E+03  0.7546771E-02  0.1099800E+00
         21   -1    0    0  501  502  0.00000000000E+00  0.00000000000E+00  0.12731071834E+03  0.12731071834E+03  0.00000000000E+00 0.  1.
          2   -1    0    0  503    0 -0.00000000000E+00 -0.00000000000E+00 -0.20742536811E+04  0.20742536811E+04  0.00000000000E+00 0. -1.
         23    2    1    2    0    0 -0.91916884904E+02 -0.10923235994E+03 -0.43140330421E+03  0.46268693041E+03  0.87120390876E+02 0.  0.
         24    2    1    2    0    0  0.32829316870E+03  0.57736185490E+02 -0.53137296365E+03  0.63219611732E+03  0.78770759312E+02 0.  0.
        -11    1    4    4    0    0  0.21267470308E+03  0.58193581926E+01 -0.37234911107E+03  0.42884525738E+03  0.00000000000E+00 0.  1.
         12    1    4    4    0    0  0.11561846562E+03  0.51916827298E+02 -0.15902385258E+03  0.20335085994E+03  0.00000000000E+00 0. -1.
        -13    1    3    3    0    0 -0.48335851584E+02 -0.23282267880E+02 -0.26514806231E+03  0.27052155828E+03  0.00000000000E+00 0. -1.
         13    1    3    3    0    0 -0.43581033320E+02 -0.85950092056E+02 -0.16625524190E+03  0.19216537213E+03  0.00000000000E+00 0.  1.
         21    1    1    2  503  502  0.24873367853E+02 -0.42613848043E+02  0.28261768838E+02  0.56862571620E+02  0.00000000000E+00 0. -1.
          1    1    1    2  501    0 -0.26124965165E+03  0.94110022490E+02 -0.10124284637E+04  0.10498187801E+04  0.00000000000E+00 0. -1.
<scales pt_clust_5="13000.00000" pt_clust_6="13000.00000" pt_clust_7="13000.00000" pt_clust_8="13000.00000" pt_clust_9="49.34191" pt_clust_10="309.14345"></scales>
<clustering>
<clus scale="   49.342">  1  9  2 -1</clus>
<clus scale="   78.771">  5  6 -1 -1</clus>
<clus scale="   87.120">  7  8 -1 -1</clus>
<clus scale="  170.081">  2  7  1 -1</clus>
<clus scale="  309.143">  1 10  2 -1</clus>
<clus scale="   49.342">  1  5  2 -1</clus>
</clustering>
</event>
<event>
10    4  0.7204077E-005  0.1146210E+03  0.7546771E-02  0.1260444E+00
          2   -1    0    0  503    0 -0.00000000000E+00  0.00000000000E+00  0.75742651528E+02  0.75742651528E+02  0.00000000000E+00 0. -1.
         21   -1    0    0  501  502  0.00000000000E+00 -0.00000000000E+00 -0.12359341144E+04  0.12359341144E+04  0.00000000000E+00 0.  1.
         24    2    1    2    0    0 -0.78585382343E+01  0.40484863925E+02 -0.19291645678E+02  0.11892116037E+03  0.10986033843E+03 0.  0.
         23    2    1    2    0    0  0.73905571423E+02  0.34947074155E+02 -0.22130242055E+03  0.25315819617E+03  0.91820365225E+02 0.  0.
        -11    1    3    3    0    0  0.38064312049E+02  0.55566681563E+02 -0.13643468054E+01  0.67367717743E+02  0.00000000000E+00 0.  1.
         12    1    3    3    0    0 -0.45922850284E+02 -0.15081817638E+02 -0.17927298873E+02  0.51553442623E+02  0.00000000000E+00 0. -1.
        -13    1    4    4    0    0  0.32435254213E+02  0.61561131005E+02 -0.16022207678E+03  0.17467951355E+03  0.00000000000E+00 0. -1.
         13    1    4    4    0    0  0.41470317210E+02 -0.26614056850E+02 -0.61080343770E+02  0.78478682625E+02  0.00000000000E+00 0.  1.
         21    1    1    2  503  502 -0.98552452944E+02 -0.58154630746E+02 -0.87174725991E+03  0.87922570038E+03  0.00000000000E+00 0.  1.
          1    1    1    2  501    0  0.32505419756E+02 -0.17277307334E+02 -0.47850136737E+02  0.60371709003E+02  0.00000000000E+00 0. -1.
<scales pt_clust_5="13000.00000" pt_clust_6="13000.00000" pt_clust_7="13000.00000" pt_clust_8="13000.00000" pt_clust_9="102.86196" pt_clust_10="36.81181"></scales>
<clustering>
<clus scale="   36.812">  2 10  1 -1</clus>
<clus scale="   91.820">  7  8 -1 -1</clus>
<clus scale="  102.862">  2  9  1 -1</clus>
<clus scale="   97.466">  2  7  1 -1</clus>
<clus scale="  109.860">  5  6 -1 -1</clus>
<clus scale="   36.812">  2  5  1 -1</clus>
</clustering>
</event>
<event>
10    4  0.7204077E-005  0.1854106E+03  0.7546771E-02  0.1192092E+00
         21   -1    0    0  503  502  0.00000000000E+00  0.00000000000E+00  0.29004421550E+03  0.29004421550E+03  0.00000000000E+00 0.  1.
         -1   -1    0    0    0  501 -0.00000000000E+00 -0.00000000000E+00 -0.42068319853E+03  0.42068319853E+03  0.00000000000E+00 0.  1.
         24    2    1    2    0    0 -0.43304285863E+02  0.43037079171E-01 -0.64000493503E+02  0.11487460521E+03  0.84999110156E+02 0.  0.
         23    2    1    2    0    0 -0.99366196059E+02  0.16616231338E+03 -0.18317238476E+03  0.28202346842E+03  0.92203898489E+02 0.  0.
        -11    1    3    3    0    0 -0.27018817736E+01  0.34158844144E+02 -0.48943478904E+02  0.59746053641E+02  0.00000000000E+00 0.  1.
         12    1    3    3    0    0 -0.40602404089E+02 -0.34115807065E+02 -0.15057014599E+02  0.55128551569E+02  0.00000000000E+00 0. -1.
        -13    1    4    4    0    0 -0.51483611926E+02  0.12302935289E+03 -0.67182700542E+02  0.14933284709E+03  0.00000000000E+00 0. -1.
         13    1    4    4    0    0 -0.47882584133E+02  0.43132960489E+02 -0.11598968422E+03  0.13269062133E+03  0.00000000000E+00 0.  1.
         21    1    1    2  503  501  0.33723621187E+02 -0.91060215207E+02  0.14872802817E+03  0.17762114678E+03  0.00000000000E+00 0.  1.
         -2    1    1    2    0  502  0.10894686073E+03 -0.75145135250E+02 -0.32194132933E+02  0.13620819363E+03  0.00000000000E+00 0.  1.
<scales pt_clust_5="13000.00000" pt_clust_6="13000.00000" pt_clust_7="13000.00000" pt_clust_8="13000.00000" pt_clust_9="96.46288" pt_clust_10="160.85869"></scales>
<clustering>
<clus scale="   84.999">  5  6 -1 -1</clus>
<clus scale="   92.204">  7  8 -1 -1</clus>
<clus scale="   95.395">  2  5  1 -1</clus>
<clus scale="   96.463">  1  9  2 -1</clus>
<clus scale="  160.859">  1 10  2 -1</clus>
<clus scale="   96.463">  1  5  2 -1</clus>
</clustering>
</event>
<event>
10    4  0.7204077E-005  0.9249937E+02  0.7546771E-02  0.1302277E+00
         21   -1    0    0  501  502  0.00000000000E+00  0.00000000000E+00  0.14016334478E+03  0.14016334478E+03  0.00000000000E+00 0.  1.
          2   -1    0    0  503    0 -0.00000000000E+00 -0.00000000000E+00 -0.21223085929E+03  0.21223085929E+03  0.00000000000E+00 0. -1.
         23    2    1    2    0    0 -0.15961379633E+02 -0.10528111551E+02 -0.11298645636E+03  0.14585371732E+03  0.90231705964E+02 0.  0.
         24    2    1    2    0    0  0.22100822210E+02  0.16478792697E+02  0.76165930497E+02  0.11474214369E+03  0.81268158696E+02 0.  0.
        -11    1    4    4    0    0  0.62632880800E+01  0.31732780985E+02  0.85075577445E+02  0.91016767929E+02  0.00000000000E+00 0.  1.
         12    1    4    4    0    0  0.15837534130E+02 -0.15253988288E+02 -0.89096469484E+01  0.23725375756E+02  0.00000000000E+00 0. -1.
        -13    1    3    3    0    0 -0.53609609361E+02 -0.21162302152E+01 -0.64808402102E+02  0.84134402174E+02  0.00000000000E+00 0.  1.
         13    1    3    3    0    0  0.37648229729E+02 -0.84118813355E+01 -0.48178054261E+02  0.61719315143E+02  0.00000000000E+00 0. -1.
         21    1    1    2  503  502 -0.35835726364E+02 -0.27918082155E+02 -0.85556529648E+01  0.46225726526E+02  0.00000000000E+00 0.  1.
          1    1    1    2  501    0  0.29696283787E+02  0.21967401008E+02 -0.26691335675E+02  0.45572616536E+02  0.00000000000E+00 0. -1.
<scales pt_clust_5="13000.00000" pt_clust_6="13000.00000" pt_clust_7="13000.00000" pt_clust_8="13000.00000" pt_clust_9="40.10673" pt_clust_10="36.93829"></scales>
<clustering>
<clus scale="   36.938">  1 10  2 -1</clus>
<clus scale="   40.107">  1  9  2 -1</clus>
<clus scale="   81.268">  5  6 -1 -1</clus>
<clus scale="   83.779">  1  5  2 -1</clus>
<clus scale="   90.232">  7  8 -1 -1</clus>
<clus scale="   36.938">  1  5  2 -1</clus>
</clustering>
</event>
<event>
10    4  0.7204077E-005  0.1064402E+03  0.7546771E-02  0.1271507E+00
         -3   -1    0    0    0  501 -0.00000000000E+00  0.00000000000E+00  0.28452960551E+03  0.28452960551E+03  0.00000000000E+00 0.  1.
         21   -1    0    0  503  502  0.00000000000E+00 -0.00000000000E+00 -0.94965930601E+02  0.94965930601E+02  0.00000000000E+00 0.  1.
         23    2    1    2    0    0  0.14925003160E+02 -0.47629156245E+02  0.15986500482E+03  0.19063288809E+03  0.91064735287E+02 0.  0.
         24    2    1    2    0    0  0.41548963119E+01  0.70686134145E+02  0.38940877749E+02  0.11455582132E+03  0.81196376248E+02 0.  0.
        -11    1    4    4    0    0  0.10746411243E+02  0.63916623197E+02  0.61964785155E+02  0.89668582429E+02  0.00000000000E+00 0.  1.
         12    1    4    4    0    0 -0.65915149308E+01  0.67695109486E+01 -0.23023907407E+02  0.24887238896E+02  0.00000000000E+00 0. -1.
        -11    1    3    3    0    0  0.22335259772E+02  0.23193090763E+02  0.58141378760E+02  0.66462043396E+02  0.00000000000E+00 0.  1.
         11    1    3    3    0    0 -0.74102566123E+01 -0.70822247007E+02  0.10172362606E+03  0.12417084470E+03  0.00000000000E+00 0. -1.
         21    1    1    2  503  501  0.66097845121E+01 -0.19317756774E+02 -0.33203434094E+02  0.38978622521E+02  0.00000000000E+00 0.  1.
         -4    1    1    2    0  502 -0.25689683984E+02 -0.37392211268E+01  0.23961226437E+02  0.35328204174E+02  0.00000000000E+00 0.  1.
<scales pt_clust_5="13000.00000" pt_clust_6="13000.00000" pt_clust_7="13000.00000" pt_clust_8="13000.00000" pt_clust_9="20.41727" pt_clust_10="25.67079"></scales>
<clustering>
<clus scale="   20.417">  2  9  1 -1</clus>
<clus scale="   25.671">  2 10  1 -1</clus>
<clus scale="   81.196">  5  6 -1 -1</clus>
<clus scale="   91.065">  7  8 -1 -1</clus>
<clus scale="   98.130">  2  5  1 -1</clus>
<clus scale="   20.417">  2  5  1 -1</clus>
</clustering>
</event>
<event>
10    4  0.7204077E-005  0.2580959E+03  0.7546771E-02  0.1141340E+00
         21   -1    0    0  503  502  0.00000000000E+00  0.00000000000E+00  0.41338252835E+03  0.41338252835E+03  0.00000000000E+00 0. -1.
         -1   -1    0    0    0  501 -0.00000000000E+00 -0.00000000000E+00 -0.32846242719E+03  0.32846242719E+03  0.00000000000E+00 0.  1.
         24    2    1    2    0    0  0.63256235171E+02  0.20417348799E+02  0.13950699453E+03  0.17425006113E+03  0.80514985325E+02 0.  0.
         23    2    1    2    0    0 -0.28508356911E+03 -0.12551538292E+02 -0.76238150014E+01  0.30001286066E+03  0.92300658254E+02 0.  0.
        -13    1    3    3    0    0  0.19872004225E+02  0.41991152758E+02  0.32237937988E+02  0.56545893817E+02  0.00000000000E+00 0.  1.
         14    1    3    3    0    0  0.43384230946E+02 -0.21573803959E+02  0.10726905654E+03  0.11770416732E+03  0.00000000000E+00 0. -1.
        -13    1    4    4    0    0 -0.44930699769E+02  0.31567689873E+02 -0.10077293540E+02  0.55828654567E+02  0.00000000000E+00 0.  1.
         13    1    4    4    0    0 -0.24015286935E+03 -0.44119228165E+02  0.24534785384E+01  0.24418420609E+03  0.00000000000E+00 0. -1.
         21    1    1    2  503  501  0.22942828421E+02  0.31564549548E+02  0.31525047674E+02  0.50164955845E+02  0.00000000000E+00 0. -1.
         -2    1    1    2    0  502  0.19888450552E+03 -0.39430360055E+02 -0.78488126048E+02  0.21741707790E+03  0.00000000000E+00 0.  1.
<scales pt_clust_5="13000.00000" pt_clust_6="13000.00000" pt_clust_7="13000.00000" pt_clust_8="13000.00000" pt_clust_9="39.02171" pt_clust_10="241.02728"></scales>
<clustering>
<clus scale="   39.022">  1  9  2 -1</clus>
<clus scale="   80.515">  5  6 -1 -1</clus>
<clus scale="   92.301">  7  8 -1 -1</clus>
<clus scale="  113.736">  2  5  1 -1</clus>
<clus scale="  241.027">  1 10  2 -1</clus>
<clus scale="   39.022">  1  5  2 -1</clus>
</clustering>
</event>
<event>
10    4  0.7204077E-005  0.1347355E+03  0.7546771E-02  0.1239133E+00
         21   -1    0    0  501  502  0.00000000000E+00  0.00000000000E+00  0.59843685416E+02  0.59843685416E+02  0.00000000000E+00 0.  1.
         -1   -1    0    0    0  501 -0.00000000000E+00 -0.00000000000E+00 -0.79452880962E+03  0.79452880962E+03  0.00000000000E+00 0.  1.
         24    2    1    2    0    0  0.46507558761E+02 -0.50239232673E+01 -0.25699199633E+03  0.27351632026E+03  0.81105477280E+02 0.  0.
         23    2    1    2    0    0  0.64988221737E+02  0.34151004760E+02 -0.38106785417E+03  0.39854502523E+03  0.90750578856E+02 0.  0.
        -13    1    3    3    0    0  0.25589198884E+02  0.71491844987E+01 -0.15388900383E+02  0.30704009405E+02  0.00000000000E+00 0.  1.
         14    1    3    3    0    0  0.20918359878E+02 -0.12173107766E+02 -0.24160309595E+03  0.24281231086E+03  0.00000000000E+00 0. -1.
        -13    1    4    4    0    0  0.42243156610E+02 -0.18448055962E+02 -0.82289609467E+02  0.94320702263E+02  0.00000000000E+00 0.  1.
         13    1    4    4    0    0  0.22745065127E+02  0.52599060722E+02 -0.29877824471E+03  0.30422432297E+03  0.00000000000E+00 0. -1.
         21    1    1    2  503  502 -0.15585463856E+02  0.16323430288E+02  0.15916763011E+02  0.27617103482E+02  0.00000000000E+00 0.  1.
         -2    1    1    2    0  503 -0.95910316643E+02 -0.45450511781E+02 -0.11254203671E+03  0.15469404606E+03  0.00000000000E+00 0.  1.
<scales pt_clust_5="13000.00000" pt_clust_6="13000.00000" pt_clust_7="13000.00000" pt_clust_8="13000.00000" pt_clust_9="22.56903" pt_clust_10="99.58913"></scales>
<clustering>
<clus scale="   22.569">  1  9  2 -1</clus>
<clus scale="   81.105">  5  6 -1 -1</clus>
<clus scale="   90.751">  7  8 -1 -1</clus>
<clus scale="   91.870">  2  5  1 -1</clus>
<clus scale="   99.589">  1 10  2 -1</clus>
<clus scale="   22.569">  1  5  2 -1</clus>
</clustering>
</event>
<event>
10    4  0.7204077E-005  0.1590202E+03  0.7546771E-02  0.1205687E+00
          2   -1    0    0  502    0 -0.00000000000E+00  0.00000000000E+00  0.10740218781E+04  0.10740218781E+04  0.00000000000E+00 0. -1.
         21   -1    0    0  503  502  0.00000000000E+00 -0.00000000000E+00 -0.96382821276E+02  0.96382821276E+02  0.00000000000E+00 0. -1.
         23    2    1    2    0    0  0.42798223408E+02 -0.46062607383E+02  0.21140803454E+03  0.23805901195E+03  0.89583951550E+02 0.  0.
         24    2    1    2    0    0 -0.20347602238E+02 -0.12548670765E+03  0.91060656290E+02  0.17562569674E+03  0.79946253930E+02 0.  0.
        -13    1    4    4    0    0 -0.94754205136E+01 -0.37679381457E+02  0.76714852644E+02  0.85992371738E+02  0.00000000000E+00 0.  1.
         14    1    4    4    0    0 -0.10872181724E+02 -0.87807326191E+02  0.14345803646E+02  0.89633325000E+02  0.00000000000E+00 0. -1.
        -11    1    3    3    0    0  0.60255133925E+02 -0.55927421535E+02  0.12688261947E+03  0.15118781951E+03  0.00000000000E+00 0. -1.
         11    1    3    3    0    0 -0.17456910517E+02  0.98648141523E+01  0.84525415072E+02  0.86871192441E+02  0.00000000000E+00 0.  1.
         21    1    1    2  503  501  0.31528935769E+02 -0.56907401818E+01 -0.19674719245E+02  0.37597245802E+02  0.00000000000E+00 0. -1.
          1    1    1    2  501    0 -0.53979556939E+02  0.17724005521E+03  0.69484508527E+03  0.71912274492E+03  0.00000000000E+00 0. -1.
<scales pt_clust_5="13000.00000" pt_clust_6="13000.00000" pt_clust_7="13000.00000" pt_clust_8="13000.00000" pt_clust_9="32.03839" pt_clust_10="137.46287"></scales>
<clustering>
<clus scale="   32.038">  2  9  1 -1</clus>
<clus scale="   79.946">  5  6 -1 -1</clus>
<clus scale="   89.584">  7  8 -1 -1</clus>
<clus scale="  112.483">  1  7  2 -1</clus>
<clus scale="  137.463">  2 10  1 -1</clus>
<clus scale="   32.038">  2  5  1 -1</clus>
</clustering>
</event>
<event>
10    4  0.7204077E-005  0.2298970E+03  0.7546771E-02  0.1159797E+00
          2   -1    0    0  503    0 -0.00000000000E+00  0.00000000000E+00  0.38450185120E+03  0.38450185120E+03  0.00000000000E+00 0. -1.
         21   -1    0    0  501  502  0.00000000000E+00 -0.00000000000E+00 -0.25128528362E+03  0.25128528362E+03  0.00000000000E+00 0. -1.
         24    2    1    2    0    0 -0.53748723246E+02  0.31646127921E+02  0.72988718645E+02  0.12561981379E+03  0.81009764255E+02 0.  0.
         23    2    1    2    0    0 -0.17221211299E+03 -0.70306982919E+02 -0.40910611002E+02  0.21108234996E+03  0.91005475996E+02 0.  0.
        -13    1    3    3    0    0 -0.54753908963E+02 -0.45740874634E+01  0.70386096230E+02  0.89292302946E+02  0.00000000000E+00 0.  1.
         14    1    3    3    0    0  0.10051857173E+01  0.36220215385E+02  0.26026224154E+01  0.36327510846E+02  0.00000000000E+00 0. -1.
        -11    1    4    4    0    0 -0.13699417921E+03 -0.49582376216E+02 -0.69292336399E+02  0.16132961617E+03  0.00000000000E+00 0. -1.
         11    1    4    4    0    0 -0.35217933779E+02 -0.20724606702E+02  0.28381725397E+02  0.49752733786E+02  0.00000000000E+00 0.  1.
         21    1    1    2  503  502 -0.22888002191E+02  0.10130117637E+02 -0.74003677941E+01  0.26100677599E+02  0.00000000000E+00 0. -1.
          1    1    1    2  501    0  0.24884883843E+03  0.28530737360E+02  0.10853882773E+03  0.27298429348E+03  0.00000000000E+00 0. -1.
<scales pt_clust_5="13000.00000" pt_clust_6="13000.00000" pt_clust_7="13000.00000" pt_clust_8="13000.00000" pt_clust_9="25.02958" pt_clust_10="211.11765"></scales>
<clustering>
<clus scale="   25.030">  2  9  1 -1</clus>
<clus scale="   81.010">  5  6 -1 -1</clus>
<clus scale="   91.005">  7  8 -1 -1</clus>
<clus scale="  103.966">  1  5  2 -1</clus>
<clus scale="  211.118">  2 10  1 -1</clus>
<clus scale="   25.030">  2  5  1 -1</clus>
</clustering>
</event>
<event>
10    4  0.7204077E-005  0.1525779E+03  0.7546771E-02  0.1226048E+00
          4   -1    0    0  502    0 -0.00000000000E+00  0.00000000000E+00  0.43123892286E+03  0.43123892286E+03  0.00000000000E+00 0. -1.
         21   -1    0    0  503  502  0.00000000000E+00 -0.00000000000E+00 -0.16511103778E+03  0.16511103778E+03  0.00000000000E+00 0. -1.
         24    2    1    2    0    0  0.12271859988E+02 -0.12269028653E+02  0.27886886393E+03  0.29089610287E+03  0.80941780229E+02 0.  0.
         23    2    1    2    0    0  0.39318513219E+01  0.13907165250E+03 -0.75402285304E+01  0.16682495385E+03  0.91745987364E+02 0.  0.
        -13    1    3    3    0    0 -0.10561866886E+02 -0.42492908680E+02  0.17298642205E+03  0.17844187439E+03  0.00000000000E+00 0.  1.
         14    1    3    3    0    0  0.22833726874E+02  0.30223880027E+02  0.10588244187E+03  0.11245422848E+03  0.00000000000E+00 0. -1.
        -11    1    4    4    0    0  0.17243864857E+02  0.84579271561E+02 -0.46958305308E+02  0.98265388059E+02  0.00000000000E+00 0. -1.
         11    1    4    4    0    0 -0.13312013535E+02  0.54492380941E+02  0.39418076778E+02  0.68559565794E+02  0.00000000000E+00 0.  1.
         21    1    1    2  503  501 -0.16160385888E+02 -0.17075851209E+02 -0.15899183786E+02  0.28381804235E+02  0.00000000000E+00 0. -1.
          3    1    1    2  501    0 -0.43325422265E-01 -0.10972677264E+03  0.10698433469E+02  0.11024709969E+03  0.00000000000E+00 0. -1.
<scales pt_clust_5="13000.00000" pt_clust_6="13000.00000" pt_clust_7="13000.00000" pt_clust_8="13000.00000" pt_clust_9="23.51048" pt_clust_10="121.91271"></scales>
<clustering>
<clus scale="   23.510">  2  9  1 -1</clus>
<clus scale="   80.942">  5  6 -1 -1</clus>
<clus scale="   82.793">  1  5  2 -1</clus>
<clus scale="   91.746">  7  8 -1 -1</clus>
<clus scale="  121.913">  2 10  1 -1</clus>
<clus scale="   23.510">  2  5  1 -1</clus>
</clustering>
</event>
<event>
10    4  0.7204077E-005  0.1034840E+03  0.7546771E-02  0.1277125E+00
         21   -1    0    0  503  502  0.00000000000E+00  0.00000000000E+00  0.14084575909E+03  0.14084575909E+03  0.00000000000E+00 0. -1.
          2   -1    0    0  502    0 -0.00000000000E+00 -0.00000000000E+00 -0.42182015236E+03  0.42182015236E+03  0.00000000000E+00 0. -1.
         23    2    1    2    0    0 -0.47993692160E+02  0.25743732190E+02 -0.18654085770E+03  0.21464078457E+03  0.91142967782E+02 0.  0.
         24    2    1    2    0    0 -0.15140507515E+02 -0.60676827187E+02  0.32604852371E+02  0.10844999524E+03  0.82385755710E+02 0.  0.
        -13    1    4    4    0    0  0.21381989882E+02 -0.43330009602E+01 -0.14706517713E+02  0.26310569205E+02  0.00000000000E+00 0.  1.
         14    1    4    4    0    0 -0.36522497397E+02 -0.56343826227E+02  0.47311370084E+02  0.82139426034E+02  0.00000000000E+00 0. -1.
        -11    1    3    3    0    0 -0.39150876194E+02  0.48709700495E+02 -0.63241895809E+02  0.88909861177E+02  0.00000000000E+00 0.  1.
         11    1    3    3    0    0 -0.88428159663E+01 -0.22965968304E+02 -0.12329896189E+03  0.12573092340E+03  0.00000000000E+00 0. -1.
         21    1    1    2  503  501  0.11820515021E+02  0.17089599789E+02  0.50129083970E+02  0.54265127439E+02  0.00000000000E+00 0.  1.
          1    1    1    2  501    0  0.51313684655E+02  0.17843495208E+02 -0.17716747191E+03  0.18531000420E+03  0.00000000000E+00 0. -1.
<scales pt_clust_5="13000.00000" pt_clust_6="13000.00000" pt_clust_7="13000.00000" pt_clust_8="13000.00000" pt_clust_9="20.77929" pt_clust_10="55.10100"></scales>
<clustering>
<clus scale="   20.779">  1  9  2 -1</clus>
<clus scale="   55.101">  1 10  2 -1</clus>
<clus scale="   82.386">  5  6 -1 -1</clus>
<clus scale="   91.143">  7  8 -1 -1</clus>
<clus scale="   95.861">  1  5  2 -1</clus>
<clus scale="   20.779">  1  5  2 -1</clus>
</clustering>
</event>
<event>
10    4  0.7593756E-005  0.2497666E+03  0.7546771E-02  0.1160666E+00
          2   -1    0    0  503    0 -0.00000000000E+00  0.00000000000E+00  0.49814746756E+03  0.49814746756E+03  0.00000000000E+00 0. -1.
         21   -1    0    0  501  502  0.00000000000E+00 -0.00000000000E+00 -0.19636993142E+03  0.19636993142E+03  0.00000000000E+00 0. -1.
         24    2    1    2    0    0  0.14966018077E+02 -0.16723892043E+02  0.91199533222E+02  0.12116938993E+03  0.76557141628E+02 0.  0.
         23    2    1    2    0    0 -0.21152999085E+03  0.67492829470E+02  0.12251941414E+02  0.24172296986E+03  0.94761094499E+02 0.  0.
        -11    1    3    3    0    0  0.28099427279E+02  0.20568963989E+02  0.21181094100E+02  0.40759033848E+02  0.00000000000E+00 0.  1.
         12    1    3    3    0    0 -0.13133409202E+02 -0.37292856032E+02  0.70018439123E+02  0.80410356083E+02  0.00000000000E+00 0. -1.
        -13    1    4    4    0    0 -0.66718963803E+02  0.19649094927E+02  0.48713978232E+02  0.84915008906E+02  0.00000000000E+00 0.  1.
         13    1    4    4    0    0 -0.14481102704E+03  0.47843734543E+02 -0.36462036818E+02  0.15680796095E+03  0.00000000000E+00 0. -1.
         21    1    1    2  503  502 -0.26541215791E+02 -0.32267683063E+01 -0.35990722092E+01  0.26977796243E+02  0.00000000000E+00 0.  1.
          1    1    1    2  501    0  0.22310518856E+03 -0.47542169121E+02  0.20192513371E+03  0.30464724294E+03  0.00000000000E+00 0. -1.
<scales pt_clust_5="13000.00000" pt_clust_6="13000.00000" pt_clust_7="13000.00000" pt_clust_8="13000.00000" pt_clust_9="26.73664" pt_clust_10="231.09250"></scales>
<clustering>
<clus scale="   26.737">  2  9  1 -1</clus>
<clus scale="   76.557">  5  6 -1 -1</clus>
<clus scale="   79.453">  1  5  2 -1</clus>
<clus scale="   94.761">  7  8 -1 -1</clus>
<clus scale="  231.093">  2 10  1 -1</clus>
<clus scale="   26.737">  2  5  1 -1</clus>
</clustering>
</event>
<event>
10    4  0.7204077E-005  0.4468830E+03  0.7546771E-02  0.1087792E+00
          2   -1    0    0  503    0 -0.00000000000E+00  0.00000000000E+00  0.10708620575E+04  0.10708620575E+04  0.00000000000E+00 0. -1.
         21   -1    0    0  501  502  0.00000000000E+00 -0.00000000000E+00 -0.54040354720E+03  0.54040354720E+03  0.00000000000E+00 0. -1.
         24    2    1    2    0    0 -0.17182291989E+02  0.22721644239E+02  0.22368019194E+03  0.23921697235E+03  0.79877577082E+02 0.  0.
         23    2    1    2    0    0 -0.24070641452E+03  0.21237482581E+03 -0.10295722874E+03  0.35935617476E+03  0.12447499656E+03 0.  0.
        -13    1    3    3    0    0 -0.18775278987E+02  0.52074059150E+02  0.15012626082E+03  0.16000660276E+03  0.00000000000E+00 0.  1.
         14    1    3    3    0    0  0.15929869985E+01 -0.29352414910E+02  0.73553931115E+02  0.79210369594E+02  0.00000000000E+00 0. -1.
        -11    1    4    4    0    0 -0.20293156529E+02  0.54922011029E+02  0.20010275571E+02  0.61876090906E+02  0.00000000000E+00 0.  1.
         11    1    4    4    0    0 -0.22041325799E+03  0.15745281478E+03 -0.12296750431E+03  0.29748008386E+03  0.00000000000E+00 0. -1.
         21    1    1    2  503  502 -0.80301991463E+02  0.11887120753E+03 -0.19028175600E+03  0.23829796575E+03  0.00000000000E+00 0. -1.
          1    1    1    2  501    0  0.33819069797E+03 -0.35396767758E+03  0.60001730306E+03  0.77439449180E+03  0.00000000000E+00 0. -1.
<scales pt_clust_5="13000.00000" pt_clust_6="13000.00000" pt_clust_7="13000.00000" pt_clust_8="13000.00000" pt_clust_9="144.26664" pt_clust_10="429.19758"></scales>
<clustering>
<clus scale="   79.878">  5  6 -1 -1</clus>
<clus scale="   84.805">  1  5  2 -1</clus>
<clus scale="  124.475">  7  8 -1 -1</clus>
<clus scale="  144.267">  2  9  1 -1</clus>
<clus scale="  429.198">  2 10  1 -1</clus>
<clus scale="  144.267">  2  5  1 -1</clus>
</clustering>
</event>
<event>
10    4  0.1234111E-004  0.2488914E+03  0.7546771E-02  0.1155779E+00
         -3   -1    0    0    0  501 -0.00000000000E+00  0.00000000000E+00  0.50758816429E+03  0.50758816429E+03  0.00000000000E+00 0.  1.
         21   -1    0    0  503  502  0.00000000000E+00 -0.00000000000E+00 -0.84277399493E+03  0.84277399493E+03  0.00000000000E+00 0.  1.
         24    2    1    2    0    0  0.41169837130E+02  0.12660491733E+01  0.64986801729E+02  0.11100934308E+03  0.80020194215E+02 0.  0.
         23    2    1    2    0    0 -0.14627676558E+03 -0.19544773763E+03  0.26013281465E+03  0.36824876680E+03  0.91331060968E+02 0.  0.
        -13    1    3    3    0    0  0.49096879690E+02 -0.12191870701E+02  0.76424187901E+02  0.91650432638E+02  0.00000000000E+00 0.  1.
         14    1    3    3    0    0 -0.79270425591E+01  0.13457919874E+02 -0.11437386172E+02  0.19358910442E+02  0.00000000000E+00 0. -1.
        -13    1    4    4    0    0 -0.97723184326E+02 -0.11063589996E+03  0.92477955808E+02  0.17419039992E+03  0.00000000000E+00 0.  1.
         13    1    4    4    0    0 -0.48553581257E+02 -0.84811837677E+02  0.16765485884E+03  0.19405836688E+03  0.00000000000E+00 0. -1.
         21    1    1    2  503  501  0.19074053537E+03  0.22441823026E+03 -0.70922669270E+03  0.76795051633E+03  0.00000000000E+00 0.  1.
         -4    1    1    2    0  502 -0.85633606913E+02 -0.30236541799E+02  0.48921245676E+02  0.10315353301E+03  0.00000000000E+00 0.  1.
<scales pt_clust_5="13000.00000" pt_clust_6="13000.00000" pt_clust_7="13000.00000" pt_clust_8="13000.00000" pt_clust_9="231.52877" pt_clust_10="83.73430"></scales>
<clustering>
<clus scale="   80.020">  5  6 -1 -1</clus>
<clus scale="   89.999">  1  5  2 -1</clus>
<clus scale="   83.734">  2 10  1 -1</clus>
<clus scale="   91.331">  7  8 -1 -1</clus>
<clus scale="  231.529">  2  9  1 -1</clus>
<clus scale="   83.734">  2  5  1 -1</clus>
</clustering>
</event>
<event>
10    4  0.7204077E-005  0.2598475E+03  0.7546771E-02  0.1129067E+00
         21   -1    0    0  503  502  0.00000000000E+00  0.00000000000E+00  0.80006881337E+03  0.80006881337E+03  0.00000000000E+00 0. -1.
          2   -1    0    0  502    0 -0.00000000000E+00 -0.00000000000E+00 -0.49946724559E+03  0.49946724559E+03  0.00000000000E+00 0. -1.
         24    2    1    2    0    0 -0.10583437353E+03 -0.12121639635E+02  0.97475223587E+02  0.17385021852E+03  0.96822675545E+02 0.  0.
         23    2    1    2    0    0 -0.10953017796E+03  0.10424591375E+03 -0.37899477348E+03  0.41903987902E+03  0.95358856284E+02 0.  0.
        -13    1    3    3    0    0 -0.10712277805E+03 -0.32843384422E+02  0.51316132935E+02  0.12323685721E+03  0.00000000000E+00 0.  1.
         14    1    3    3    0    0  0.12884045169E+01  0.20721744787E+02  0.46159090652E+02  0.50613361310E+02  0.00000000000E+00 0. -1.
        -13    1    4    4    0    0 -0.18315163977E+02 -0.13361474563E+02 -0.10306762579E+03  0.10553155794E+03  0.00000000000E+00 0.  1.
         13    1    4    4    0    0 -0.91215013982E+02  0.11760738831E+03 -0.27592714768E+03  0.31350832109E+03  0.00000000000E+00 0. -1.
         21    1    1    2  503  501 -0.40849176412E+02  0.79589938727E+02  0.16739552317E+03  0.18980114524E+03  0.00000000000E+00 0. -1.
          1    1    1    2  501    0  0.25621372790E+03 -0.17171421284E+03  0.41472559451E+03  0.51684481617E+03  0.00000000000E+00 0. -1.
<scales pt_clust_5="13000.00000" pt_clust_6="13000.00000" pt_clust_7="13000.00000" pt_clust_8="13000.00000" pt_clust_9="89.46068" pt_clust_10="241.71762"></scales>
<clustering>
<clus scale="   89.461">  1  9  2 -1</clus>
<clus scale="   95.359">  7  8 -1 -1</clus>
<clus scale="   96.823">  5  6 -1 -1</clus>
<clus scale="  150.234">  2  5  1 -1</clus>
<clus scale="  241.718">  1 10  2 -1</clus>
<clus scale="   89.461">  1  5  2 -1</clus>
</clustering>
</event>
<event>
10    4  0.7204077E-005  0.2612577E+03  0.7546771E-02  0.1128400E+00
         21   -1    0    0  501  502  0.00000000000E+00  0.00000000000E+00  0.11145548307E+04  0.11145548307E+04  0.00000000000E+00 0.  1.
         -1   -1    0    0    0  501 -0.00000000000E+00 -0.00000000000E+00 -0.17528449998E+03  0.17528449998E+03  0.00000000000E+00 0.  1.
         23    2    1    2    0    0 -0.39804082712E+02 -0.12204552171E+03 -0.49678504911E+02  0.15825879193E+03  0.78092361998E+02 0.  0.
         24    2    1    2    0    0  0.61226064340E+02 -0.17055270004E+03  0.18283291876E+03  0.27017634448E+03  0.82039785996E+02 0.  0.
        -11    1    4    4    0    0 -0.14656403473E+01 -0.80841456929E+02  0.11776300562E+03  0.14284822279E+03  0.00000000000E+00 0.  1.
         12    1    4    4    0    0  0.62691704688E+02 -0.89711243109E+02  0.65069913140E+02  0.12732812169E+03  0.00000000000E+00 0. -1.
        -13    1    3    3    0    0 -0.28937141537E+02 -0.10348594779E+03 -0.70343734596E+02  0.12843263038E+03  0.00000000000E+00 0.  1.
         13    1    3    3    0    0 -0.10866941175E+02 -0.18559573925E+02  0.20665229685E+02  0.29826161548E+02  0.00000000000E+00 0. -1.
         21    1    1    2  503  502  0.21861560333E+02  0.37065112425E+02  0.14682065813E+03  0.15299691511E+03  0.00000000000E+00 0. -1.
         -2    1    1    2    0  503 -0.43283541961E+02  0.25553310932E+03  0.65929525870E+03  0.70840727912E+03  0.00000000000E+00 0.  1.
<scales pt_clust_5="13000.00000" pt_clust_6="13000.00000" pt_clust_7="13000.00000" pt_clust_8="13000.00000" pt_clust_9="31.88134" pt_clust_10="260.08993"></scales>
<clustering>
<clus scale="   31.881">  9 10 -1 -1</clus>
<clus scale="   78.092">  7  8 -1 -1</clus>
<clus scale="   82.040">  5  6 -1 -1</clus>
<clus scale="  150.259">  2  7  1 -1</clus>
<clus scale="  260.090">  1  9  2 -1</clus>
<clus scale="  260.090">  1  5  2 -1</clus>
</clustering>
</event>
<event>
10    4  0.7204077E-005  0.9362515E+02  0.7546771E-02  0.1302389E+00
          2   -1    0    0  503    0 -0.00000000000E+00  0.00000000000E+00  0.73310793787E+02  0.73310793787E+02  0.00000000000E+00 0. -1.
         21   -1    0    0  501  502  0.00000000000E+00 -0.00000000000E+00 -0.47426237354E+03  0.47426237354E+03  0.00000000000E+00 0.  1.
         23    2    1    2    0    0  0.10757364182E+02 -0.28278746634E+02 -0.30237185373E+01  0.95989825775E+02  0.91046665964E+02 0.  0.
         24    2    1    2    0    0  0.45586102760E+02 -0.59691248216E+01 -0.20349601441E+03  0.22259579824E+03  0.77617899321E+02 0.  0.
        -11    1    4    4    0    0  0.55791930352E+02 -0.48855930918E+01 -0.20473602416E+03  0.21225797535E+03  0.00000000000E+00 0.  1.
         12    1    4    4    0    0 -0.10205827592E+02 -0.10835317298E+01  0.12400097456E+01  0.10337822886E+02  0.00000000000E+00 0. -1.
        -13    1    3    3    0    0 -0.34706216626E+02 -0.31791006571E+02 -0.13970008646E+02  0.49095322719E+02  0.00000000000E+00 0. -1.
         13    1    3    3    0    0  0.45463580809E+02  0.35122599365E+01  0.10946290109E+02  0.46894503057E+02  0.00000000000E+00 0.  1.
         21    1    1    2  503  502 -0.22076868265E+02  0.62448160166E+02 -0.15884950963E+03  0.17210557089E+03  0.00000000000E+00 0. -1.
          1    1    1    2  501    0 -0.34266598678E+02 -0.28200288711E+02 -0.35582337170E+02  0.56881972423E+02  0.00000000000E+00 0. -1.
<scales pt_clust_5="13000.00000" pt_clust_6="13000.00000" pt_clust_7="13000.00000" pt_clust_8="13000.00000" pt_clust_9="62.48832" pt_clust_10="44.37858"></scales>
<clustering>
<clus scale="   44.379">  2 10  1 -1</clus>
<clus scale="   62.488">  2  9  1 -1</clus>
<clus scale="   77.618">  5  6 -1 -1</clus>
<clus scale="   80.627">  2  5  1 -1</clus>
<clus scale="   91.047">  7  8 -1 -1</clus>
<clus scale="   44.379">  2  5  1 -1</clus>
</clustering>
</event>
<event>
10    4  0.7204077E-005  0.1794439E+03  0.7546771E-02  0.1188470E+00
         21   -1    0    0  501  502  0.00000000000E+00  0.00000000000E+00  0.98179925035E+02  0.98179925035E+02  0.00000000000E+00 0. -1.
          2   -1    0    0  503    0 -0.00000000000E+00 -0.00000000000E+00 -0.20645884691E+04  0.20645884691E+04  0.00000000000E+00 0. -1.
         24    2    1    2    0    0 -0.57209803034E+02 -0.81920993144E+02 -0.32670946049E+02  0.13195272496E+03  0.79750361926E+02 0.  0.
         23    2    1    2    0    0 -0.95369069622E+02 -0.97603698289E+02 -0.56068477854E+03  0.58445338827E+03  0.92717855954E+02 0.  0.
        -11    1    3    3    0    0  0.13801716684E+01 -0.23975803632E+02  0.22399906392E+02  0.32840521312E+02  0.00000000000E+00 0.  1.
         12    1    3    3    0    0 -0.58589974702E+02 -0.57945189512E+02 -0.55070852441E+02  0.99112203647E+02  0.00000000000E+00 0. -1.
        -11    1    4    4    0    0 -0.91347569272E+02 -0.33001522842E+02 -0.38987189809E+03  0.40178797374E+03  0.00000000000E+00 0.  1.
         11    1    4    4    0    0 -0.40215003508E+01 -0.64602175447E+02 -0.17081288045E+03  0.18266541453E+03  0.00000000000E+00 0. -1.
         21    1    1    2  503  502  0.22649573876E+02  0.16096739294E+02  0.22205511185E+02  0.35569550737E+02  0.00000000000E+00 0. -1.
          1    1    1    2  501    0  0.12992929878E+03  0.16342795214E+03 -0.13952583307E+04  0.14107927302E+04  0.00000000000E+00 0. -1.
<scales pt_clust_5="13000.00000" pt_clust_6="13000.00000" pt_clust_7="13000.00000" pt_clust_8="13000.00000" pt_clust_9="27.78684" pt_clust_10="153.63444"></scales>
<clustering>
<clus scale="   27.787">  1  9  2 -1</clus>
<clus scale="   79.750">  5  6 -1 -1</clus>
<clus scale="   92.718">  7  8 -1 -1</clus>
<clus scale="  113.993">  2  5  1 -1</clus>
<clus scale="  153.634">  1 10  2 -1</clus>
<clus scale="   27.787">  1  5  2 -1</clus>
</clustering>
</event>
<event>
10    4  0.7204077E-005  0.2014060E+03  0.7546771E-02  0.1174165E+00
          2   -1    0    0  502    0 -0.00000000000E+00  0.00000000000E+00  0.14020549515E+04  0.14020549515E+04  0.00000000000E+00 0. -1.
         21   -1    0    0  503  502  0.00000000000E+00 -0.00000000000E+00 -0.17037114833E+03  0.17037114833E+03  0.00000000000E+00 0. -1.
         23    2    1    2    0    0 -0.54321424745E+02 -0.37221656697E+02  0.21498073476E+03  0.24199930582E+03  0.89502395421E+02 0.  0.
         24    2    1    2    0    0  0.22788196877E+03  0.19820902778E+03  0.28734798765E+03  0.42453778876E+03  0.80289835567E+02 0.  0.
        -11    1    4    4    0    0  0.47734936970E+01  0.19507457203E+02  0.12719864846E+01  0.20123247208E+02  0.00000000000E+00 0.  1.
         12    1    4    4    0    0  0.22310847507E+03  0.17870157058E+03  0.28607600117E+03  0.40441454156E+03  0.00000000000E+00 0. -1.
        -13    1    3    3    0    0 -0.78026257789E+02 -0.38974699649E+02  0.16402351973E+03  0.18577093191E+03  0.00000000000E+00 0. -1.
         13    1    3    3    0    0  0.23704833044E+02  0.17530429522E+01  0.50957215027E+02  0.56228373910E+02  0.00000000000E+00 0.  1.
         21    1    1    2  503  501 -0.98451374815E+02 -0.76633020800E+02 -0.37880055714E+02  0.13038478324E+03  0.00000000000E+00 0. -1.
          1    1    1    2  501    0 -0.75109169210E+02 -0.84354350284E+02  0.76723513650E+03  0.77550422203E+03  0.00000000000E+00 0. -1.
<scales pt_clust_5="13000.00000" pt_clust_6="13000.00000" pt_clust_7="13000.00000" pt_clust_8="13000.00000" pt_clust_9="127.35155" pt_clust_10="184.71045"></scales>
<clustering>
<clus scale="   80.290">  5  6 -1 -1</clus>
<clus scale="   89.502">  7  8 -1 -1</clus>
<clus scale="  111.117">  1  7  2 -1</clus>
<clus scale="  127.352">  2  9  1 -1</clus>
<clus scale="  184.710">  2 10  1 -1</clus>
<clus scale="  127.352">  2  5  1 -1</clus>
</clustering>
</event>
<event>
10    4  0.7204077E-005  0.1200884E+03  0.7546771E-02  0.1258187E+00
          2   -1    0    0  503    0 -0.00000000000E+00  0.00000000000E+00  0.13772676306E+03  0.13772676306E+03  0.00000000000E+00 0. -1.
         21   -1    0    0  501  502  0.00000000000E+00 -0.00000000000E+00 -0.53842882323E+03  0.53842882323E+03  0.00000000000E+00 0. -1.
         24    2    1    2    0    0 -0.29915668315E+02  0.26406195507E+02 -0.88321541536E+02  0.12559059149E+03  0.79875325346E+02 0.  0.
         23    2    1    2    0    0 -0.57696922413E+02  0.34472606245E+02 -0.27917643238E+03  0.30320088695E+03  0.97334485223E+02 0.  0.
        -11    1    3    3    0    0 -0.36463967276E+02 -0.19546697595E+02 -0.30271541273E+02  0.51264612623E+02  0.00000000000E+00 0.  1.
         12    1    3    3    0    0  0.65482989608E+01  0.45952893102E+02 -0.58050000263E+02  0.74325978865E+02  0.00000000000E+00 0. -1.
        -13    1    4    4    0    0 -0.25428344968E+02  0.52965331381E+02 -0.73047822024E+02  0.93743860378E+02  0.00000000000E+00 0.  1.
         13    1    4    4    0    0 -0.32268577446E+02 -0.18492725135E+02 -0.20612861035E+03  0.20945702657E+03  0.00000000000E+00 0. -1.
         21    1    1    2  503  502 -0.78809216693E+01 -0.20412811659E+02 -0.11388264201E+03  0.11596571889E+03  0.00000000000E+00 0. -1.
          1    1    1    2  501    0  0.95493512397E+02 -0.40465990094E+02  0.80678555756E+02  0.13139838897E+03  0.00000000000E+00 0. -1.
<scales pt_clust_5="13000.00000" pt_clust_6="13000.00000" pt_clust_7="13000.00000" pt_clust_8="13000.00000" pt_clust_9="21.88131" pt_clust_10="70.33647"></scales>
<clustering>
<clus scale="   21.881">  2  9  1 -1</clus>
<clus scale="   79.875">  5  6 -1 -1</clus>
<clus scale="   88.598">  1  5  2 -1</clus>
<clus scale="   70.336">  2 10  1 -1</clus>
<clus scale="   97.334">  7  8 -1 -1</clus>
<clus scale="   21.881">  2  5  1 -1</clus>
</clustering>
</event>
<event>
10    4  0.7204077E-005  0.1468061E+03  0.7546771E-02  0.1227859E+00
         21   -1    0    0  503  502  0.00000000000E+00  0.00000000000E+00  0.42498356400E+03  0.42498356400E+03  0.00000000000E+00 0. -1.
         -3   -1    0    0    0  501 -0.00000000000E+00 -0.00000000000E+00 -0.11241495105E+03  0.11241495105E+03  0.00000000000E+00 0.  1.
         24    2    1    2    0    0 -0.14074807542E+02  0.18796055293E+02  0.11091347178E+03  0.13993796151E+03  0.82033181999E+02 0.  0.
         23    2    1    2    0    0 -0.91454036395E+02  0.29620360540E+02  0.13822438541E+02  0.13349904266E+03  0.91595458696E+02 0.  0.
        -13    1    3    3    0    0  0.21184072772E+02  0.19694928078E+02  0.63877212981E+01  0.29621919495E+02  0.00000000000E+00 0.  1.
         14    1    3    3    0    0 -0.35258880313E+02 -0.89887278493E+00  0.10452575048E+03  0.11031604202E+03  0.00000000000E+00 0. -1.
        -11    1    4    4    0    0 -0.80607764882E+02  0.59434254790E+02  0.37776992966E+01  0.10022132215E+03  0.00000000000E+00 0. -1.
         11    1    4    4    0    0 -0.10846271514E+02 -0.29813894250E+02  0.10044739244E+02  0.33277720514E+02  0.00000000000E+00 0.  1.
         21    1    1    2  503  501  0.76314925817E+01  0.39825926673E+02  0.93407271062E+02  0.10182957528E+03  0.00000000000E+00 0. -1.
         -4    1    1    2    0  502  0.97897351355E+02 -0.88242342506E+02  0.94425431559E+02  0.16213193559E+03  0.00000000000E+00 0.  1.
<scales pt_clust_5="13000.00000" pt_clust_6="13000.00000" pt_clust_7="13000.00000" pt_clust_8="13000.00000" pt_clust_9="40.55051" pt_clust_10="114.72710"></scales>
<clustering>
<clus scale="   40.551">  1  9  2 -1</clus>
<clus scale="   82.033">  5  6 -1 -1</clus>
<clus scale="   89.518">  2  5  1 -1</clus>
<clus scale="   91.595">  7  8 -1 -1</clus>
<clus scale="  114.727">  1 10  2 -1</clus>
<clus scale="   40.551">  1  5  2 -1</clus>
</clustering>
</event>
<event>
10    4  0.7204077E-005  0.1374046E+03  0.7546771E-02  0.1232807E+00
          2   -1    0    0  502    0 -0.00000000000E+00  0.00000000000E+00  0.25150004917E+03  0.25150004917E+03  0.00000000000E+00 0. -1.
         21   -1    0    0  503  502  0.00000000000E+00 -0.00000000000E+00 -0.12810102580E+03  0.12810102580E+03  0.00000000000E+00 0.  1.
         23    2    1    2    0    0  0.24796347059E+02 -0.29175840668E+02  0.23340302744E+02  0.10130629258E+03  0.90841106765E+02 0.  0.
         24    2    1    2    0    0 -0.11945482291E+03  0.46165771179E+02  0.53417505266E+02  0.16174083018E+03  0.83101944228E+02 0.  0.
        -11    1    4    4    0    0 -0.13055256696E+03  0.31790440965E+02  0.49243164918E+02  0.14310658324E+03  0.00000000000E+00 0.  1.
         12    1    4    4    0    0  0.11097744048E+02  0.14375330214E+02  0.41743403482E+01  0.18634246941E+02  0.00000000000E+00 0. -1.
        -11    1    3    3    0    0  0.14429307250E+02 -0.53582527739E+02  0.41391422061E+02  0.69228187950E+02  0.00000000000E+00 0. -1.
         11    1    3    3    0    0  0.10367039809E+02  0.24406687070E+02 -0.18051119317E+02  0.32078104632E+02  0.00000000000E+00 0.  1.
         21    1    1    2  503  501  0.53252185736E+02 -0.96325977858E+00  0.15661430582E+01  0.53283918392E+02  0.00000000000E+00 0.  1.
          1    1    1    2  501    0  0.41406290113E+02 -0.16026670732E+02  0.45075072297E+02  0.63270033810E+02  0.00000000000E+00 0. -1.
<scales pt_clust_5="13000.00000" pt_clust_6="13000.00000" pt_clust_7="13000.00000" pt_clust_8="13000.00000" pt_clust_9="42.43915" pt_clust_10="118.88910"></scales>
<clustering>
<clus scale="   42.439">  9 10 -1 -1</clus>
<clus scale="   83.102">  5  6 -1 -1</clus>
<clus scale="   90.841">  7  8 -1 -1</clus>
<clus scale="   98.581">  1  7  2 -1</clus>
<clus scale="  118.889">  2  9  1 -1</clus>
<clus scale="  118.889">  2  5  1 -1</clus>
</clustering>
</event>
<event>
10    4  0.7204077E-005  0.9499501E+02  0.7546771E-02  0.1301807E+00
          2   -1    0    0  503    0 -0.00000000000E+00  0.00000000000E+00  0.73529053081E+03  0.73529053081E+03  0.00000000000E+00 0. -1.
         21   -1    0    0  501  502  0.00000000000E+00 -0.00000000000E+00 -0.25136884121E+02  0.25136884121E+02  0.00000000000E+00 0.  1.
         24    2    1    2    0    0 -0.11856988019E+02  0.15621217518E+02  0.27692114088E+03  0.28814846598E+03  0.77198507633E+02 0.  0.
         23    2    1    2    0    0 -0.36478500904E+02  0.93515788097E+00  0.26218330608E+03  0.28101285270E+03  0.94321693391E+02 0.  0.
        -11    1    3    3    0    0 -0.12317309389E+02  0.30528910207E+02  0.45040656824E+02  0.55788809238E+02  0.00000000000E+00 0.  1.
         12    1    3    3    0    0  0.46032136951E+00 -0.14907692689E+02  0.23188048405E+03  0.23235965674E+03  0.00000000000E+00 0. -1.
        -13    1    4    4    0    0  0.34379283191E+01 -0.23286614716E+02  0.11833099261E+02  0.26345929746E+02  0.00000000000E+00 0.  1.
         13    1    4    4    0    0 -0.39916429223E+02  0.24221772597E+02  0.25035020682E+03  0.25466692295E+03  0.00000000000E+00 0. -1.
         21    1    1    2  503  502  0.16410656683E+02  0.26210747787E+02  0.79412994431E+02  0.85221691116E+02  0.00000000000E+00 0. -1.
          1    1    1    2  501    0  0.31924832240E+02 -0.42767123186E+02  0.91636205294E+02  0.10604440513E+03  0.00000000000E+00 0. -1.
<scales pt_clust_5="13000.00000" pt_clust_6="13000.00000" pt_clust_7="13000.00000" pt_clust_8="13000.00000" pt_clust_9="30.92431" pt_clust_10="50.61327"></scales>
<clustering>
<clus scale="   30.924">  2  9  1 -1</clus>
<clus scale="   50.613">  2 10  1 -1</clus>
<clus scale="   77.199">  5  6 -1 -1</clus>
<clus scale="   78.020">  1  5  2 -1</clus>
<clus scale="   94.322">  7  8 -1 -1</clus>
<clus scale="   30.924">  2  5  1 -1</clus>
</clustering>
</event>
<event>
10    4  0.7204077E-005  0.2447696E+03  0.7546771E-02  0.1161926E+00
          2   -1    0    0  502    0 -0.00000000000E+00  0.00000000000E+00  0.97675700650E+03  0.97675700650E+03  0.00000000000E+00 0. -1.
         21   -1    0    0  503  502  0.00000000000E+00 -0.00000000000E+00 -0.10067315371E+03  0.10067315371E+03  0.00000000000E+00 0. -1.
         24    2    1    2    0    0  0.68678051794E+01  0.11617197875E+02  0.13756012856E+03  0.16020710023E+03  0.81002468841E+02 0.  0.
         23    2    1    2    0    0  0.11242110127E+02 -0.22052004282E+03  0.47918840899E+03  0.53646746027E+03  0.97058386034E+02 0.  0.
        -11    1    3    3    0    0  0.33029806845E+02 -0.18230542093E+02  0.93937081487E+02  0.10122991694E+03  0.00000000000E+00 0.  1.
         12    1    3    3    0    0 -0.26162001666E+02  0.29847739968E+02  0.43623047078E+02  0.58977183289E+02  0.00000000000E+00 0. -1.
        -13    1    4    4    0    0  0.34017275572E+02 -0.91639034373E+02  0.29305203339E+03  0.30892455702E+03  0.00000000000E+00 0.  1.
         13    1    4    4    0    0 -0.22775165444E+02 -0.12888100845E+03  0.18613637560E+03  0.22754290325E+03  0.00000000000E+00 0. -1.
         21    1    1    2  503  501  0.20550380695E+02 -0.25432034383E+02  0.55375550727E+01  0.33162795958E+02  0.00000000000E+00 0. -1.
          1    1    1    2  501    0 -0.38660296001E+02  0.23433487933E+03  0.25379776017E+03  0.34759280376E+03  0.00000000000E+00 0. -1.
<scales pt_clust_5="13000.00000" pt_clust_6="13000.00000" pt_clust_7="13000.00000" pt_clust_8="13000.00000" pt_clust_9="32.69719" pt_clust_10="224.70383"></scales>
<clustering>
<clus scale="   32.697">  2  9  1 -1</clus>
<clus scale="   81.002">  5  6 -1 -1</clus>
<clus scale="   81.985">  1  5  2 -1</clus>
<clus scale="   97.058">  7  8 -1 -1</clus>
<clus scale="  224.704">  2 10  1 -1</clus>
<clus scale="   32.697">  2  5  1 -1</clus>
</clustering>
</event>
<event>
10    4  0.7204077E-005  0.3208564E+03  0.7546771E-02  0.1122476E+00
         21   -1    0    0  503  502  0.00000000000E+00  0.00000000000E+00  0.48620930883E+03  0.48620930883E+03  0.00000000000E+00 0. -1.
          2   -1    0    0  502    0 -0.00000000000E+00 -0.00000000000E+00 -0.31934274724E+03  0.31934274724E+03  0.00000000000E+00 0. -1.
         24    2    1    2    0    0 -0.28252475095E+02 -0.43793450036E+02  0.69296165343E+02  0.11855078622E+03  0.80847150637E+02 0.  0.
         23    2    1    2    0    0  0.12347578862E+02  0.32511439493E+03  0.38693722638E+02  0.33999712974E+03  0.90824069300E+02 0.  0.
        -13    1    3    3    0    0  0.24369079791E+02 -0.12780575584E+02  0.18826395902E+01  0.27581506375E+02  0.00000000000E+00 0.  1.
         14    1    3    3    0    0 -0.52621554885E+02 -0.31012874452E+02  0.67413525753E+02  0.90969279841E+02  0.00000000000E+00 0. -1.
        -13    1    4    4    0    0  0.40737114492E+02  0.23444878761E+03  0.53344957446E+02  0.24386765057E+03  0.00000000000E+00 0. -1.
         13    1    4    4    0    0 -0.28389535630E+02  0.90665607325E+02 -0.14651234809E+02  0.96129479174E+02  0.00000000000E+00 0.  1.
         21    1    1    2  503  501  0.21283423769E+02  0.10224718051E+02  0.49975807456E+02  0.55273052362E+02  0.00000000000E+00 0.  1.
          1    1    1    2  501    0 -0.53785275364E+01 -0.29154566295E+03  0.89008661568E+01  0.29173108775E+03  0.00000000000E+00 0. -1.
<scales pt_clust_5="13000.00000" pt_clust_6="13000.00000" pt_clust_7="13000.00000" pt_clust_8="13000.00000" pt_clust_9="23.61205" pt_clust_10="307.73333"></scales>
<clustering>
<clus scale="   23.612">  1  9  2 -1</clus>
<clus scale="   80.847">  5  6 -1 -1</clus>
<clus scale="   90.824">  7  8 -1 -1</clus>
<clus scale="   93.936">  2  5  1 -1</clus>
<clus scale="  307.733">  1 10  2 -1</clus>
<clus scale="   23.612">  1  5  2 -1</clus>
</clustering>
</event>
<event>
10    4  0.7204077E-005  0.1935953E+03  0.7546771E-02  0.1179722E+00
         21   -1    0    0  501  502  0.00000000000E+00  0.00000000000E+00  0.40098110455E+03  0.40098110455E+03  0.00000000000E+00 0. -1.
          2   -1    0    0  503    0 -0.00000000000E+00 -0.00000000000E+00 -0.68974345001E+03  0.68974345001E+03  0.00000000000E+00 0. -1.
         23    2    1    2    0    0 -0.51347307044E+02  0.27288347419E+02 -0.44411269828E+03  0.45762602354E+03  0.93831171805E+02 0.  0.
         24    2    1    2    0    0 -0.41276097130E+02  0.14730454765E+03 -0.15424440515E+03  0.23189549721E+03  0.81128534783E+02 0.  0.
        -13    1    4    4    0    0  0.22293060020E+02  0.46645725389E+02 -0.65297078530E+02  0.83285729190E+02  0.00000000000E+00 0.  1.
         14    1    4    4    0    0 -0.63569157150E+02  0.10065882226E+03 -0.88947326617E+02  0.14860976802E+03  0.00000000000E+00 0. -1.
        -13    1    3    3    0    0  0.19814683985E+02  0.12409260886E+02 -0.34912571234E+02  0.42017842488E+02  0.00000000000E+00 0.  1.
         13    1    3    3    0    0 -0.71161991029E+02  0.14879086533E+02 -0.40920012705E+03  0.41560818105E+03  0.00000000000E+00 0. -1.
         21    1    1    2  503  502  0.12833230303E+03 -0.98592507484E+02  0.14899510626E+03  0.21997546277E+03  0.00000000000E+00 0. -1.
          1    1    1    2  501    0 -0.35708898857E+02 -0.76000387585E+02  0.16059965171E+03  0.18122757103E+03  0.00000000000E+00 0. -1.
<scales pt_clust_5="13000.00000" pt_clust_6="13000.00000" pt_clust_7="13000.00000" pt_clust_8="13000.00000" pt_clust_9="175.77626" pt_clust_10="83.97133"></scales>
<clustering>
<clus scale="   81.129">  5  6 -1 -1</clus>
<clus scale="   83.971">  1 10  2 -1</clus>
<clus scale="   93.831">  7  8 -1 -1</clus>
<clus scale="  110.351">  2  7  1 -1</clus>
<clus scale="  175.776">  1  9  2 -1</clus>
<clus scale="   83.971">  1  5  2 -1</clus>
</clustering>
</event>
<event>
10    4  0.7204077E-005  0.3402459E+03  0.7546771E-02  0.1066952E+00
         21   -1    0    0  501  502  0.00000000000E+00  0.00000000000E+00  0.18117957853E+03  0.18117957853E+03  0.00000000000E+00 0. -1.
          2   -1    0    0  503    0 -0.00000000000E+00 -0.00000000000E+00 -0.94083346498E+03  0.94083346498E+03  0.00000000000E+00 0. -1.
         24    2    1    2    0    0  0.84966616799E+02  0.32345129447E+03 -0.48973035941E+03  0.59841421513E+03  0.80147876326E+02 0.  0.
         23    2    1    2    0    0 -0.42323059301E+02 -0.31807622889E+03 -0.29020746092E+03  0.44188887932E+03  0.89898178839E+02 0.  0.
        -13    1    3    3    0    0 -0.12137036254E+02  0.17081686191E+02 -0.18099048708E+02  0.27688756135E+02  0.00000000000E+00 0.  1.
         14    1    3    3    0    0  0.97103653052E+02  0.30636960828E+03 -0.47163131070E+03  0.57072545900E+03  0.00000000000E+00 0. -1.
        -13    1    4    4    0    0  0.24320921812E+02 -0.11501678690E+03 -0.12638218940E+03  0.17260598572E+03  0.00000000000E+00 0. -1.
         13    1    4    4    0    0 -0.66643981113E+02 -0.20305944199E+03 -0.16382527152E+03  0.26928289360E+03  0.00000000000E+00 0.  1.
         21    1    1    2  503  502 -0.25715915370E+02  0.21149419109E+02  0.33817084953E+02  0.47457364725E+02  0.00000000000E+00 0. -1.
          1    1    1    2  501    0 -0.16927642127E+02 -0.26524484691E+02 -0.13533151075E+02  0.34252584342E+02  0.00000000000E+00 0. -1.
<scales pt_clust_5="13000.00000" pt_clust_6="13000.00000" pt_clust_7="13000.00000" pt_clust_8="13000.00000" pt_clust_9="33.23926" pt_clust_10="31.46575"></scales>
<clustering>
<clus scale="   31.466">  1 10  2 -1</clus>
<clus scale="   33.239">  1  9  2 -1</clus>
<clus scale="   80.148">  5  6 -1 -1</clus>
<clus scale="   89.898">  7  8 -1 -1</clus>
<clus scale="  337.801">  2  5  1 -1</clus>
<clus scale="   31.466">  1  5  2 -1</clus>
</clustering>
</event>
<event>
10    4  0.7204077E-005  0.9829471E+02  0.7546771E-02  0.1288818E+00
         21   -1    0    0  503  502  0.00000000000E+00  0.00000000000E+00  0.15506161819E+03  0.15506161819E+03  0.00000000000E+00 0.  1.
          2   -1    0    0  502    0 -0.00000000000E+00 -0.00000000000E+00 -0.25206946905E+03  0.25206946905E+03  0.00000000000E+00 0. -1.
         24    2    1    2    0    0  0.97818834747E+01  0.32064447154E+02 -0.12706446816E+03  0.15443047800E+03  0.81114606899E+02 0.  0.
         23    2    1    2    0    0 -0.60052723524E+02 -0.22832989000E+02 -0.57952663715E+02  0.12527110875E+03  0.90590642274E+02 0.  0.
        -13    1    3    3    0    0 -0.30458938666E+02 -0.52717135541E+01 -0.30937688021E+02  0.43734179409E+02  0.00000000000E+00 0.  1.
         14    1    3    3    0    0  0.40240822141E+02  0.37336160708E+02 -0.96126780135E+02  0.11069629859E+03  0.00000000000E+00 0. -1.
        -13    1    4    4    0    0  0.89759868933E+01  0.25150868442E+02 -0.10191380953E+02  0.28583190337E+02  0.00000000000E+00 0.  1.
         13    1    4    4    0    0 -0.69028710418E+02 -0.47983857442E+02 -0.47761282762E+02  0.96687918418E+02  0.00000000000E+00 0. -1.
         21    1    1    2  503  501  0.22460180563E+02  0.87426805974E+01  0.91041244239E+02  0.94177504360E+02  0.00000000000E+00 0.  1.
          1    1    1    2  501    0  0.27810659487E+02 -0.17974138751E+02 -0.30319632266E+01  0.33251996120E+02  0.00000000000E+00 0. -1.
<scales pt_clust_5="13000.00000" pt_clust_6="13000.00000" pt_clust_7="13000.00000" pt_clust_8="13000.00000" pt_clust_9="24.10175" pt_clust_10="36.83369"></scales>
<clustering>
<clus scale="   24.102">  1  9  2 -1</clus>
<clus scale="   36.834">  1 10  2 -1</clus>
<clus scale="   81.115">  5  6 -1 -1</clus>
<clus scale="   89.637">  2  5  1 -1</clus>
<clus scale="   90.591">  7  8 -1 -1</clus>
<clus scale="   24.102">  1  5  2 -1</clus>
</clustering>
</event>
<event>
10    4  0.7204077E-005  0.2145544E+03  0.7546771E-02  0.1138098E+00
          2   -1    0    0  503    0 -0.00000000000E+00  0.00000000000E+00  0.73756152452E+03  0.73756152452E+03  0.00000000000E+00 0. -1.
         21   -1    0    0  501  502  0.00000000000E+00 -0.00000000000E+00 -0.19596972952E+03  0.19596972952E+03  0.00000000000E+00 0. -1.
         24    2    1    2    0    0 -0.60337702848E+02 -0.15588276651E+03  0.27691094637E+03  0.33383421581E+03  0.82616803016E+02 0.  0.
         23    2    1    2    0    0 -0.24013205374E+02  0.28050799501E+03  0.28451809222E+03  0.40845957247E+03  0.81408281203E+02 0.  0.
        -13    1    3    3    0    0 -0.75821784101E+02 -0.14521781449E+03  0.26509255817E+03  0.31162673342E+03  0.00000000000E+00 0.  1.
         14    1    3    3    0    0  0.15484081253E+02 -0.10664952023E+02  0.11818388206E+02  0.22207482381E+02  0.00000000000E+00 0. -1.
        -13    1    4    4    0    0 -0.42350241671E+02  0.22532433338E+03  0.25611424940E+03  0.34374279182E+03  0.00000000000E+00 0. -1.
         13    1    4    4    0    0  0.18337036297E+02  0.55183661628E+02  0.28403842813E+02  0.64716780648E+02  0.00000000000E+00 0.  1.
         21    1    1    2  503  502 -0.25647385234E+02 -0.26864243514E+01  0.27368312138E+00  0.25789147865E+02  0.00000000000E+00 0.  1.
          1    1    1    2  501    0  0.10999829346E+03 -0.12193880415E+03 -0.20110926712E+02  0.16544831789E+03  0.00000000000E+00 0. -1.
<scales pt_clust_5="13000.00000" pt_clust_6="13000.00000" pt_clust_7="13000.00000" pt_clust_8="13000.00000" pt_clust_9="25.78770" pt_clust_10="156.88754"></scales>
<clustering>
<clus scale="   25.788">  2  9  1 -1</clus>
<clus scale="   81.408">  7  8 -1 -1</clus>
<clus scale="   82.617">  5  6 -1 -1</clus>
<clus scale="  156.888">  2 10  1 -1</clus>
<clus scale="  214.092">  2  7  1 -1</clus>
<clus scale="   25.788">  2  5  1 -1</clus>
</clustering>
</event>
<event>
10    4  0.7204077E-005  0.1767818E+03  0.7546771E-02  0.1172338E+00
         21   -1    0    0  501  502  0.00000000000E+00  0.00000000000E+00  0.30819357618E+02  0.30819357618E+02  0.00000000000E+00 0. -1.
          2   -1    0    0  503    0 -0.00000000000E+00 -0.00000000000E+00 -0.16769301470E+04  0.16769301470E+04  0.00000000000E+00 0. -1.
         24    2    1    2    0    0  0.11700163511E+03  0.76505534939E+02 -0.66018245746E+03  0.67948241332E+03  0.79454347727E+02 0.  0.
         23    2    1    2    0    0 -0.14457461964E+03 -0.91848606759E+02 -0.57978439341E+03  0.61132060222E+03  0.90691502598E+02 0.  0.
        -11    1    3    3    0    0  0.28823142954E+02 -0.15738624080E+02 -0.15394821887E+03  0.15741198160E+03  0.00000000000E+00 0.  1.
         12    1    3    3    0    0  0.88178492158E+02  0.92244159020E+02 -0.50623423859E+03  0.52207043172E+03  0.00000000000E+00 0. -1.
        -11    1    4    4    0    0 -0.21353031541E+02  0.13956189301E+02 -0.14426688036E+03  0.14650481202E+03  0.00000000000E+00 0.  1.
         11    1    4    4    0    0 -0.12322158810E+03 -0.10580479606E+03 -0.43551751305E+03  0.46481579020E+03  0.00000000000E+00 0. -1.
         21    1    1    2  503  502 -0.21569658044E+02 -0.11972352768E+02 -0.43826637785E+02  0.50292758509E+02  0.00000000000E+00 0. -1.
          1    1    1    2  501    0  0.49142642574E+02  0.27315424587E+02 -0.36231730070E+03  0.36665373055E+03  0.00000000000E+00 0. -1.
<scales pt_clust_5="13000.00000" pt_clust_6="13000.00000" pt_clust_7="13000.00000" pt_clust_8="13000.00000" pt_clust_9="24.66956" pt_clust_10="54.28500"></scales>
<clustering>
<clus scale="   24.670">  1  9  2 -1</clus>
<clus scale="   54.285">  1 10  2 -1</clus>
<clus scale="   79.454">  5  6 -1 -1</clus>
<clus scale="   90.692">  7  8 -1 -1</clus>
<clus scale="  171.289">  2  5  1 -1</clus>
<clus scale="   24.670">  1  5  2 -1</clus>
</clustering>
</event>
<event>
10    4  0.7204077E-005  0.1331255E+03  0.7546771E-02  0.1244906E+00
          2   -1    0    0  502    0 -0.00000000000E+00  0.00000000000E+00  0.15082749971E+04  0.15082749971E+04  0.00000000000E+00 0. -1.
         21   -1    0    0  503  502  0.00000000000E+00 -0.00000000000E+00 -0.46974913879E+02  0.46974913879E+02  0.00000000000E+00 0. -1.
         24    2    1    2    0    0 -0.12922232882E+02 -0.23910274413E+02  0.77396110244E+03  0.77864098765E+03  0.80791795545E+02 0.  0.
         23    2    1    2    0    0  0.81430308469E+02  0.21204934752E+02  0.13575008800E+03  0.18337470634E+03  0.90098014057E+02 0.  0.
        -13    1    3    3    0    0 -0.37584828402E+02  0.24895858715E+01  0.19819764481E+03  0.20174519517E+03  0.00000000000E+00 0.  1.
         14    1    3    3    0    0  0.24662595520E+02 -0.26399860284E+02  0.57576345763E+03  0.57689579248E+03  0.00000000000E+00 0. -1.
        -11    1    4    4    0    0  0.75940865532E+02 -0.10452287456E+02  0.12973056653E+03  0.15068604866E+03  0.00000000000E+00 0.  1.
         11    1    4    4    0    0  0.54894429374E+01  0.31657222208E+02  0.60195214738E+01  0.32688657673E+02  0.00000000000E+00 0. -1.
         21    1    1    2  503  501  0.20654266477E+02  0.12388536493E+02 -0.88539036593E+01  0.25660595670E+02  0.00000000000E+00 0. -1.
          1    1    1    2  501    0 -0.89162342064E+02 -0.96831968324E+01  0.56044279643E+03  0.56757362132E+03  0.00000000000E+00 0. -1.
<scales pt_clust_5="13000.00000" pt_clust_6="13000.00000" pt_clust_7="13000.00000" pt_clust_8="13000.00000" pt_clust_9="24.08474" pt_clust_10="98.00390"></scales>
<clustering>
<clus scale="   24.085">  2  9  1 -1</clus>
<clus scale="   80.792">  5  6 -1 -1</clus>
<clus scale="   84.740">  1  5  2 -1</clus>
<clus scale="   90.098">  7  8 -1 -1</clus>
<clus scale="   98.004">  2 10  1 -1</clus>
<clus scale="   24.085">  2  5  1 -1</clus>
</clustering>
</event>
<event>
10    4  0.7204077E-005  0.5427569E+03  0.7546771E-02  0.1008789E+00
          2   -1    0    0  503    0 -0.00000000000E+00  0.00000000000E+00  0.26237051073E+04  0.26237051073E+04  0.00000000000E+00 0. -1.
         21   -1    0    0  501  502  0.00000000000E+00 -0.00000000000E+00 -0.30923071074E+03  0.30923071074E+03  0.00000000000E+00 0. -1.
         23    2    1    2    0    0 -0.57499777717E+02  0.44687878912E+03  0.11589111855E+04  0.12467656741E+04  0.91338018933E+02 0.  0.
         24    2    1    2    0    0 -0.48157361534E+03 -0.28156564888E+03  0.48040632826E+03  0.74072774530E+03  0.81822923504E+02 0.  0.
        -11    1    4    4    0    0 -0.15541313161E+03 -0.10941653274E+03  0.21114430638E+03  0.28409001607E+03  0.00000000000E+00 0.  1.
         12    1    4    4    0    0 -0.32616048373E+03 -0.17214911613E+03  0.26926202189E+03  0.45663772924E+03  0.00000000000E+00 0. -1.
        -13    1    3    3    0    0 -0.34028073138E+02  0.55767733321E+02  0.21671703487E+03  0.22634978030E+03  0.00000000000E+00 0.  1.
         13    1    3    3    0    0 -0.23471704578E+02  0.39111105580E+03  0.94219415062E+03  0.10204158938E+04  0.00000000000E+00 0. -1.
         21    1    1    2  503  502 -0.39295640206E+02 -0.31442270328E+02  0.56545374400E+01  0.50643237418E+02  0.00000000000E+00 0. -1.
          1    1    1    2  501    0  0.57836903326E+03 -0.13387086991E+03  0.66950234534E+03  0.89479916119E+03  0.00000000000E+00 0. -1.
<scales pt_clust_5="13000.00000" pt_clust_6="13000.00000" pt_clust_7="13000.00000" pt_clust_8="13000.00000" pt_clust_9="50.32657" pt_clust_10="536.55416"></scales>
<clustering>
<clus scale="   50.327">  2  9  1 -1</clus>
<clus scale="   81.823">  5  6 -1 -1</clus>
<clus scale="   91.338">  7  8 -1 -1</clus>
<clus scale="  455.847">  1  7  2 -1</clus>
<clus scale="  536.554">  2 10  1 -1</clus>
<clus scale="   50.327">  2  5  1 -1</clus>
</clustering>
</event>
<event>
10    4  0.7204077E-005  0.9692592E+02  0.7546771E-02  0.1291086E+00
         21   -1    0    0  501  502  0.00000000000E+00  0.00000000000E+00  0.98670340064E+03  0.98670340064E+03  0.00000000000E+00 0. -1.
          2   -1    0    0  503    0 -0.00000000000E+00 -0.00000000000E+00 -0.10529488220E+03  0.10529488220E+03  0.00000000000E+00 0. -1.
         23    2    1    2    0    0 -0.27305942930E+02 -0.76380960496E+01 -0.58744347085E+02  0.11153514240E+03  0.90472286619E+02 0.  0.
         24    2    1    2    0    0  0.96293589086E+02  0.19027590415E+02  0.24373907359E+03  0.27543062232E+03  0.82575948174E+02 0.  0.
        -13    1    4    4    0    0  0.41929907581E+02 -0.31615296779E+01  0.19391855934E+03  0.19842509941E+03  0.00000000000E+00 0.  1.
         14    1    4    4    0    0  0.54363681505E+02  0.22189120093E+02  0.49820514253E+02  0.77005522904E+02  0.00000000000E+00 0. -1.
        -13    1    3    3    0    0  0.77350252812E+01  0.32716273948E+02 -0.21395144173E+01  0.33686239313E+02  0.00000000000E+00 0.  1.
         13    1    3    3    0    0 -0.35040968211E+02 -0.40354369997E+02 -0.56604832667E+02  0.77848903090E+02  0.00000000000E+00 0. -1.
         21    1    1    2  503  502 -0.10504180026E+02  0.34139551011E+02  0.21502160196E+03  0.21796819963E+03  0.00000000000E+00 0. -1.
          1    1    1    2  501    0 -0.58483466130E+02 -0.45529045377E+02  0.48139218996E+03  0.48706431848E+03  0.00000000000E+00 0. -1.
<scales pt_clust_5="13000.00000" pt_clust_6="13000.00000" pt_clust_7="13000.00000" pt_clust_8="13000.00000" pt_clust_9="35.71900" pt_clust_10="69.39398"></scales>
<clustering>
<clus scale="   35.719">  1  9  2 -1</clus>
<clus scale="   69.394">  1 10  2 -1</clus>
<clus scale="   82.576">  5  6 -1 -1</clus>
<clus scale="   89.600">  1  5  2 -1</clus>
<clus scale="   90.472">  7  8 -1 -1</clus>
<clus scale="   35.719">  1  5  2 -1</clus>
</clustering>
</event>
<event>
10    4  0.7204077E-005  0.3311130E+03  0.7546771E-02  0.1111669E+00
         21   -1    0    0  503  502  0.00000000000E+00  0.00000000000E+00  0.11725966486E+03  0.11725966486E+03  0.00000000000E+00 0.  1.
          2   -1    0    0  502    0 -0.00000000000E+00 -0.00000000000E+00 -0.14421319750E+04  0.14421319750E+04  0.00000000000E+00 0. -1.
         24    2    1    2    0    0 -0.73021762728E+02  0.10508464007E+02 -0.71037181731E+02  0.13061176591E+03  0.81058907955E+02 0.  0.
         23    2    1    2    0    0  0.35986468891E+03 -0.11244867036E+02 -0.59154312509E+03  0.69843373771E+03  0.90870103790E+02 0.  0.
        -11    1    3    3    0    0 -0.83139747778E+02  0.27813728729E+02 -0.66556972237E+02  0.11007112119E+03  0.00000000000E+00 0.  1.
         12    1    3    3    0    0  0.10117985051E+02 -0.17305264721E+02 -0.44802094937E+01  0.20540644723E+02  0.00000000000E+00 0. -1.
        -11    1    4    4    0    0  0.30931004473E+03  0.20967411671E+02 -0.51634825496E+03  0.60226892376E+03  0.00000000000E+00 0.  1.
         11    1    4    4    0    0  0.50554644177E+02 -0.32212278707E+02 -0.75194870134E+02  0.96164813949E+02  0.00000000000E+00 0. -1.
         21    1    1    2  503  501 -0.10901091804E+02  0.19164802504E+02 -0.15622587836E+02  0.27022004149E+02  0.00000000000E+00 0. -1.
          1    1    1    2  501    0 -0.27594183438E+03 -0.18428399475E+02 -0.64666941545E+03  0.70332413207E+03  0.00000000000E+00 0. -1.
<scales pt_clust_5="13000.00000" pt_clust_6="13000.00000" pt_clust_7="13000.00000" pt_clust_8="13000.00000" pt_clust_9="22.04821" pt_clust_10="318.39993"></scales>
<clustering>
<clus scale="   22.048">  1  9  2 -1</clus>
<clus scale="   81.059">  5  6 -1 -1</clus>
<clus scale="   90.870">  7  8 -1 -1</clus>
<clus scale="  112.163">  2  5  1 -1</clus>
<clus scale="  318.400">  1 10  2 -1</clus>
<clus scale="   22.048">  1  5  2 -1</clus>
</clustering>
</event>
<event>
10    4  0.7204077E-005  0.2294242E+03  0.7546771E-02  0.1168390E+00
         21   -1    0    0  501  502  0.00000000000E+00  0.00000000000E+00  0.99211506104E+02  0.99211506104E+02  0.00000000000E+00 0. -1.
          2   -1    0    0  503    0 -0.00000000000E+00 -0.00000000000E+00 -0.13421717786E+04  0.13421717786E+04  0.00000000000E+00 0. -1.
         24    2    1    2    0    0  0.67087342888E+01 -0.21774034829E+02 -0.18041419337E+03  0.19868741359E+03  0.80051804741E+02 0.  0.
         23    2    1    2    0    0  0.16074447016E+03 -0.65615369030E+02 -0.28708171416E+03  0.34694429631E+03  0.88375747798E+02 0.  0.
        -13    1    3    3    0    0  0.41818052942E+02 -0.11490468897E+02 -0.12478640887E+03  0.13210763893E+03  0.00000000000E+00 0.  1.
         14    1    3    3    0    0 -0.35109318654E+02 -0.10283565932E+02 -0.55627784502E+02  0.66579774656E+02  0.00000000000E+00 0. -1.
        -13    1    4    4    0    0  0.11532553497E+03 -0.10446971406E+02 -0.22154686219E+03  0.24998426025E+03  0.00000000000E+00 0.  1.
         13    1    4    4    0    0  0.45418935188E+02 -0.55168397624E+02 -0.65534851973E+02  0.96960036062E+02  0.00000000000E+00 0. -1.
         21    1    1    2  503  502  0.45028826086E+02 -0.36028043743E+02  0.21668374099E+02  0.61604655268E+02  0.00000000000E+00 0. -1.
          1    1    1    2  501    0 -0.21248203054E+03  0.12341744760E+03 -0.79713273908E+03  0.83414691954E+03  0.00000000000E+00 0. -1.
<scales pt_clust_5="13000.00000" pt_clust_6="13000.00000" pt_clust_7="13000.00000" pt_clust_8="13000.00000" pt_clust_9="57.66815" pt_clust_10="211.71967"></scales>
<clustering>
<clus scale="   57.668">  1  9  2 -1</clus>
<clus scale="   80.052">  5  6 -1 -1</clus>
<clus scale="   85.767">  2  5  1 -1</clus>
<clus scale="   88.376">  7  8 -1 -1</clus>
<clus scale="  211.720">  1 10  2 -1</clus>
<clus scale="   57.668">  1  5  2 -1</clus>
</clustering>
</event>
<event>
10    4  0.7204077E-005  0.1253331E+03  0.7546771E-02  0.1245721E+00
         21   -1    0    0  503  502  0.00000000000E+00  0.00000000000E+00  0.11505115319E+03  0.11505115319E+03  0.00000000000E+00 0. -1.
          2   -1    0    0  502    0 -0.00000000000E+00 -0.00000000000E+00 -0.62873686110E+03  0.62873686110E+03  0.00000000000E+00 0. -1.
         23    2    1    2    0    0 -0.67597009567E+02  0.18082806036E+02 -0.21039705705E+03  0.24019784841E+03  0.92367424935E+02 0.  0.
         24    2    1    2    0    0  0.16363948881E+03 -0.48699669015E+02 -0.50245635108E+01  0.17882253741E+03  0.52940660984E+02 0.  0.
        -13    1    4    4    0    0  0.63890803251E+02 -0.60082352956E+01  0.20486178276E+02  0.67363321858E+02  0.00000000000E+00 0.  1.
         14    1    4    4    0    0  0.99748685561E+02 -0.42691433720E+02 -0.25510741787E+02  0.11145921555E+03  0.00000000000E+00 0. -1.
        -11    1    3    3    0    0  0.15266851622E+02 -0.18155022542E+02 -0.62369661859E+02  0.66728227328E+02  0.00000000000E+00 0.  1.
         11    1    3    3    0    0 -0.82863861190E+02  0.36237828578E+02 -0.14802739519E+03  0.17346962108E+03  0.00000000000E+00 0. -1.
         21    1    1    2  503  501 -0.29458075312E+02  0.26780425055E+02 -0.34431201037E+02  0.52635320575E+02  0.00000000000E+00 0. -1.
          1    1    1    2  501    0 -0.66584403932E+02  0.38364379242E+01 -0.26383288632E+03  0.27213230790E+03  0.00000000000E+00 0. -1.
<scales pt_clust_5="13000.00000" pt_clust_6="13000.00000" pt_clust_7="13000.00000" pt_clust_8="13000.00000" pt_clust_9="39.81167" pt_clust_10="67.91416"></scales>
<clustering>
<clus scale="   39.812">  1  9  2 -1</clus>
<clus scale="   52.941">  5  6 -1 -1</clus>
<clus scale="   67.914">  1 10  2 -1</clus>
<clus scale="   92.367">  7  8 -1 -1</clus>
<clus scale="   99.897">  1  5  2 -1</clus>
<clus scale="   39.812">  1  5  2 -1</clus>
</clustering>
</event>
<event>
10    4  0.7204077E-005  0.1689289E+03  0.7546771E-02  0.1197117E+00
          2   -1    0    0  502    0 -0.00000000000E+00  0.00000000000E+00  0.26188159463E+03  0.26188159463E+03  0.00000000000E+00 0. -1.
         21   -1    0    0  503  502  0.00000000000E+00 -0.00000000000E+00 -0.31387847724E+03  0.31387847724E+03  0.00000000000E+00 0. -1.
         23    2    1    2    0    0 -0.71090165253E+02 -0.30877432935E+01  0.14808613081E+03  0.18625825591E+03  0.87745598201E+02 0.  0.
         24    2    1    2    0    0  0.81919794226E+02  0.14284577453E+03 -0.12459744261E+03  0.22170753951E+03  0.80708998144E+02 0.  0.
        -13    1    4    4    0    0  0.67158173328E+02  0.10056373944E+03 -0.42478912238E+02  0.12817076078E+03  0.00000000000E+00 0.  1.
         14    1    4    4    0    0  0.14761620899E+02  0.42282035088E+02 -0.82118530376E+02  0.93536778723E+02  0.00000000000E+00 0. -1.
        -13    1    3    3    0    0 -0.35537418484E+02  0.40860173646E+02  0.91175966776E+02  0.10604489059E+03  0.00000000000E+00 0. -1.
         13    1    3    3    0    0 -0.35552746768E+02 -0.43947916940E+02  0.56910164033E+02  0.80213365323E+02  0.00000000000E+00 0.  1.
         21    1    1    2  503  501 -0.11194003122E+02 -0.21239934112E+02 -0.35214968823E+02  0.42620822801E+02  0.00000000000E+00 0. -1.
          1    1    1    2  501    0  0.36437414812E+00 -0.11851809712E+03 -0.40270601991E+02  0.12517345365E+03  0.00000000000E+00 0. -1.
<scales pt_clust_5="13000.00000" pt_clust_6="13000.00000" pt_clust_7="13000.00000" pt_clust_8="13000.00000" pt_clust_9="23.84715" pt_clust_10="157.57637"></scales>
<clustering>
<clus scale="   23.847">  9 10 -1 -1</clus>
<clus scale="   80.709">  5  6 -1 -1</clus>
<clus scale="   87.746">  7  8 -1 -1</clus>
<clus scale="  112.972">  1  7  2 -1</clus>
<clus scale="  157.576">  2  9  1 -1</clus>
<clus scale="  157.576">  2  5  1 -1</clus>
</clustering>
</event>
<event>
10    4  0.7204077E-005  0.1541202E+03  0.7546771E-02  0.1208435E+00
          4   -1    0    0  502    0 -0.00000000000E+00  0.00000000000E+00  0.20456719927E+03  0.20456719927E+03  0.00000000000E+00 0. -1.
         21   -1    0    0  503  502  0.00000000000E+00 -0.00000000000E+00 -0.31606736547E+03  0.31606736547E+03  0.00000000000E+00 0. -1.
         24    2    1    2    0    0  0.52646487509E+02  0.66390073134E+02  0.84947269170E+02  0.14416437910E+03  0.79925185036E+02 0.  0.
         23    2    1    2    0    0 -0.67700003957E+01 -0.16807752151E+03 -0.75056882284E+02  0.20571823267E+03  0.91600052034E+02 0.  0.
        -13    1    3    3    0    0  0.73053387991E+02  0.60598080758E+02  0.73595499394E+02  0.12010504744E+03  0.00000000000E+00 0.  1.
         14    1    3    3    0    0 -0.20406900481E+02  0.57919923762E+01  0.11351769776E+02  0.24059331661E+02  0.00000000000E+00 0. -1.
        -11    1    4    4    0    0 -0.40033427463E+02 -0.14649274687E+03 -0.58316491271E+02  0.16267640687E+03  0.00000000000E+00 0. -1.
         11    1    4    4    0    0  0.33263427067E+02 -0.21584774641E+02 -0.16740391013E+02  0.43041825795E+02  0.00000000000E+00 0.  1.
         21    1    1    2  503  501 -0.12678131385E+02  0.18516500409E+02 -0.54611939699E+02  0.59042863756E+02  0.00000000000E+00 0.  1.
          3    1    1    2  501    0 -0.33198355729E+02  0.83170947965E+02 -0.66778613385E+02  0.11170908922E+03  0.00000000000E+00 0. -1.
<scales pt_clust_5="13000.00000" pt_clust_6="13000.00000" pt_clust_7="13000.00000" pt_clust_8="13000.00000" pt_clust_9="22.24999" pt_clust_10="131.67398"></scales>
<clustering>
<clus scale="   22.250">  9 10 -1 -1</clus>
<clus scale="   79.925">  5  6 -1 -1</clus>
<clus scale="   91.600">  7  8 -1 -1</clus>
<clus scale="  116.479">  1  5  2 -1</clus>
<clus scale="  131.674">  2  9  1 -1</clus>
<clus scale="  131.674">  2  5  1 -1</clus>
</clustering>
</event>
<event>
10    4  0.7204077E-005  0.1303877E+03  0.7546771E-02  0.1232485E+00
         21   -1    0    0  501  502  0.00000000000E+00  0.00000000000E+00  0.11597840204E+03  0.11597840204E+03  0.00000000000E+00 0.  1.
         -1   -1    0    0    0  501 -0.00000000000E+00 -0.00000000000E+00 -0.32683999485E+03  0.32683999485E+03  0.00000000000E+00 0.  1.
         23    2    1    2    0    0 -0.18690161766E+02  0.45111975636E+02 -0.66865902063E+02  0.12902754504E+03  0.98957799221E+02 0.  0.
         24    2    1    2    0    0  0.73750420595E+02 -0.10125401253E+03 -0.12824331465E+03  0.19600165286E+03  0.79238883014E+02 0.  0.
        -11    1    4    4    0    0  0.82114443081E+02 -0.10716330035E+03 -0.10646170665E+03  0.17193268941E+03  0.00000000000E+00 0.  1.
         12    1    4    4    0    0 -0.83640224861E+01  0.59092878236E+01 -0.21781607992E+02  0.24068963448E+02  0.00000000000E+00 0. -1.
        -13    1    3    3    0    0  0.25111364050E+02  0.24735346000E+02  0.11406297753E+02  0.37047558282E+02  0.00000000000E+00 0.  1.
         13    1    3    3    0    0 -0.43801525817E+02  0.20376629636E+02 -0.78272199816E+02  0.91979986754E+02  0.00000000000E+00 0. -1.
         21    1    1    2  503  502 -0.39962305802E+01 -0.20666294314E+02  0.80463479537E+01  0.22534624357E+02  0.00000000000E+00 0.  1.
         -2    1    1    2    0  503 -0.51064028248E+02  0.76808331204E+02 -0.23798724049E+02  0.95254574639E+02  0.00000000000E+00 0.  1.
<scales pt_clust_5="13000.00000" pt_clust_6="13000.00000" pt_clust_7="13000.00000" pt_clust_8="13000.00000" pt_clust_9="21.04912" pt_clust_10="87.06986"></scales>
<clustering>
<clus scale="   21.049">  1  9  2 -1</clus>
<clus scale="   79.239">  5  6 -1 -1</clus>
<clus scale="   87.070">  1 10  2 -1</clus>
<clus scale="   98.958">  7  8 -1 -1</clus>
<clus scale="  116.134">  1  5  2 -1</clus>
<clus scale="   21.049">  1  5  2 -1</clus>
</clustering>
</event>
<event>
10    4  0.7204077E-005  0.9956851E+02  0.7546771E-02  0.1287846E+00
          2   -1    0    0  503    0 -0.00000000000E+00  0.00000000000E+00  0.94161518615E+03  0.94161518615E+03  0.00000000000E+00 0. -1.
         21   -1    0    0  501  502  0.00000000000E+00 -0.00000000000E+00 -0.84486481366E+02  0.84486481366E+02  0.00000000000E+00 0. -1.
         23    2    1    2    0    0  0.30827954476E+01 -0.26300142793E+02  0.52995681516E+03  0.53864370045E+03  0.92636974049E+02 0.  0.
         24    2    1    2    0    0 -0.16781548645E+02  0.52616634326E+02  0.29010532977E+03  0.30592959614E+03  0.79885448307E+02 0.  0.
        -13    1    4    4    0    0 -0.25431876116E+02  0.12044401598E+02  0.25132892351E+02  0.37729434273E+02  0.00000000000E+00 0.  1.
         14    1    4    4    0    0  0.86503274712E+01  0.40572232728E+02  0.26497243742E+03  0.26820016187E+03  0.00000000000E+00 0. -1.
        -13    1    3    3    0    0 -0.44447545354E+02 -0.84965967266E+01  0.22733874908E+03  0.23179879913E+03  0.00000000000E+00 0.  1.
         13    1    3    3    0    0  0.47530340801E+02 -0.17803546066E+02  0.30261806608E+03  0.30684490132E+03  0.00000000000E+00 0. -1.
         21    1    1    2  503  502  0.50940650839E+02 -0.20293892176E+02 -0.57657187823E+02  0.79568481670E+02  0.00000000000E+00 0. -1.
          1    1    1    2  501    0 -0.37241897641E+02 -0.60225993579E+01  0.94723747688E+02  0.10195988927E+03  0.00000000000E+00 0. -1.
<scales pt_clust_5="13000.00000" pt_clust_6="13000.00000" pt_clust_7="13000.00000" pt_clust_8="13000.00000" pt_clust_9="31.92951" pt_clust_10="37.72575"></scales>
<clustering>
<clus scale="   37.726">  2 10  1 -1</clus>
<clus scale="   31.930">  2  9  1 -1</clus>
<clus scale="   79.885">  5  6 -1 -1</clus>
<clus scale="   87.829">  2  5  1 -1</clus>
<clus scale="   92.637">  7  8 -1 -1</clus>
<clus scale="   37.726">  2  5  1 -1</clus>
</clustering>
</event>
<event>
10    4  0.7204077E-005  0.9746581E+02  0.7546771E-02  0.1291609E+00
         21   -1    0    0  501  502  0.00000000000E+00  0.00000000000E+00  0.28065843155E+02  0.28065843155E+02  0.00000000000E+00 0. -1.
          2   -1    0    0  503    0 -0.00000000000E+00 -0.00000000000E+00 -0.11915637981E+04  0.11915637981E+04  0.00000000000E+00 0. -1.
         24    2    1    2    0    0  0.34223500772E+02 -0.59053341050E+01 -0.74038779489E+03  0.74553449805E+03  0.80258831153E+02 0.  0.
         23    2    1    2    0    0 -0.33151198693E+02 -0.36979570592E+02 -0.32492786010E+03  0.34113182332E+03  0.91248649263E+02 0.  0.
        -11    1    3    3    0    0  0.22193195249E+01  0.23518236416E+02 -0.72887786730E+02  0.76620247178E+02  0.00000000000E+00 0.  1.
         12    1    3    3    0    0  0.32004181247E+02 -0.29423570521E+02 -0.66750000816E+03  0.66891425087E+03  0.00000000000E+00 0. -1.
        -13    1    4    4    0    0 -0.43495044064E+02  0.17977178836E+02 -0.17108950811E+03  0.17744468885E+03  0.00000000000E+00 0.  1.
         13    1    4    4    0    0  0.10343845371E+02 -0.54956749429E+02 -0.15383835199E+03  0.16368713446E+03  0.00000000000E+00 0. -1.
         21    1    1    2  503  502  0.28660237755E+02  0.38675591577E+02 -0.25836159014E+02  0.54632570181E+02  0.00000000000E+00 0. -1.
          1    1    1    2  501    0 -0.29732539834E+02  0.42093131203E+01 -0.72346140963E+02  0.78330749736E+02  0.00000000000E+00 0. -1.
<scales pt_clust_5="13000.00000" pt_clust_6="13000.00000" pt_clust_7="13000.00000" pt_clust_8="13000.00000" pt_clust_9="42.69501" pt_clust_10="30.02902"></scales>
<clustering>
<clus scale="   30.029">  1 10  2 -1</clus>
<clus scale="   42.695">  1  9  2 -1</clus>
<clus scale="   80.259">  5  6 -1 -1</clus>
<clus scale="   87.263">  2  5  1 -1</clus>
<clus scale="   91.249">  7  8 -1 -1</clus>
<clus scale="   30.029">  1  5  2 -1</clus>
</clustering>
</event>
<event>
10    4  0.7204077E-005  0.1597796E+03  0.7546771E-02  0.1219894E+00
         21   -1    0    0  503  502  0.00000000000E+00  0.00000000000E+00  0.32278487434E+03  0.32278487434E+03  0.00000000000E+00 0.  1.
          2   -1    0    0  502    0 -0.00000000000E+00 -0.00000000000E+00 -0.60332359872E+03  0.60332359872E+03  0.00000000000E+00 0. -1.
         24    2    1    2    0    0 -0.98061471844E+01  0.21047924206E+02 -0.10880142242E+02  0.85508922734E+02  0.81573419298E+02 0.  0.
         23    2    1    2    0    0 -0.97148501878E+02  0.10859988561E+03 -0.10795280803E+03  0.20390183996E+03  0.93222234501E+02 0.  0.
        -11    1    3    3    0    0  0.35768563946E+02  0.14173638425E+02 -0.82150341433E+01  0.39341695171E+02  0.00000000000E+00 0.  1.
         12    1    3    3    0    0 -0.45574711131E+02  0.68742857817E+01 -0.26651080983E+01  0.46167227563E+02  0.00000000000E+00 0. -1.
        -13    1    4    4    0    0 -0.29374127820E+02  0.98657170474E+02 -0.77941915163E+02  0.12911629955E+03  0.00000000000E+00 0. -1.
         13    1    4    4    0    0 -0.67774374057E+02  0.99427151370E+01 -0.30010892872E+02  0.74785540408E+02  0.00000000000E+00 0.  1.
         21    1    1    2  503  501  0.13164699441E+02 -0.36925998848E+02  0.22486071073E+03  0.22825244343E+03  0.00000000000E+00 0.  1.
          1    1    1    2  501    0  0.93789949621E+02 -0.92721810969E+02 -0.38656648483E+03  0.40844526693E+03  0.00000000000E+00 0. -1.
<scales pt_clust_5="13000.00000" pt_clust_6="13000.00000" pt_clust_7="13000.00000" pt_clust_8="13000.00000" pt_clust_9="39.20253" pt_clust_10="129.76570"></scales>
<clustering>
<clus scale="   39.203">  1  9  2 -1</clus>
<clus scale="   81.573">  5  6 -1 -1</clus>
<clus scale="   81.985">  2  5  1 -1</clus>
<clus scale="   93.222">  7  8 -1 -1</clus>
<clus scale="  129.766">  1 10  2 -1</clus>
<clus scale="   39.203">  1  5  2 -1</clus>
</clustering>
</event>
<event>
10    4  0.7204077E-005  0.1040041E+03  0.7546771E-02  0.1276091E+00
         21   -1    0    0  503  502  0.00000000000E+00  0.00000000000E+00  0.11418114750E+03  0.11418114750E+03  0.00000000000E+00 0.  1.
         -3   -1    0    0    0  501 -0.00000000000E+00 -0.00000000000E+00 -0.37390597780E+03  0.37390597780E+03  0.00000000000E+00 0.  1.
         24    2    1    2    0    0  0.21659313399E+02  0.48493669060E+02 -0.18128727625E+03  0.20640977822E+03  0.83181477619E+02 0.  0.
         23    2    1    2    0    0 -0.29727029481E+02 -0.13695257564E+02  0.26518988346E+02  0.10116101553E+03  0.91973028435E+02 0.  0.
        -11    1    3    3    0    0  0.34654070907E+02 -0.91804581343E+01 -0.97359279780E+02  0.10374977013E+03  0.00000000000E+00 0.  1.
         12    1    3    3    0    0 -0.12994757508E+02  0.57674127194E+02 -0.83927996465E+02  0.10266000809E+03  0.00000000000E+00 0. -1.
        -13    1    4    4    0    0 -0.50129469480E+02  0.58693646605E+01  0.44808992599E+02  0.67492658635E+02  0.00000000000E+00 0.  1.
         13    1    4    4    0    0  0.20402439999E+02 -0.19564622224E+02 -0.18290004253E+02  0.33668356899E+02  0.00000000000E+00 0. -1.
         21    1    1    2  503  501 -0.23263595144E+02  0.89666659032E+01  0.27753016976E+02  0.37307183058E+02  0.00000000000E+00 0.  1.
         -4    1    1    2    0  502  0.31331311225E+02 -0.43765077399E+02 -0.13270955937E+03  0.14320914849E+03  0.00000000000E+00 0.  1.
<scales pt_clust_5="13000.00000" pt_clust_6="13000.00000" pt_clust_7="13000.00000" pt_clust_8="13000.00000" pt_clust_9="24.93183" pt_clust_10="52.49205"></scales>
<clustering>
<clus scale="   24.932">  1  9  2 -1</clus>
<clus scale="   52.492">  1 10  2 -1</clus>
<clus scale="   83.181">  5  6 -1 -1</clus>
<clus scale="   91.973">  7  8 -1 -1</clus>
<clus scale="   96.317">  2  5  1 -1</clus>
<clus scale="   24.932">  1  5  2 -1</clus>
</clustering>
</event>
<event>
10    4  0.7204077E-005  0.1859912E+03  0.7546771E-02  0.1173403E+00
         -1   -1    0    0    0  501 -0.00000000000E+00  0.00000000000E+00  0.94354181756E+02  0.94354181756E+02  0.00000000000E+00 0.  1.
         21   -1    0    0  503  502  0.00000000000E+00 -0.00000000000E+00 -0.94500649149E+03  0.94500649149E+03  0.00000000000E+00 0.  1.
         23    2    1    2    0    0 -0.10878610504E+03 -0.27903683356E+02 -0.69807840230E+02  0.16045836159E+03  0.90888497914E+02 0.  0.
         24    2    1    2    0    0 -0.49952992347E+02 -0.11445587194E+03 -0.30042411071E+03  0.33660438007E+03  0.86327367159E+02 0.  0.
        -13    1    4    4    0    0 -0.17678111399E+02 -0.29537716434E+02 -0.19241793567E+03  0.19547289909E+03  0.00000000000E+00 0.  1.
         14    1    4    4    0    0 -0.32274880947E+02 -0.84918155504E+02 -0.10800617505E+03  0.14113148098E+03  0.00000000000E+00 0. -1.
        -11    1    3    3    0    0 -0.25101485945E+01 -0.31458741966E+02  0.28241284756E+01  0.31684838546E+02  0.00000000000E+00 0. -1.
         11    1    3    3    0    0 -0.10627595645E+03  0.35550586091E+01 -0.72631968705E+02  0.12877352305E+03  0.00000000000E+00 0.  1.
         21    1    1    2  503  501  0.16538451204E+02 -0.26183867532E+02 -0.63617059888E+02  0.70754827369E+02  0.00000000000E+00 0. -1.
         -2    1    1    2    0  502  0.14220064618E+03  0.16854342283E+03 -0.41680329891E+03  0.47154310422E+03  0.00000000000E+00 0.  1.
<scales pt_clust_5="13000.00000" pt_clust_6="13000.00000" pt_clust_7="13000.00000" pt_clust_8="13000.00000" pt_clust_9="30.96959" pt_clust_10="164.74331"></scales>
<clustering>
<clus scale="   30.970">  2  9  1 -1</clus>
<clus scale="   86.327">  5  6 -1 -1</clus>
<clus scale="   90.888">  7  8 -1 -1</clus>
<clus scale="  143.562">  1  7  2 -1</clus>
<clus scale="  164.743">  2 10  1 -1</clus>
<clus scale="   30.970">  2  5  1 -1</clus>
</clustering>
</event>
<event>
10    4  0.7204077E-005  0.1537061E+03  0.7546771E-02  0.1218954E+00
         21   -1    0    0  503  502  0.00000000000E+00  0.00000000000E+00  0.40843400271E+03  0.40843400271E+03  0.00000000000E+00 0. -1.
          2   -1    0    0  502    0 -0.00000000000E+00 -0.00000000000E+00 -0.27049448550E+03  0.27049448550E+03  0.00000000000E+00 0. -1.
         23    2    1    2    0    0 -0.18347456399E+02  0.12565632698E+02 -0.97733527714E+02  0.13555433540E+03  0.91261224645E+02 0.  0.
         24    2    1    2    0    0  0.37761465676E+02  0.97613106358E+02  0.10754912079E+03  0.16965069704E+03  0.79122050021E+02 0.  0.
        -13    1    4    4    0    0  0.17673757767E+02  0.62880726522E+02  0.12530825563E+02  0.66508413534E+02  0.00000000000E+00 0.  1.
         14    1    4    4    0    0  0.20087707910E+02  0.34732379836E+02  0.95018295230E+02  0.10314228350E+03  0.00000000000E+00 0. -1.
        -13    1    3    3    0    0 -0.34642178078E+02  0.35808641709E+02 -0.94700246958E+02  0.10700689743E+03  0.00000000000E+00 0.  1.
         13    1    3    3    0    0  0.16294721679E+02 -0.23243009011E+02 -0.30332807561E+01  0.28547437969E+02  0.00000000000E+00 0. -1.
         21    1    1    2  503  501 -0.15845158641E+03 -0.14474355442E+02  0.12914786396E+03  0.20492823857E+03  0.00000000000E+00 0. -1.
          1    1    1    2  501    0  0.13903757713E+03 -0.95704383614E+02 -0.10239398332E+01  0.16879521720E+03  0.00000000000E+00 0. -1.
<scales pt_clust_5="13000.00000" pt_clust_6="13000.00000" pt_clust_7="13000.00000" pt_clust_8="13000.00000" pt_clust_9="13000.00000" pt_clust_10="153.70606"></scales>
<clustering>
<clus scale="   79.122">  5  6 -1 -1</clus>
<clus scale="   91.261">  7  8 -1 -1</clus>
<clus scale="   93.932">  2  7  1 -1</clus>
<clus scale="  132.099">  2  5  1 -1</clus>
<clus scale="  153.706">  2 10  1 -1</clus>
<clus scale="  153.706">  1  5  2 -1</clus>
</clustering>
</event>
<event>
10    4  0.7204077E-005  0.1550594E+03  0.7546771E-02  0.1216460E+00
         -1   -1    0    0    0  501 -0.00000000000E+00  0.00000000000E+00  0.53176940380E+03  0.53176940380E+03  0.00000000000E+00 0.  1.
         21   -1    0    0  503  502  0.00000000000E+00 -0.00000000000E+00 -0.29289583980E+03  0.29289583980E+03  0.00000000000E+00 0. -1.
         24    2    1    2    0    0  0.50638766296E+02  0.19805982638E+02  0.12226396122E+03  0.15613217635E+03  0.80450100553E+02 0.  0.
         23    2    1    2    0    0 -0.86300061969E+01  0.14220625850E+03 -0.19525323283E+03  0.25727097433E+03  0.88133037725E+02 0.  0.
        -13    1    3    3    0    0 -0.17775515387E+02  0.12317986609E+02  0.58272580593E+02  0.62156217633E+02  0.00000000000E+00 0.  1.
         14    1    3    3    0    0  0.68414281683E+02  0.74879960289E+01  0.63991380630E+02  0.93975958722E+02  0.00000000000E+00 0. -1.
        -13    1    4    4    0    0  0.34418619475E+02  0.24689943555E+02 -0.47970715941E+02  0.63995501929E+02  0.00000000000E+00 0.  1.
         13    1    4    4    0    0 -0.43048625671E+02  0.11751631495E+03 -0.14728251689E+03  0.19327547240E+03  0.00000000000E+00 0. -1.
         21    1    1    2  503  501 -0.12287639365E+02 -0.19388636945E+02 -0.31091135452E+02  0.38646656097E+02  0.00000000000E+00 0. -1.
         -2    1    1    2    0  502 -0.29721120734E+02 -0.14262360420E+03  0.34295397106E+03  0.37261543682E+03  0.00000000000E+00 0.  1.
<scales pt_clust_5="13000.00000" pt_clust_6="13000.00000" pt_clust_7="13000.00000" pt_clust_8="13000.00000" pt_clust_9="22.95442" pt_clust_10="127.57746"></scales>
<clustering>
<clus scale="   22.954">  2  9  1 -1</clus>
<clus scale="   80.450">  5  6 -1 -1</clus>
<clus scale="   88.133">  7  8 -1 -1</clus>
<clus scale="   96.431">  1  5  2 -1</clus>
<clus scale="  127.577">  2 10  1 -1</clus>
<clus scale="   22.954">  2  5  1 -1</clus>
</clustering>
</event>
<event>
10    4  0.7204077E-005  0.2485630E+03  0.7546771E-02  0.1114606E+00
         21   -1    0    0  501  502  0.00000000000E+00  0.00000000000E+00  0.19980164366E+03  0.19980164366E+03  0.00000000000E+00 0.  1.
          2   -1    0    0  503    0 -0.00000000000E+00 -0.00000000000E+00 -0.53250593167E+03  0.53250593167E+03  0.00000000000E+00 0. -1.
         24    2    1    2    0    0 -0.18247926408E+03 -0.17966178262E+03 -0.11360539231E+03  0.29132221296E+03  0.79908752027E+02 0.  0.
         23    2    1    2    0    0  0.13520079864E+03  0.15724535268E+03 -0.29768947018E+02  0.22689663542E+03  0.87123682581E+02 0.  0.
        -11    1    3    3    0    0 -0.67861100094E+02 -0.82854190530E+02 -0.89076276049E+02  0.13930013908E+03  0.00000000000E+00 0.  1.
         12    1    3    3    0    0 -0.11461816399E+03 -0.96807592092E+02 -0.24529116263E+02  0.15202207388E+03  0.00000000000E+00 0. -1.
        -13    1    4    4    0    0  0.20481669520E+02  0.88310736481E+02 -0.19017717486E+02  0.92628065631E+02  0.00000000000E+00 0.  1.
         13    1    4    4    0    0  0.11471912913E+03  0.68934616198E+02 -0.10751229532E+02  0.13426856979E+03  0.00000000000E+00 0. -1.
         21    1    1    2  503  502  0.25485967293E+02 -0.59222263674E+01 -0.53994468266E+01  0.26716311872E+02  0.00000000000E+00 0. -1.
          1    1    1    2  501    0  0.21792498142E+02  0.28338656311E+02 -0.18393050186E+03  0.18737241507E+03  0.00000000000E+00 0. -1.
<scales pt_clust_5="13000.00000" pt_clust_6="13000.00000" pt_clust_7="13000.00000" pt_clust_8="13000.00000" pt_clust_9="26.16500" pt_clust_10="35.84834"></scales>
<clustering>
<clus scale="   26.165">  1  9  2 -1</clus>
<clus scale="   35.848">  1 10  2 -1</clus>
<clus scale="   79.909">  5  6 -1 -1</clus>
<clus scale="   87.124">  7  8 -1 -1</clus>
<clus scale="  246.127">  2  5  1 -1</clus>
<clus scale="   26.165">  1  5  2 -1</clus>
</clustering>
</event>
<event>
10    4  0.7204077E-005  0.1920117E+03  0.7546771E-02  0.1158146E+00
          2   -1    0    0  503    0 -0.00000000000E+00  0.00000000000E+00  0.11795307147E+04  0.11795307147E+04  0.00000000000E+00 0. -1.
         21   -1    0    0  501  502  0.00000000000E+00 -0.00000000000E+00 -0.11389831038E+03  0.11389831038E+03  0.00000000000E+00 0. -1.
         23    2    1    2    0    0 -0.42450602820E+02  0.11628111638E+03  0.33515953470E+03  0.36940153670E+03  0.93820199894E+02 0.  0.
         24    2    1    2    0    0 -0.24268199099E+02 -0.22725351443E+03  0.70231158213E+03  0.74283262639E+03  0.79533936962E+02 0.  0.
        -11    1    4    4    0    0 -0.29055342954E+02 -0.11656747617E+03  0.47504365539E+03  0.48999863671E+03  0.00000000000E+00 0.  1.
         12    1    4    4    0    0  0.47871438555E+01 -0.11068603826E+03  0.22726792675E+03  0.25283398968E+03  0.00000000000E+00 0. -1.
        -13    1    3    3    0    0 -0.64958157465E+02  0.10535764164E+03  0.22873539093E+03  0.26007628484E+03  0.00000000000E+00 0. -1.
         13    1    3    3    0    0  0.22507554644E+02  0.10923474743E+02  0.10642414377E+03  0.10932525186E+03  0.00000000000E+00 0.  1.
         21    1    1    2  503  502  0.48733427444E+01 -0.22152791999E+02  0.25845148454E+02  0.34387023155E+02  0.00000000000E+00 0. -1.
          1    1    1    2  501    0  0.61845459174E+02  0.13312519004E+03  0.23161390279E+01  0.14680783884E+03  0.00000000000E+00 0. -1.
<scales pt_clust_5="13000.00000" pt_clust_6="13000.00000" pt_clust_7="13000.00000" pt_clust_8="13000.00000" pt_clust_9="22.68250" pt_clust_10="135.20682"></scales>
<clustering>
<clus scale="   22.682">  2  9  1 -1</clus>
<clus scale="   79.534">  5  6 -1 -1</clus>
<clus scale="   93.820">  7  8 -1 -1</clus>
<clus scale="  135.207">  2 10  1 -1</clus>
<clus scale="  185.451">  2  5  1 -1</clus>
<clus scale="   22.682">  2  5  1 -1</clus>
</clustering>
</event>
<event>
10    4  0.7204077E-005  0.1540252E+03  0.7546771E-02  0.1216222E+00
          2   -1    0    0  503    0 -0.00000000000E+00  0.00000000000E+00  0.81161455272E+03  0.81161455272E+03  0.00000000000E+00 0. -1.
         21   -1    0    0  501  502  0.00000000000E+00 -0.00000000000E+00 -0.76615488962E+02  0.76615488962E+02  0.00000000000E+00 0.  1.
         23    2    1    2    0    0 -0.44168338801E+02 -0.32107218223E+02  0.24661975619E+03  0.26784451848E+03  0.89093581824E+02 0.  0.
         24    2    1    2    0    0  0.14217260783E+03 -0.15087892605E+02  0.83781503410E+02  0.18441919705E+03  0.80934572365E+02 0.  0.
        -13    1    4    4    0    0  0.14981074624E+03 -0.29926406575E+01  0.74238495533E+02  0.16722311385E+03  0.00000000000E+00 0.  1.
         14    1    4    4    0    0 -0.76381384041E+01 -0.12095251948E+02  0.95430078776E+01  0.17196083197E+02  0.00000000000E+00 0. -1.
        -13    1    3    3    0    0 -0.27898368337E+02 -0.61896028017E+02  0.13395381783E+03  0.15017677101E+03  0.00000000000E+00 0.  1.
         13    1    3    3    0    0 -0.16269970464E+02  0.29788809794E+02  0.11266593836E+03  0.11766774747E+03  0.00000000000E+00 0. -1.
         21    1    1    2  503  502  0.76450182293E+01  0.54957076566E+02  0.11732770171E+03  0.12978642516E+03  0.00000000000E+00 0.  1.
          1    1    1    2  501    0 -0.10564928726E+03 -0.77619657373E+01  0.28727010245E+03  0.30617990099E+03  0.00000000000E+00 0. -1.
<scales pt_clust_5="13000.00000" pt_clust_6="13000.00000" pt_clust_7="13000.00000" pt_clust_8="13000.00000" pt_clust_9="55.48627" pt_clust_10="131.04721"></scales>
<clustering>
<clus scale="   55.486">  1  9  2 -1</clus>
<clus scale="   80.935">  5  6 -1 -1</clus>
<clus scale="   89.094">  7  8 -1 -1</clus>
<clus scale="   98.883">  1  7  2 -1</clus>
<clus scale="  131.047">  2 10  1 -1</clus>
<clus scale="  131.047">  2  5  1 -1</clus>
</clustering>
</event>
<event>
10    4  0.7204077E-005  0.9471040E+02  0.7546771E-02  0.1298727E+00
         21   -1    0    0  501  502  0.00000000000E+00  0.00000000000E+00  0.57047850443E+02  0.57047850443E+02  0.00000000000E+00 0. -1.
          2   -1    0    0  503    0 -0.00000000000E+00 -0.00000000000E+00 -0.46812123292E+03  0.46812123292E+03  0.00000000000E+00 0. -1.
         24    2    1    2    0    0 -0.25498750602E+02  0.38161179301E+01 -0.34454409771E+03  0.35456773170E+03  0.79642275556E+02 0.  0.
         23    2    1    2    0    0  0.10859020148E+02 -0.26596011480E+02 -0.41957004710E+02  0.10467076265E+03  0.91489410120E+02 0.  0.
        -13    1    3    3    0    0 -0.46235563258E+02  0.25679387096E+02 -0.19685123530E+03  0.20383220323E+03  0.00000000000E+00 0.  1.
         14    1    3    3    0    0  0.20736812655E+02 -0.21863269166E+02 -0.14769286240E+03  0.15073552847E+03  0.00000000000E+00 0. -1.
        -13    1    4    4    0    0  0.13316893591E+01  0.27339609872E+02 -0.41722247499E+02  0.49899635278E+02  0.00000000000E+00 0.  1.
         13    1    4    4    0    0  0.95273307893E+01 -0.53935621352E+02 -0.23475721118E+00  0.54771127371E+02  0.00000000000E+00 0. -1.
         21    1    1    2  503  502  0.16210538434E+02 -0.12847724469E+02  0.29359402553E+01  0.20891752572E+02  0.00000000000E+00 0.  1.
          1    1    1    2  501    0 -0.15708079802E+01  0.35627618018E+02 -0.27508220310E+02  0.45038836442E+02  0.00000000000E+00 0. -1.
<scales pt_clust_5="13000.00000" pt_clust_6="13000.00000" pt_clust_7="13000.00000" pt_clust_8="13000.00000" pt_clust_9="20.68443" pt_clust_10="33.17004"></scales>
<clustering>
<clus scale="   20.684">  1  9  2 -1</clus>
<clus scale="   33.170">  1 10  2 -1</clus>
<clus scale="   79.642">  5  6 -1 -1</clus>
<clus scale="   83.323">  2  5  1 -1</clus>
<clus scale="   91.489">  7  8 -1 -1</clus>
<clus scale="   20.684">  1  5  2 -1</clus>
</clustering>
</event>
<event>
10    4  0.7204077E-005  0.1438768E+03  0.7546771E-02  0.1220770E+00
         21   -1    0    0  501  502  0.00000000000E+00  0.00000000000E+00  0.10857888117E+03  0.10857888117E+03  0.00000000000E+00 0. -1.
          2   -1    0    0  503    0 -0.00000000000E+00 -0.00000000000E+00 -0.39858939253E+03  0.39858939253E+03  0.00000000000E+00 0. -1.
         23    2    1    2    0    0  0.48940941910E+02  0.41968713968E+02 -0.14925965961E+03  0.18582793438E+03  0.89983256564E+02 0.  0.
         24    2    1    2    0    0 -0.50141928171E+02  0.69196418348E+02 -0.61039614103E+02  0.14382771661E+03  0.98276244853E+02 0.  0.
        -13    1    4    4    0    0  0.21214296138E+02 -0.18778430055E+01 -0.33013909901E+02  0.39287286772E+02  0.00000000000E+00 0.  1.
         14    1    4    4    0    0 -0.71356224309E+02  0.71074261353E+02 -0.28025704203E+02  0.10454042984E+03  0.00000000000E+00 0. -1.
        -11    1    3    3    0    0 -0.12138944268E+02 -0.18673451602E+02 -0.16960534075E+02  0.27994847361E+02  0.00000000000E+00 0.  1.
         11    1    3    3    0    0  0.61079886178E+02  0.60642165570E+02 -0.13229912553E+03  0.15783308702E+03  0.00000000000E+00 0. -1.
         21    1    1    2  503  502 -0.19171469578E+02  0.14867613364E+02  0.43593394718E+01  0.24649442459E+02  0.00000000000E+00 0. -1.
          1    1    1    2  501    0  0.20372455840E+02 -0.12603274568E+03 -0.84070577114E+02  0.15286318025E+03  0.00000000000E+00 0. -1.
<scales pt_clust_5="13000.00000" pt_clust_6="13000.00000" pt_clust_7="13000.00000" pt_clust_8="13000.00000" pt_clust_9="24.26090" pt_clust_10="105.08250"></scales>
<clustering>
<clus scale="   24.261">  1  9  2 -1</clus>
<clus scale="   89.983">  7  8 -1 -1</clus>
<clus scale="   98.276">  5  6 -1 -1</clus>
<clus scale="  110.244">  2  7  1 -1</clus>
<clus scale="  105.082">  1 10  2 -1</clus>
<clus scale="   24.261">  1  5  2 -1</clus>
</clustering>
</event>
<event>
10    4  0.7204077E-005  0.1978194E+03  0.7546771E-02  0.1153127E+00
          2   -1    0    0  503    0 -0.00000000000E+00  0.00000000000E+00  0.16030187499E+04  0.16030187499E+04  0.00000000000E+00 0. -1.
         21   -1    0    0  501  502  0.00000000000E+00 -0.00000000000E+00 -0.65978612255E+02  0.65978612255E+02  0.00000000000E+00 0.  1.
         24    2    1    2    0    0 -0.11606138530E+03 -0.14498329086E+03  0.66660465963E+03  0.69598223202E+03  0.74425098337E+02 0.  0.
         23    2    1    2    0    0 -0.19990533020E+02  0.18972715106E+03  0.26482025985E+03  0.33881996773E+03  0.90957062656E+02 0.  0.
        -11    1    3    3    0    0 -0.14549443106E+02 -0.39106840262E+02  0.68956569681E+02  0.80598013326E+02  0.00000000000E+00 0.  1.
         12    1    3    3    0    0 -0.10151194219E+03 -0.10587645060E+03  0.59764808995E+03  0.61538421869E+03  0.00000000000E+00 0. -1.
        -13    1    4    4    0    0 -0.42590555656E+02  0.16402191980E+03  0.24879910163E+03  0.30102846805E+03  0.00000000000E+00 0.  1.
         13    1    4    4    0    0  0.22600022637E+02  0.25705231260E+02  0.16021158220E+02  0.37791499680E+02  0.00000000000E+00 0. -1.
         21    1    1    2  503  502  0.30820960899E+02  0.22592341550E+02  0.41511510171E+02  0.56422965219E+02  0.00000000000E+00 0.  1.
          1    1    1    2  501    0  0.10523095742E+03 -0.67336201749E+02  0.56410370795E+03  0.57777219714E+03  0.00000000000E+00 0. -1.
<scales pt_clust_5="13000.00000" pt_clust_6="13000.00000" pt_clust_7="13000.00000" pt_clust_8="13000.00000" pt_clust_9="38.21447" pt_clust_10="126.60903"></scales>
<clustering>
<clus scale="   38.214">  2  9  1 -1</clus>
<clus scale="   74.425">  5  6 -1 -1</clus>
<clus scale="   90.957">  7  8 -1 -1</clus>
<clus scale="  126.609">  2 10  1 -1</clus>
<clus scale="  190.784">  1  5  2 -1</clus>
<clus scale="   38.214">  2  5  1 -1</clus>
</clustering>
</event>
<event>
10    4  0.7204077E-005  0.2229503E+03  0.7546771E-02  0.1159781E+00
         21   -1    0    0  503  502  0.00000000000E+00  0.00000000000E+00  0.26989108226E+03  0.26989108226E+03  0.00000000000E+00 0. -1.
          2   -1    0    0  502    0 -0.00000000000E+00 -0.00000000000E+00 -0.48345519297E+03  0.48345519297E+03  0.00000000000E+00 0. -1.
         24    2    1    2    0    0 -0.83894304993E+02  0.13789865068E+02 -0.12162599951E+03  0.16767145656E+03  0.78053948007E+02 0.  0.
         23    2    1    2    0    0  0.19163526842E+03  0.10956362150E+02  0.89258425277E+02  0.23059566813E+03  0.91450411176E+02 0.  0.
        -11    1    3    3    0    0 -0.19649480367E+02  0.27810353980E+02 -0.86846008379E+02  0.93283155170E+02  0.00000000000E+00 0.  1.
         12    1    3    3    0    0 -0.64244824626E+02 -0.14020488912E+02 -0.34779991128E+02  0.74388301388E+02  0.00000000000E+00 0. -1.
        -11    1    4    4    0    0  0.10136184560E+02 -0.24771017171E+02  0.45815209929E+01  0.27153929066E+02  0.00000000000E+00 0. -1.
         11    1    4    4    0    0  0.18149908386E+03  0.35727379320E+02  0.84676904284E+02  0.20344173906E+03  0.00000000000E+00 0.  1.
         21    1    1    2  503  501  0.34621418746E+02  0.76060329116E+02  0.22845061510E+02  0.86635518909E+02  0.00000000000E+00 0. -1.
          1    1    1    2  501    0 -0.14236238217E+03 -0.10080655633E+03 -0.20404159798E+03  0.26844363163E+03  0.00000000000E+00 0. -1.
<scales pt_clust_5="13000.00000" pt_clust_6="13000.00000" pt_clust_7="13000.00000" pt_clust_8="13000.00000" pt_clust_9="83.56923" pt_clust_10="203.33155"></scales>
<clustering>
<clus scale="   78.054">  5  6 -1 -1</clus>
<clus scale="   83.569">  1  9  2 -1</clus>
<clus scale="   91.450">  7  8 -1 -1</clus>
<clus scale="  114.034">  2  5  1 -1</clus>
<clus scale="  203.332">  1 10  2 -1</clus>
<clus scale="   83.569">  1  5  2 -1</clus>
</clustering>
</event>
<event>
10    4  0.7204077E-005  0.2850672E+03  0.7546771E-02  0.1093189E+00
          2   -1    0    0  502    0 -0.00000000000E+00  0.00000000000E+00  0.15679042160E+04  0.15679042160E+04  0.00000000000E+00 0. -1.
         21   -1    0    0  503  502  0.00000000000E+00 -0.00000000000E+00 -0.35553927819E+03  0.35553927819E+03  0.00000000000E+00 0. -1.
         24    2    1    2    0    0  0.91163121652E+02 -0.33241733497E+03  0.11532336480E+04  0.12065824050E+04  0.84150185586E+02 0.  0.
         23    2    1    2    0    0 -0.14011198741E+02  0.15533678693E+03  0.15159991510E+03  0.23535779739E+03  0.89916224718E+02 0.  0.
        -13    1    3    3    0    0  0.19490707075E+02 -0.12167569609E+03  0.28966765034E+03  0.31478915218E+03  0.00000000000E+00 0.  1.
         14    1    3    3    0    0  0.71672414576E+02 -0.21074163888E+03  0.86356599770E+03  0.89179325280E+03  0.00000000000E+00 0. -1.
        -11    1    4    4    0    0  0.85838495776E+01  0.10670531773E+03  0.45185285343E+02  0.11619559939E+03  0.00000000000E+00 0. -1.
         11    1    4    4    0    0 -0.22595048318E+02  0.48631469201E+02  0.10641462976E+03  0.11916219800E+03  0.00000000000E+00 0.  1.
         21    1    1    2  503  501  0.15186406188E+02  0.42712148875E+02 -0.25042680524E+03  0.25449663923E+03  0.00000000000E+00 0. -1.
          1    1    1    2  501    0 -0.92338329099E+02  0.13436839916E+03  0.15795817996E+03  0.22700665261E+03  0.00000000000E+00 0. -1.
<scales pt_clust_5="13000.00000" pt_clust_6="13000.00000" pt_clust_7="13000.00000" pt_clust_8="13000.00000" pt_clust_9="45.33161" pt_clust_10="172.38590"></scales>
<clustering>
<clus scale="   45.332">  2  9  1 -1</clus>
<clus scale="   84.150">  5  6 -1 -1</clus>
<clus scale="   89.916">  7  8 -1 -1</clus>
<clus scale="  172.386">  2 10  1 -1</clus>
<clus scale="  283.301">  1  5  2 -1</clus>
<clus scale="   45.332">  2  5  1 -1</clus>
</clustering>
</event>
<event>
10    4  0.7204077E-005  0.1332290E+03  0.7546771E-02  0.1241407E+00
         21   -1    0    0  503  502  0.00000000000E+00  0.00000000000E+00  0.78449397889E+03  0.78449397889E+03  0.00000000000E+00 0.  1.
         -1   -1    0    0    0  501 -0.00000000000E+00 -0.00000000000E+00 -0.55104654999E+02  0.55104654999E+02  0.00000000000E+00 0.  1.
         23    2    1    2    0    0 -0.40818579490E+02 -0.26501605435E+02  0.12518953741E+03  0.15553780243E+03  0.78428924415E+02 0.  0.
         24    2    1    2    0    0  0.24945639125E+02 -0.80810207843E+02  0.93837133391E+02  0.15026123003E+03  0.81366178744E+02 0.  0.
        -13    1    4    4    0    0  0.50251798765E+02 -0.70351892687E+02  0.54045652278E+02  0.10195864168E+03  0.00000000000E+00 0.  1.
         14    1    4    4    0    0 -0.25306159640E+02 -0.10458315156E+02  0.39791481113E+02  0.48302588344E+02  0.00000000000E+00 0. -1.
        -11    1    3    3    0    0 -0.15694081061E+02 -0.15921750107E+02  0.12629082638E+03  0.12825435328E+03  0.00000000000E+00 0.  1.
         11    1    3    3    0    0 -0.25124498429E+02 -0.10579855327E+02 -0.11012889723E+01  0.27283449149E+02  0.00000000000E+00 0. -1.
         21    1    1    2  503  501  0.28994329269E+02 -0.13425498124E+02  0.69112050792E+02  0.76140598200E+02  0.00000000000E+00 0.  1.
         -2    1    1    2    0  502 -0.13121388905E+02  0.12073731140E+03  0.44125060231E+03  0.45765900324E+03  0.00000000000E+00 0.  1.
<scales pt_clust_5="13000.00000" pt_clust_6="13000.00000" pt_clust_7="13000.00000" pt_clust_8="13000.00000" pt_clust_9="31.95176" pt_clust_10="105.49651"></scales>
<clustering>
<clus scale="   31.952">  1  9  2 -1</clus>
<clus scale="   78.429">  7  8 -1 -1</clus>
<clus scale="   81.366">  5  6 -1 -1</clus>
<clus scale="   90.735">  2  7  1 -1</clus>
<clus scale="  105.497">  1 10  2 -1</clus>
<clus scale="   31.952">  1  5  2 -1</clus>
</clustering>
</event>
<event>
10    4  0.7204077E-005  0.1293529E+03  0.7546771E-02  0.1249657E+00
          2   -1    0    0  503    0 -0.00000000000E+00  0.00000000000E+00  0.10319552927E+04  0.10319552927E+04  0.00000000000E+00 0. -1.
         21   -1    0    0  501  502  0.00000000000E+00 -0.00000000000E+00 -0.16513252295E+03  0.16513252295E+03  0.00000000000E+00 0. -1.
         24    2    1    2    0    0  0.20341505189E+02  0.12245983274E+02  0.69228482164E+03  0.69732699528E+03  0.80267821305E+02 0.  0.
         23    2    1    2    0    0  0.33916575058E+02  0.58124133746E+02  0.25703779748E+03  0.28123210630E+03  0.92164631480E+02 0.  0.
        -13    1    3    3    0    0 -0.22999738422E+02 -0.89701180748E+01  0.97097674076E+02  0.10018687188E+03  0.00000000000E+00 0.  1.
         14    1    3    3    0    0  0.43341243611E+02  0.21216101349E+02  0.59518714756E+03  0.59714012341E+03  0.00000000000E+00 0. -1.
        -13    1    4    4    0    0 -0.15446383855E+02  0.33029800845E+02  0.29063494253E+02  0.46628802432E+02  0.00000000000E+00 0.  1.
         13    1    4    4    0    0  0.49362958913E+02  0.25094332902E+02  0.22797430323E+03  0.23460330387E+03  0.00000000000E+00 0. -1.
         21    1    1    2  503  502  0.16769311533E+02  0.15460917020E+02 -0.10278772947E+03  0.10528801970E+03  0.00000000000E+00 0. -1.
          1    1    1    2  501    0 -0.71027391780E+02 -0.85831034041E+02  0.20287880135E+02  0.11324069440E+03  0.00000000000E+00 0. -1.
<scales pt_clust_5="13000.00000" pt_clust_6="13000.00000" pt_clust_7="13000.00000" pt_clust_8="13000.00000" pt_clust_9="22.80898" pt_clust_10="90.76268"></scales>
<clustering>
<clus scale="   22.809">  2  9  1 -1</clus>
<clus scale="   80.268">  5  6 -1 -1</clus>
<clus scale="   83.972">  1  5  2 -1</clus>
<clus scale="   90.763">  2 10  1 -1</clus>
<clus scale="   92.165">  7  8 -1 -1</clus>
<clus scale="   22.809">  2  5  1 -1</clus>
</clustering>
</event>
<event>
10    4  0.7204077E-005  0.1695144E+03  0.7546771E-02  0.1201030E+00
         21   -1    0    0  501  502  0.00000000000E+00  0.00000000000E+00  0.13341098404E+03  0.13341098404E+03  0.00000000000E+00 0. -1.
          2   -1    0    0  503    0 -0.00000000000E+00 -0.00000000000E+00 -0.10421553624E+04  0.10421553624E+04  0.00000000000E+00 0. -1.
         23    2    1    2    0    0 -0.34031270103E+02  0.26233047020E+02 -0.15542379781E+03  0.18576139270E+03  0.92219509814E+02 0.  0.
         24    2    1    2    0    0  0.10396918942E+03  0.10129477040E+03 -0.77243967593E+03  0.78996883847E+03  0.79482639205E+02 0.  0.
        -11    1    4    4    0    0  0.22349432512E+02  0.69577282850E+01 -0.35346582477E+02  0.42394433707E+02  0.00000000000E+00 0.  1.
         12    1    4    4    0    0  0.81619756905E+02  0.94337042118E+02 -0.73709309345E+03  0.74757440476E+03  0.00000000000E+00 0. -1.
        -11    1    3    3    0    0 -0.27841757212E+02  0.11252205433E+01 -0.15738030235E+03  0.15982799859E+03  0.00000000000E+00 0.  1.
         11    1    3    3    0    0 -0.61895128916E+01  0.25107826477E+02  0.19565045330E+01  0.25933394113E+02  0.00000000000E+00 0. -1.
         21    1    1    2  503  502  0.10150638152E+01  0.26356859399E+02  0.14975103004E+02  0.30330975947E+02  0.00000000000E+00 0. -1.
          1    1    1    2  501    0 -0.70952983129E+02 -0.15388467682E+03  0.41439924089E+01  0.16950513930E+03  0.00000000000E+00 0. -1.
<scales pt_clust_5="13000.00000" pt_clust_6="13000.00000" pt_clust_7="13000.00000" pt_clust_8="13000.00000" pt_clust_9="26.37640" pt_clust_10="149.72523"></scales>
<clustering>
<clus scale="   26.376">  1  9  2 -1</clus>
<clus scale="   79.483">  5  6 -1 -1</clus>
<clus scale="   92.220">  7  8 -1 -1</clus>
<clus scale="  102.683">  2  7  1 -1</clus>
<clus scale="  149.725">  1 10  2 -1</clus>
<clus scale="   26.376">  1  5  2 -1</clus>
</clustering>
</event>
<event>
10    4  0.7204077E-005  0.1623837E+03  0.7546771E-02  0.1187422E+00
         21   -1    0    0  501  502  0.00000000000E+00  0.00000000000E+00  0.61071472009E+03  0.61071472009E+03  0.00000000000E+00 0.  1.
          2   -1    0    0  503    0 -0.00000000000E+00 -0.00000000000E+00 -0.10663367994E+03  0.10663367994E+03  0.00000000000E+00 0. -1.
         23    2    1    2    0    0 -0.60959282293E+02  0.13397358476E+03  0.34812278379E+02  0.17698838479E+03  0.91913209684E+02 0.  0.
         24    2    1    2    0    0  0.74625896902E+02 -0.87910232668E+02  0.14160710620E+03  0.20054546815E+03  0.82877492559E+02 0.  0.
        -11    1    4    4    0    0  0.82744020442E+02 -0.40771871673E+02  0.10829747359E+03  0.14225772817E+03  0.00000000000E+00 0.  1.
         12    1    4    4    0    0 -0.81181235402E+01 -0.47138360995E+02  0.33309632610E+02  0.58287739978E+02  0.00000000000E+00 0. -1.
        -13    1    3    3    0    0 -0.79007439980E+02  0.11606004551E+03  0.88978041122E+01  0.14068148654E+03  0.00000000000E+00 0. -1.
         13    1    3    3    0    0  0.18048157687E+02  0.17913539245E+02  0.25914474267E+02  0.36306898252E+02  0.00000000000E+00 0.  1.
         21    1    1    2  503  502  0.12249640861E+02 -0.45677016594E+02  0.29156968745E+03  0.29537996917E+03  0.00000000000E+00 0.  1.
          1    1    1    2  501    0 -0.25916255471E+02 -0.38633549476E+00  0.36091968124E+02  0.44434577929E+02  0.00000000000E+00 0. -1.
<scales pt_clust_5="13000.00000" pt_clust_6="13000.00000" pt_clust_7="13000.00000" pt_clust_8="13000.00000" pt_clust_9="45.88856" pt_clust_10="25.91913"></scales>
<clustering>
<clus scale="   25.919">  1 10  2 -1</clus>
<clus scale="   45.889">  1  9  2 -1</clus>
<clus scale="   82.877">  5  6 -1 -1</clus>
<clus scale="   91.913">  7  8 -1 -1</clus>
<clus scale="  157.446">  1  5  2 -1</clus>
<clus scale="   25.919">  1  5  2 -1</clus>
</clustering>
</event>
<event>
10    4  0.7204077E-005  0.1765533E+03  0.7546771E-02  0.1184682E+00
         21   -1    0    0  501  502  0.00000000000E+00  0.00000000000E+00  0.55265052993E+03  0.55265052993E+03  0.00000000000E+00 0. -1.
          2   -1    0    0  503    0 -0.00000000000E+00 -0.00000000000E+00 -0.13979564622E+03  0.13979564622E+03  0.00000000000E+00 0. -1.
         24    2    1    2    0    0  0.52295055870E+01  0.89268771198E+02  0.33642209222E+02  0.13792387098E+03  0.99473286395E+02 0.  0.
         23    2    1    2    0    0 -0.12353309031E+03  0.56598206074E+02  0.22929475607E+03  0.28184616668E+03  0.91637302324E+02 0.  0.
        -13    1    3    3    0    0  0.17017255882E+02 -0.16260590554E+02  0.19958909112E+02  0.30860198571E+02  0.00000000000E+00 0.  1.
         14    1    3    3    0    0 -0.11787750295E+02  0.10552936175E+03  0.13683300109E+02  0.10706367241E+03  0.00000000000E+00 0. -1.
        -11    1    4    4    0    0 -0.11345517845E+03  0.79557242626E+02  0.18829373577E+03  0.23378614866E+03  0.00000000000E+00 0. -1.
         11    1    4    4    0    0 -0.10077911856E+02 -0.22959036552E+02  0.41001020300E+02  0.48060018024E+02  0.00000000000E+00 0.  1.
         21    1    1    2  503  502 -0.20558145706E+02 -0.29963810803E+02  0.61292447393E+02  0.71254694022E+02  0.00000000000E+00 0.  1.
          1    1    1    2  501    0  0.13886173043E+03 -0.11590316647E+03  0.88625471023E+02  0.20142144446E+03  0.00000000000E+00 0. -1.
<scales pt_clust_5="13000.00000" pt_clust_6="13000.00000" pt_clust_7="13000.00000" pt_clust_8="13000.00000" pt_clust_9="36.33823" pt_clust_10="150.90961"></scales>
<clustering>
<clus scale="   36.338">  1  9  2 -1</clus>
<clus scale="   91.637">  7  8 -1 -1</clus>
<clus scale="   99.473">  5  6 -1 -1</clus>
<clus scale="  130.195">  2  5  1 -1</clus>
<clus scale="  150.910">  1 10  2 -1</clus>
<clus scale="   36.338">  1  5  2 -1</clus>
</clustering>
</event>
<event>
10    4  0.7204077E-005  0.2334745E+03  0.7546771E-02  0.1145600E+00
         21   -1    0    0  503  502  0.00000000000E+00  0.00000000000E+00  0.64143243882E+03  0.64143243882E+03  0.00000000000E+00 0. -1.
          2   -1    0    0  502    0 -0.00000000000E+00 -0.00000000000E+00 -0.26857224435E+03  0.26857224435E+03  0.00000000000E+00 0. -1.
         24    2    1    2    0    0 -0.68711526372E+02 -0.77926026064E+02  0.41549336761E+02  0.13793891604E+03  0.80666336090E+02 0.  0.
         23    2    1    2    0    0 -0.14770388947E+03 -0.15063068481E+01 -0.93890439012E+02  0.19631692864E+03  0.88916893832E+02 0.  0.
        -13    1    3    3    0    0  0.18545572068E+01 -0.38901782850E+02  0.42029273058E+02  0.57299632504E+02  0.00000000000E+00 0.  1.
         14    1    3    3    0    0 -0.70566083579E+02 -0.39024243214E+02 -0.47993629772E+00  0.80639283534E+02  0.00000000000E+00 0. -1.
        -13    1    4    4    0    0 -0.11733049044E+03 -0.15929871901E+02 -0.10761109870E+03  0.16000110427E+03  0.00000000000E+00 0.  1.
         13    1    4    4    0    0 -0.30373399029E+02  0.14423565053E+02  0.13720659685E+02  0.36315824369E+02  0.00000000000E+00 0. -1.
         21    1    1    2  503  501 -0.33089460549E+02 -0.22291953794E+02  0.25266749539E+03  0.25579817597E+03  0.00000000000E+00 0. -1.
          1    1    1    2  501    0  0.24950487639E+03  0.10172428671E+03  0.17253380133E+03  0.31995066253E+03  0.00000000000E+00 0. -1.
<scales pt_clust_5="13000.00000" pt_clust_6="13000.00000" pt_clust_7="13000.00000" pt_clust_8="13000.00000" pt_clust_9="39.89791" pt_clust_10="215.87991"></scales>
<clustering>
<clus scale="   39.898">  1  9  2 -1</clus>
<clus scale="   80.666">  5  6 -1 -1</clus>
<clus scale="   88.917">  7  8 -1 -1</clus>
<clus scale="  138.728">  2  5  1 -1</clus>
<clus scale="  215.880">  1 10  2 -1</clus>
<clus scale="   39.898">  1  5  2 -1</clus>
</clustering>
</event>
<event>
10    4  0.7204077E-005  0.2539689E+03  0.7546771E-02  0.1140610E+00
         21   -1    0    0  501  502  0.00000000000E+00  0.00000000000E+00  0.89530727244E+02  0.89530727244E+02  0.00000000000E+00 0.  1.
          2   -1    0    0  503    0 -0.00000000000E+00 -0.00000000000E+00 -0.15319618727E+04  0.15319618727E+04  0.00000000000E+00 0. -1.
         24    2    1    2    0    0  0.40850584996E+02  0.84072904444E+02 -0.30351995870E+03  0.32757803908E+03  0.80286878143E+02 0.  0.
         23    2    1    2    0    0  0.17082702798E+03 -0.16561561649E+03 -0.22012734563E+03  0.33667533267E+03  0.91015522945E+02 0.  0.
        -11    1    3    3    0    0  0.60009229385E+02  0.46433836760E+02 -0.23637550553E+03  0.24825508741E+03  0.00000000000E+00 0.  1.
         12    1    3    3    0    0 -0.19158644389E+02  0.37639067684E+02 -0.67144453165E+02  0.79322951671E+02  0.00000000000E+00 0. -1.
        -13    1    4    4    0    0  0.65956948554E+02 -0.24623420928E+02 -0.10564500064E+03  0.12695470878E+03  0.00000000000E+00 0. -1.
         13    1    4    4    0    0  0.10487007942E+03 -0.14099219556E+03 -0.11448234499E+03  0.20972062388E+03  0.00000000000E+00 0.  1.
         21    1    1    2  503  502  0.12813099916E+02 -0.18565213567E+02 -0.66722626274E+02  0.70432602828E+02  0.00000000000E+00 0.  1.
          1    1    1    2  501    0 -0.22449071289E+03  0.10010792562E+03 -0.85206121481E+03  0.88680662533E+03  0.00000000000E+00 0. -1.
<scales pt_clust_5="13000.00000" pt_clust_6="13000.00000" pt_clust_7="13000.00000" pt_clust_8="13000.00000" pt_clust_9="22.55754" pt_clust_10="237.10009"></scales>
<clustering>
<clus scale="   22.558">  2  9  1 -1</clus>
<clus scale="   80.287">  5  6 -1 -1</clus>
<clus scale="   91.016">  7  8 -1 -1</clus>
<clus scale="  121.488">  2  5  1 -1</clus>
<clus scale="  237.100">  1 10  2 -1</clus>
<clus scale="  237.100">  1  5  2 -1</clus>
</clustering>
</event>
<event>
10    4  0.7204077E-005  0.1792625E+03  0.7546771E-02  0.1195322E+00
          2   -1    0    0  503    0 -0.00000000000E+00  0.00000000000E+00  0.13322536975E+04  0.13322536975E+04  0.00000000000E+00 0. -1.
         21   -1    0    0  501  502  0.00000000000E+00 -0.00000000000E+00 -0.26807671750E+03  0.26807671750E+03  0.00000000000E+00 0.  1.
         23    2    1    2    0    0  0.47650550340E+02  0.18974133447E+02  0.23597933356E+03  0.25790441952E+03  0.90541985043E+02 0.  0.
         24    2    1    2    0    0  0.15261798738E+02  0.15444939558E+03  0.38009031113E+03  0.41808047932E+03  0.78962676507E+02 0.  0.
        -11    1    4    4    0    0 -0.27251625124E+02  0.79302953122E+02  0.23161009381E+03  0.24632264411E+03  0.00000000000E+00 0.  1.
         12    1    4    4    0    0  0.42513423862E+02  0.75146442454E+02  0.14848021731E+03  0.17175783521E+03  0.00000000000E+00 0. -1.
        -13    1    3    3    0    0  0.61324745876E+02 -0.60198373574E+01  0.21165740308E+03  0.22044459434E+03  0.00000000000E+00 0. -1.
         13    1    3    3    0    0 -0.13674195536E+02  0.24993970804E+02  0.24321930481E+02  0.37459825179E+02  0.00000000000E+00 0.  1.
         21    1    1    2  503  502 -0.52991059198E+02 -0.88369718714E+00 -0.22409759141E+03  0.23027931682E+03  0.00000000000E+00 0.  1.
          1    1    1    2  501    0 -0.99212898795E+01 -0.17253983184E+03  0.67220492673E+03  0.69406619935E+03  0.00000000000E+00 0. -1.
<scales pt_clust_5="13000.00000" pt_clust_6="13000.00000" pt_clust_7="13000.00000" pt_clust_8="13000.00000" pt_clust_9="52.99843" pt_clust_10="160.93467"></scales>
<clustering>
<clus scale="   52.998">  2  9  1 -1</clus>
<clus scale="   78.963">  5  6 -1 -1</clus>
<clus scale="   90.542">  7  8 -1 -1</clus>
<clus scale="   98.323">  1  7  2 -1</clus>
<clus scale="  160.935">  2 10  1 -1</clus>
<clus scale="   52.998">  2  5  1 -1</clus>
</clustering>
</event>
<event>
10    4  0.7204077E-005  0.3527546E+03  0.7546771E-02  0.1109489E+00
         21   -1    0    0  503  502  0.00000000000E+00  0.00000000000E+00  0.33423302572E+03  0.33423302572E+03  0.00000000000E+00 0.  1.
          2   -1    0    0  502    0 -0.00000000000E+00 -0.00000000000E+00 -0.65067274526E+03  0.65067274526E+03  0.00000000000E+00 0. -1.
         24    2    1    2    0    0  0.94131291543E+01 -0.50628602615E+02 -0.55047633402E+02  0.11028379898E+03  0.80501006019E+02 0.  0.
         23    2    1    2    0    0 -0.18907662228E+03  0.34603205687E+03 -0.13931690086E+03  0.42786340283E+03  0.90386609330E+02 0.  0.
        -13    1    3    3    0    0  0.21221758713E+02  0.97479684909E+01 -0.40992637919E+02  0.47178197254E+02  0.00000000000E+00 0.  1.
         14    1    3    3    0    0 -0.11808629559E+02 -0.60376571106E+02 -0.14054995483E+02  0.63105601722E+02  0.00000000000E+00 0. -1.
        -11    1    4    4    0    0 -0.11995606636E+03  0.22095950087E+03 -0.41831528052E+02  0.25487729522E+03  0.00000000000E+00 0. -1.
         11    1    4    4    0    0 -0.69120555914E+02  0.12507255600E+03 -0.97485372811E+02  0.17298610761E+03  0.00000000000E+00 0.  1.
         21    1    1    2  503  501  0.50101158584E+02 -0.30217811981E+02  0.72563792624E+02  0.93213444590E+02  0.00000000000E+00 0. -1.
          1    1    1    2  501    0  0.12956233454E+03 -0.26518564227E+03 -0.19463897789E+03  0.35354512458E+03  0.00000000000E+00 0. -1.
<scales pt_clust_5="13000.00000" pt_clust_6="13000.00000" pt_clust_7="13000.00000" pt_clust_8="13000.00000" pt_clust_9="58.50848" pt_clust_10="340.97824"></scales>
<clustering>
<clus scale="   58.508">  1  9  2 -1</clus>
<clus scale="   80.501">  5  6 -1 -1</clus>
<clus scale="   90.387">  7  8 -1 -1</clus>
<clus scale="   98.048">  2  5  1 -1</clus>
<clus scale="  340.978">  1 10  2 -1</clus>
<clus scale="   58.508">  1  5  2 -1</clus>
</clustering>
</event>
<event>
10    4  0.7204077E-005  0.1509554E+03  0.7546771E-02  0.1221080E+00
         21   -1    0    0  501  502  0.00000000000E+00  0.00000000000E+00  0.84164628230E+02  0.84164628230E+02  0.00000000000E+00 0. -1.
          2   -1    0    0  503    0 -0.00000000000E+00 -0.00000000000E+00 -0.14746479166E+04  0.14746479166E+04  0.00000000000E+00 0. -1.
         24    2    1    2    0    0  0.37158017792E+02  0.38159398233E+01 -0.45389233143E+03  0.46330374709E+03  0.85069582397E+02 0.  0.
         23    2    1    2    0    0  0.38934318706E+02 -0.51105142076E+02 -0.82534532935E+02  0.15844685545E+03  0.11902033506E+03 0.  0.
        -11    1    3    3    0    0 -0.30021857900E+01  0.22593117981E+02 -0.33132120984E+02  0.40214419560E+02  0.00000000000E+00 0.  1.
         12    1    3    3    0    0  0.40160203582E+02 -0.18777178158E+02 -0.42076021045E+03  0.42308932753E+03  0.00000000000E+00 0. -1.
        -13    1    4    4    0    0 -0.28218345015E+02  0.21911997005E+02 -0.17102414955E+02  0.39609382795E+02  0.00000000000E+00 0.  1.
         13    1    4    4    0    0  0.67152663722E+02 -0.73017139081E+02 -0.65432117980E+02  0.11883747266E+03  0.00000000000E+00 0. -1.
         21    1    1    2  503  502  0.45057545518E+02  0.84824543741E+01  0.22674717924E+02  0.51149557899E+02  0.00000000000E+00 0. -1.
          1    1    1    2  501    0 -0.12114988202E+03  0.38806747879E+02 -0.87673114197E+03  0.88591238443E+03  0.00000000000E+00 0. -1.
<scales pt_clust_5="13000.00000" pt_clust_6="13000.00000" pt_clust_7="13000.00000" pt_clust_8="13000.00000" pt_clust_9="45.84904" pt_clust_10="92.85308"></scales>
<clustering>
<clus scale="   45.849">  1  9  2 -1</clus>
<clus scale="   85.070">  5  6 -1 -1</clus>
<clus scale="   94.831">  2  5  1 -1</clus>
<clus scale="   92.853">  1 10  2 -1</clus>
<clus scale="  119.020">  7  8 -1 -1</clus>
<clus scale="   45.849">  1  5  2 -1</clus>
</clustering>
</event>
<event>
10    4  0.7204077E-005  0.6111618E+03  0.7546771E-02  0.9882516E-01
          2   -1    0    0  503    0 -0.00000000000E+00  0.00000000000E+00  0.13628487704E+04  0.13628487704E+04  0.00000000000E+00 0. -1.
         21   -1    0    0  501  502  0.00000000000E+00 -0.00000000000E+00 -0.35734331692E+03  0.35734331692E+03  0.00000000000E+00 0. -1.
         24    2    1    2    0    0  0.41756728940E+03  0.22525327735E+03  0.79972117161E+03  0.93332621292E+03  0.80264483232E+02 0.  0.
         23    2    1    2    0    0  0.30323625629E+02  0.56165140713E+02  0.11107697493E+03  0.15771718137E+03  0.91992225955E+02 0.  0.
        -13    1    3    3    0    0  0.35529575881E+02  0.37973565492E+02  0.55417196177E+02  0.75996105628E+02  0.00000000000E+00 0.  1.
         14    1    3    3    0    0  0.38203771352E+03  0.18727971186E+03  0.74430397543E+03  0.85733010729E+03  0.00000000000E+00 0. -1.
        -11    1    4    4    0    0  0.83579197542E+01 -0.25190278173E+02  0.36891987243E+02  0.45446932348E+02  0.00000000000E+00 0. -1.
         11    1    4    4    0    0  0.21965705875E+02  0.81355418886E+02  0.74184987685E+02  0.11227024902E+03  0.00000000000E+00 0.  1.
         21    1    1    2  503  502  0.47342103563E+02  0.65618012907E+01 -0.34667787608E+01  0.47920252096E+02  0.00000000000E+00 0. -1.
          1    1    1    2  501    0 -0.49523301859E+03 -0.28798021935E+03  0.98174085684E+02  0.58122844093E+03  0.00000000000E+00 0. -1.
<scales pt_clust_5="13000.00000" pt_clust_6="13000.00000" pt_clust_7="13000.00000" pt_clust_8="13000.00000" pt_clust_9="47.79469" pt_clust_10="540.83167"></scales>
<clustering>
<clus scale="   47.795">  2  9  1 -1</clus>
<clus scale="   80.264">  5  6 -1 -1</clus>
<clus scale="   91.992">  7  8 -1 -1</clus>
<clus scale="  100.467">  5  7 -1 -1</clus>
<clus scale="  540.832">  2 10  1 -1</clus>
<clus scale="   47.795">  2  5  1 -1</clus>
</clustering>
</event>
<event>
10    4  0.7204077E-005  0.1003010E+03  0.7546771E-02  0.1285759E+00
         21   -1    0    0  501  502  0.00000000000E+00  0.00000000000E+00  0.20920454866E+03  0.20920454866E+03  0.00000000000E+00 0. -1.
          2   -1    0    0  503    0 -0.00000000000E+00 -0.00000000000E+00 -0.27285638006E+03  0.27285638006E+03  0.00000000000E+00 0. -1.
         23    2    1    2    0    0 -0.38171183536E+02 -0.33279415427E+00 -0.21242754947E+03  0.23473942848E+03  0.92303767563E+02 0.  0.
         24    2    1    2    0    0  0.52243596341E+02 -0.80250341477E+01  0.11784325660E+03  0.15207177439E+03  0.80280738086E+02 0.  0.
        -13    1    4    4    0    0  0.17841598540E+02  0.24125232047E+02  0.95213427796E+02  0.99829586258E+02  0.00000000000E+00 0.  1.
         14    1    4    4    0    0  0.34401997800E+02 -0.32150266195E+02  0.22629828808E+02  0.52242188133E+02  0.00000000000E+00 0. -1.
        -11    1    3    3    0    0 -0.13313816574E+02 -0.37316137548E+02 -0.16488551922E+03  0.16957884975E+03  0.00000000000E+00 0. -1.
         11    1    3    3    0    0 -0.24857366962E+02  0.36983343394E+02 -0.47542030253E+02  0.65160578738E+02  0.00000000000E+00 0.  1.
         21    1    1    2  503  502 -0.42532521909E+02  0.13069474198E+02  0.44887826022E+02  0.63203983266E+02  0.00000000000E+00 0. -1.
          1    1    1    2  501    0  0.28460109105E+02 -0.47116458958E+01 -0.13955364551E+02  0.32045742573E+02  0.00000000000E+00 0. -1.
<scales pt_clust_5="13000.00000" pt_clust_6="13000.00000" pt_clust_7="13000.00000" pt_clust_8="13000.00000" pt_clust_9="36.79063" pt_clust_10="28.84750"></scales>
<clustering>
<clus scale="   28.847">  1 10  2 -1</clus>
<clus scale="   36.791">  1  9  2 -1</clus>
<clus scale="   80.281">  5  6 -1 -1</clus>
<clus scale="   89.361">  1  5  2 -1</clus>
<clus scale="   92.304">  7  8 -1 -1</clus>
<clus scale="   28.847">  1  5  2 -1</clus>
</clustering>
</event>
<event>
10    4  0.7204077E-005  0.1663231E+03  0.7546771E-02  0.1215000E+00
          2   -1    0    0  503    0 -0.00000000000E+00  0.00000000000E+00  0.25784270395E+03  0.25784270395E+03  0.00000000000E+00 0. -1.
         21   -1    0    0  501  502  0.00000000000E+00 -0.00000000000E+00 -0.78448058626E+03  0.78448058626E+03  0.00000000000E+00 0.  1.
         24    2    1    2    0    0  0.11526595872E+02  0.56567605660E+01  0.27867140862E+02  0.85283620693E+02  0.79572966931E+02 0.  0.
         23    2    1    2    0    0 -0.11595462838E+03  0.12273264307E+03 -0.56353643051E+03  0.59552930779E+03  0.92590876513E+02 0.  0.
        -11    1    3    3    0    0  0.12434646776E+02 -0.28807885436E+02 -0.11073723062E+02  0.33273744096E+02  0.00000000000E+00 0.  1.
         12    1    3    3    0    0 -0.90805090418E+00  0.34464646002E+02  0.38940863924E+02  0.52009876597E+02  0.00000000000E+00 0. -1.
        -11    1    4    4    0    0 -0.75248609730E+02  0.25815565260E+02 -0.16225846213E+03  0.18071138649E+03  0.00000000000E+00 0. -1.
         11    1    4    4    0    0 -0.40706018654E+02  0.96917077807E+02 -0.40127796838E+03  0.41481792130E+03  0.00000000000E+00 0.  1.
         21    1    1    2  503  502  0.12208842646E+02 -0.34812014413E+02 -0.15043553571E+03  0.15489281000E+03  0.00000000000E+00 0. -1.
          1    1    1    2  501    0  0.92219189866E+02 -0.93577389220E+02  0.15946694305E+03  0.20661755172E+03  0.00000000000E+00 0. -1.
<scales pt_clust_5="13000.00000" pt_clust_6="13000.00000" pt_clust_7="13000.00000" pt_clust_8="13000.00000" pt_clust_9="36.89081" pt_clust_10="138.16775"></scales>
<clustering>
<clus scale="   36.891">  2  9  1 -1</clus>
<clus scale="   79.573">  5  6 -1 -1</clus>
<clus scale="   80.588">  1  5  2 -1</clus>
<clus scale="   92.591">  7  8 -1 -1</clus>
<clus scale="  138.168">  2 10  1 -1</clus>
<clus scale="   36.891">  2  5  1 -1</clus>
</clustering>
</event>
<event>
10    4  0.7204077E-005  0.1027715E+03  0.7546771E-02  0.1280474E+00
         21   -1    0    0  501  502  0.00000000000E+00  0.00000000000E+00  0.13814597810E+03  0.13814597810E+03  0.00000000000E+00 0.  1.
          4   -1    0    0  503    0 -0.00000000000E+00 -0.00000000000E+00 -0.78747088332E+03  0.78747088332E+03  0.00000000000E+00 0. -1.
         24    2    1    2    0    0  0.37651022143E+02 -0.78893959604E+01 -0.49280346273E+03  0.50084051354E+03  0.80660554718E+02 0.  0.
         23    2    1    2    0    0 -0.62649943417E+02 -0.15853087419E+02 -0.24853442266E+03  0.27310053894E+03  0.92941967552E+02 0.  0.
        -13    1    3    3    0    0  0.47588664745E+02 -0.38247505889E+01 -0.14081196450E+03  0.14868530215E+03  0.00000000000E+00 0.  1.
         14    1    3    3    0    0 -0.99376426019E+01 -0.40646453715E+01 -0.35199149823E+03  0.35215521139E+03  0.00000000000E+00 0. -1.
        -13    1    4    4    0    0 -0.26055023731E+02  0.37259203080E+02 -0.13593002053E+03  0.14333207233E+03  0.00000000000E+00 0.  1.
         13    1    4    4    0    0 -0.36594919686E+02 -0.53112290499E+02 -0.11260440213E+03  0.12976846662E+03  0.00000000000E+00 0. -1.
         21    1    1    2  503  502  0.76906758666E+01  0.41465149279E+02  0.11210808272E+03  0.11977782479E+03  0.00000000000E+00 0.  1.
          3    1    1    2  501    0  0.17308245407E+02 -0.17722665899E+02 -0.20095102552E+02  0.31897984140E+02  0.00000000000E+00 0. -1.
<scales pt_clust_5="13000.00000" pt_clust_6="13000.00000" pt_clust_7="13000.00000" pt_clust_8="13000.00000" pt_clust_9="34.56936" pt_clust_10="24.77233"></scales>
<clustering>
<clus scale="   24.772">  1 10  2 -1</clus>
<clus scale="   34.569">  1  9  2 -1</clus>
<clus scale="   80.661">  5  6 -1 -1</clus>
<clus scale="   91.814">  2  5  1 -1</clus>
<clus scale="   92.942">  7  8 -1 -1</clus>
<clus scale="   24.772">  1  5  2 -1</clus>
</clustering>
</event>
<event>
10    4  0.7204077E-005  0.1252582E+03  0.7546771E-02  0.1237264E+00
          4   -1    0    0  502    0 -0.00000000000E+00  0.00000000000E+00  0.19425294809E+03  0.19425294809E+03  0.00000000000E+00 0. -1.
         21   -1    0    0  503  502  0.00000000000E+00 -0.00000000000E+00 -0.41999634427E+03  0.41999634427E+03  0.00000000000E+00 0.  1.
         24    2    1    2    0    0 -0.97447468216E+02  0.10199549251E+02  0.20078846962E+02  0.12814780758E+03  0.80116544016E+02 0.  0.
         23    2    1    2    0    0  0.51212348941E+02  0.49532252828E+02 -0.18495288914E+03  0.21744701849E+03  0.89439845114E+02 0.  0.
        -13    1    3    3    0    0 -0.76450851212E+02 -0.27751298238E+02  0.25621552388E+01  0.81372181023E+02  0.00000000000E+00 0.  1.
         14    1    3    3    0    0 -0.20996617004E+02  0.37950847488E+02  0.17516691723E+02  0.46775626555E+02  0.00000000000E+00 0. -1.
        -13    1    4    4    0    0  0.37644213410E+02  0.20431546330E+02 -0.17991839317E+03  0.18494637896E+03  0.00000000000E+00 0.  1.
         13    1    4    4    0    0  0.13568135530E+02  0.29100706497E+02 -0.50344959734E+01  0.32500639534E+02  0.00000000000E+00 0. -1.
         21    1    1    2  503  501  0.40471679208E+02 -0.13886730922E+01 -0.15365339080E+03  0.15890012503E+03  0.00000000000E+00 0.  1.
          3    1    1    2  501    0  0.57634400667E+01 -0.58343128986E+02  0.92784036794E+02  0.10975434126E+03  0.00000000000E+00 0. -1.
<scales pt_clust_5="13000.00000" pt_clust_6="13000.00000" pt_clust_7="13000.00000" pt_clust_8="13000.00000" pt_clust_9="40.49550" pt_clust_10="58.81380"></scales>
<clustering>
<clus scale="   40.495">  2  9  1 -1</clus>
<clus scale="   58.814">  2 10  1 -1</clus>
<clus scale="   80.117">  5  6 -1 -1</clus>
<clus scale="   89.440">  7  8 -1 -1</clus>
<clus scale="  118.780">  1  5  2 -1</clus>
<clus scale="   40.495">  2  5  1 -1</clus>
</clustering>
</event>
<event>
10    4  0.7204077E-005  0.9161937E+02  0.7546771E-02  0.1303211E+00
          2   -1    0    0  503    0 -0.00000000000E+00  0.00000000000E+00  0.25661978959E+03  0.25661978959E+03  0.00000000000E+00 0. -1.
         21   -1    0    0  501  502  0.00000000000E+00 -0.00000000000E+00 -0.10163577913E+03  0.10163577913E+03  0.00000000000E+00 0.  1.
         23    2    1    2    0    0  0.28756584406E+02 -0.17437917563E+02  0.14633063205E+03  0.17467902408E+03  0.89269734289E+02 0.  0.
         24    2    1    2    0    0  0.42381705809E+02  0.19355306713E+02  0.15696213354E+02  0.95785732385E+02  0.82205222034E+02 0.  0.
        -13    1    4    4    0    0 -0.37065818493E+01 -0.28096649109E+02  0.48964968753E+01  0.28759974301E+02  0.00000000000E+00 0.  1.
         14    1    4    4    0    0  0.46088287658E+02  0.47451955823E+02  0.10799716479E+02  0.67025758083E+02  0.00000000000E+00 0. -1.
        -13    1    3    3    0    0  0.40298796771E+02  0.26211503935E+02  0.56835752891E+02  0.74440169038E+02  0.00000000000E+00 0.  1.
         13    1    3    3    0    0 -0.11542212365E+02 -0.43649421499E+02  0.89494879161E+02  0.10023885504E+03  0.00000000000E+00 0. -1.
         21    1    1    2  503  502 -0.27764137280E+02  0.11113903054E+01 -0.28066990226E+02  0.39494790133E+02  0.00000000000E+00 0.  1.
          1    1    1    2  501    0 -0.43374152935E+02 -0.30287794555E+01  0.21024155282E+02  0.48296022125E+02  0.00000000000E+00 0. -1.
<scales pt_clust_5="13000.00000" pt_clust_6="13000.00000" pt_clust_7="13000.00000" pt_clust_8="13000.00000" pt_clust_9="27.78637" pt_clust_10="49.03388"></scales>
<clustering>
<clus scale="   27.786">  2  9  1 -1</clus>
<clus scale="   49.034">  2 10  1 -1</clus>
<clus scale="   82.205">  5  6 -1 -1</clus>
<clus scale="   84.751">  2  5  1 -1</clus>
<clus scale="   89.270">  7  8 -1 -1</clus>
<clus scale="   27.786">  2  5  1 -1</clus>
</clustering>
</event>
<event>
10    4  0.7204077E-005  0.9775978E+02  0.7546771E-02  0.1285615E+00
         21   -1    0    0  503  502  0.00000000000E+00  0.00000000000E+00  0.92100886843E+02  0.92100886843E+02  0.00000000000E+00 0.  1.
          2   -1    0    0  502    0 -0.00000000000E+00 -0.00000000000E+00 -0.52428759171E+03  0.52428759171E+03  0.00000000000E+00 0. -1.
         23    2    1    2    0    0  0.31570236870E+02 -0.11974286196E+02 -0.17412912599E+03  0.19791575803E+03  0.87804506563E+02 0.  0.
         24    2    1    2    0    0  0.21983034970E+02  0.10578857192E+03 -0.11479126665E+03  0.18097732575E+03  0.88889154355E+02 0.  0.
        -13    1    4    4    0    0  0.14387546511E+02  0.11872480424E+03 -0.11508485126E+03  0.16597320153E+03  0.00000000000E+00 0.  1.
         14    1    4    4    0    0  0.75954884592E+01 -0.12936232322E+02  0.29358461411E+00  0.15004124218E+02  0.00000000000E+00 0. -1.
        -13    1    3    3    0    0  0.15363007804E+02 -0.50087702751E+02 -0.10457460805E+03  0.11696430492E+03  0.00000000000E+00 0. -1.
         13    1    3    3    0    0  0.16207229067E+02  0.38113416555E+02 -0.69554517939E+02  0.80951453114E+02  0.00000000000E+00 0.  1.
         21    1    1    2  503  501 -0.42615597962E+02 -0.11918585980E+02  0.24432384677E+02  0.50547831827E+02  0.00000000000E+00 0.  1.
          1    1    1    2  501    0 -0.10937673879E+02 -0.81895699745E+02 -0.16769869691E+03  0.18694756294E+03  0.00000000000E+00 0. -1.
<scales pt_clust_5="13000.00000" pt_clust_6="13000.00000" pt_clust_7="13000.00000" pt_clust_8="13000.00000" pt_clust_9="44.25090" pt_clust_10="85.99826"></scales>
<clustering>
<clus scale="   44.251">  1  9  2 -1</clus>
<clus scale="   85.998">  1 10  2 -1</clus>
<clus scale="   87.805">  7  8 -1 -1</clus>
<clus scale="   88.889">  5  6 -1 -1</clus>
<clus scale="   96.775">  2  7  1 -1</clus>
<clus scale="   44.251">  1  5  2 -1</clus>
</clustering>
</event>
<event>
10    4  0.7204077E-005  0.1034575E+03  0.7546771E-02  0.1274978E+00
          2   -1    0    0  502    0 -0.00000000000E+00  0.00000000000E+00  0.81044958604E+03  0.81044958604E+03  0.00000000000E+00 0. -1.
         21   -1    0    0  503  502  0.00000000000E+00 -0.00000000000E+00 -0.86829080872E+02  0.86829080872E+02  0.00000000000E+00 0. -1.
         24    2    1    2    0    0 -0.62291523731E+02  0.88964313176E+01  0.49792935268E+03  0.50850300406E+03  0.81745241214E+02 0.  0.
         23    2    1    2    0    0  0.36004813716E+02  0.61784381034E+02  0.11324990633E+03  0.15916173037E+03  0.85984061209E+02 0.  0.
        -11    1    3    3    0    0  0.27507196387E+01 -0.28115301691E+02  0.14516532719E+03  0.14788850147E+03  0.00000000000E+00 0.  1.
         12    1    3    3    0    0 -0.65042243370E+02  0.37011733008E+02  0.35276402549E+03  0.36061450260E+03  0.00000000000E+00 0. -1.
        -13    1    4    4    0    0 -0.23816330176E+02  0.17574506282E+02  0.87004838427E+01  0.30850920135E+02  0.00000000000E+00 0.  1.
         13    1    4    4    0    0  0.59821143892E+02  0.44209874752E+02  0.10454942249E+03  0.12831081024E+03  0.00000000000E+00 0. -1.
         21    1    1    2  503  501  0.18607036245E+02  0.73456471657E+01 -0.47471939874E+02  0.51514710574E+02  0.00000000000E+00 0.  1.
          1    1    1    2  501    0  0.76796737706E+01 -0.78026459517E+02  0.15991318603E+03  0.17809922190E+03  0.00000000000E+00 0. -1.
<scales pt_clust_5="13000.00000" pt_clust_6="13000.00000" pt_clust_7="13000.00000" pt_clust_8="13000.00000" pt_clust_9="20.00451" pt_clust_10="77.20923"></scales>
<clustering>
<clus scale="   20.005">  2  9  1 -1</clus>
<clus scale="   77.209">  2 10  1 -1</clus>
<clus scale="   81.745">  5  6 -1 -1</clus>
<clus scale="   85.984">  7  8 -1 -1</clus>
<clus scale="   99.962">  1  5  2 -1</clus>
<clus scale="   20.005">  2  5  1 -1</clus>
</clustering>
</event>
<event>
10    4  0.7204077E-005  0.1677664E+03  0.7546771E-02  0.1181511E+00
         21   -1    0    0  503  502  0.00000000000E+00  0.00000000000E+00  0.13692082738E+03  0.13692082738E+03  0.00000000000E+00 0.  1.
          2   -1    0    0  502    0 -0.00000000000E+00 -0.00000000000E+00 -0.96914145459E+03  0.96914145459E+03  0.00000000000E+00 0. -1.
         24    2    1    2    0    0 -0.93112314525E+02  0.10871702531E+03 -0.75407169457E+03  0.77195452049E+03  0.82464334386E+02 0.  0.
         23    2    1    2    0    0  0.14861365235E+03 -0.17942337054E+02  0.47120998714E+01  0.17562035884E+03  0.91718926245E+02 0.  0.
        -13    1    3    3    0    0  0.52905241872E+00  0.23954323296E+02 -0.38691445310E+02  0.45509531323E+02  0.00000000000E+00 0.  1.
         14    1    3    3    0    0 -0.93641366944E+02  0.84762702013E+02 -0.71538024926E+03  0.72644498917E+03  0.00000000000E+00 0. -1.
        -11    1    4    4    0    0  0.55315923562E+02 -0.26209869515E+02 -0.38665037385E+02  0.72400233255E+02  0.00000000000E+00 0. -1.
         11    1    4    4    0    0  0.93297728785E+02  0.82675324608E+01  0.43377137256E+02  0.10322012559E+03  0.00000000000E+00 0.  1.
         21    1    1    2  503  501  0.10727904093E+02 -0.37176973280E+02  0.13178776702E+01  0.38716302381E+02  0.00000000000E+00 0.  1.
          1    1    1    2  501    0 -0.66229241915E+02 -0.53597714975E+02 -0.84178910181E+02  0.11977110025E+03  0.00000000000E+00 0. -1.
<scales pt_clust_5="13000.00000" pt_clust_6="13000.00000" pt_clust_7="13000.00000" pt_clust_8="13000.00000" pt_clust_9="38.69387" pt_clust_10="87.65882"></scales>
<clustering>
<clus scale="   38.694">  1  9  2 -1</clus>
<clus scale="   82.464">  5  6 -1 -1</clus>
<clus scale="   87.659">  1 10  2 -1</clus>
<clus scale="   91.719">  7  8 -1 -1</clus>
<clus scale="  162.891">  2  5  1 -1</clus>
<clus scale="   38.694">  1  5  2 -1</clus>
</clustering>
</event>
<event>
10    4  0.7204077E-005  0.9563405E+02  0.7546771E-02  0.1297593E+00
          2   -1    0    0  502    0 -0.00000000000E+00  0.00000000000E+00  0.55404791789E+03  0.55404791789E+03  0.00000000000E+00 0. -1.
         21   -1    0    0  503  502  0.00000000000E+00 -0.00000000000E+00 -0.20544719041E+03  0.20544719041E+03  0.00000000000E+00 0.  1.
         24    2    1    2    0    0  0.30084292876E+01 -0.20838148733E+02  0.35185746348E+03  0.36143760522E+03  0.79938656318E+02 0.  0.
         23    2    1    2    0    0 -0.46328218871E+02  0.51941546634E+01  0.98966843208E+02  0.14378259339E+03  0.93304421126E+02 0.  0.
        -13    1    3    3    0    0  0.86549938810E+01 -0.50269032165E+02  0.25493621975E+03  0.25998915488E+03  0.00000000000E+00 0.  1.
         14    1    3    3    0    0 -0.56465645933E+01  0.29430883432E+02  0.96921243730E+02  0.10144845035E+03  0.00000000000E+00 0. -1.
        -13    1    4    4    0    0  0.28173285364E+02  0.60900276852E+01  0.36812963197E+02  0.46754857553E+02  0.00000000000E+00 0. -1.
         13    1    4    4    0    0 -0.74501504235E+02 -0.89587302181E+00  0.62153880011E+02  0.97027735840E+02  0.00000000000E+00 0.  1.
         21    1    1    2  503  501 -0.13649336483E+02  0.17279750960E+02 -0.16674157541E+03  0.16818931937E+03  0.00000000000E+00 0.  1.
          1    1    1    2  501    0  0.56969126066E+02 -0.16357568903E+01  0.64517996201E+02  0.86085590311E+02  0.00000000000E+00 0. -1.
<scales pt_clust_5="13000.00000" pt_clust_6="13000.00000" pt_clust_7="13000.00000" pt_clust_8="13000.00000" pt_clust_9="22.02031" pt_clust_10="53.19442"></scales>
<clustering>
<clus scale="   22.020">  2  9  1 -1</clus>
<clus scale="   53.194">  2 10  1 -1</clus>
<clus scale="   79.939">  5  6 -1 -1</clus>
<clus scale="   82.646">  1  5  2 -1</clus>
<clus scale="   93.304">  7  8 -1 -1</clus>
<clus scale="   22.020">  2  5  1 -1</clus>
</clustering>
</event>
<event>
10    4  0.7204077E-005  0.1220448E+03  0.7546771E-02  0.1241525E+00
         -1   -1    0    0    0  501 -0.00000000000E+00  0.00000000000E+00  0.22981679657E+03  0.22981679657E+03  0.00000000000E+00 0.  1.
         21   -1    0    0  503  502  0.00000000000E+00 -0.00000000000E+00 -0.51740726422E+03  0.51740726422E+03  0.00000000000E+00 0.  1.
         23    2    1    2    0    0 -0.66057513969E+02  0.38366290546E+02  0.11980730749E+03  0.16878200480E+03  0.91093396118E+02 0.  0.
         24    2    1    2    0    0  0.96178232694E+02 -0.19955742630E+02 -0.69585359823E+01  0.13025462286E+03  0.85260550341E+02 0.  0.
        -11    1    4    4    0    0  0.88199613022E+02  0.19506822533E+01  0.24067595862E+02  0.91445208016E+02  0.00000000000E+00 0.  1.
         12    1    4    4    0    0  0.79786196722E+01 -0.21906424883E+02 -0.31026131845E+02  0.38809414841E+02  0.00000000000E+00 0. -1.
        -11    1    3    3    0    0 -0.26164844828E+02  0.48282117241E+02  0.16103580645E+02  0.57228378098E+02  0.00000000000E+00 0. -1.
         11    1    3    3    0    0 -0.39892669141E+02 -0.99158266952E+01  0.10370372684E+03  0.11155362671E+03  0.00000000000E+00 0.  1.
         21    1    1    2  503  501  0.70720303714E+02 -0.26098129014E+02 -0.28459257603E+03  0.29440687496E+03  0.00000000000E+00 0.  1.
         -2    1    1    2    0  502 -0.10084102244E+03  0.76875810975E+01 -0.11584666313E+03  0.15378055816E+03  0.00000000000E+00 0.  1.
<scales pt_clust_5="13000.00000" pt_clust_6="13000.00000" pt_clust_7="13000.00000" pt_clust_8="13000.00000" pt_clust_9="75.38218" pt_clust_10="59.51479"></scales>
<clustering>
<clus scale="   75.382">  2  9  1 -1</clus>
<clus scale="   59.515">  2 10  1 -1</clus>
<clus scale="   85.261">  5  6 -1 -1</clus>
<clus scale="   91.093">  7  8 -1 -1</clus>
<clus scale="  117.755">  2  5  1 -1</clus>
<clus scale="   75.382">  2  5  1 -1</clus>
</clustering>
</event>
<event>
10    4  0.7204077E-005  0.1027891E+03  0.7546771E-02  0.1280045E+00
         21   -1    0    0  503  502  0.00000000000E+00  0.00000000000E+00  0.21565370075E+03  0.21565370075E+03  0.00000000000E+00 0. -1.
          2   -1    0    0  502    0 -0.00000000000E+00 -0.00000000000E+00 -0.33216840450E+03  0.33216840450E+03  0.00000000000E+00 0. -1.
         24    2    1    2    0    0  0.37937422158E+02 -0.35814357863E+02 -0.22557542203E+03  0.24376959145E+03  0.76272055604E+02 0.  0.
         23    2    1    2    0    0 -0.90234069254E+02 -0.26429708841E+02  0.25026366289E+02  0.13149193173E+03  0.88448246652E+02 0.  0.
        -13    1    3    3    0    0  0.72250588134E+00  0.22724615481E+02 -0.47510616135E+02  0.52670568718E+02  0.00000000000E+00 0.  1.
         14    1    3    3    0    0  0.37214916277E+02 -0.58538973344E+02 -0.17806480589E+03  0.19109902274E+03  0.00000000000E+00 0. -1.
        -11    1    4    4    0    0 -0.21858438901E+02 -0.13004391589E+02  0.51109975919E+02  0.57088835951E+02  0.00000000000E+00 0. -1.
         11    1    4    4    0    0 -0.68375630353E+02 -0.13425317252E+02 -0.26083609630E+02  0.74403095774E+02  0.00000000000E+00 0.  1.
         21    1    1    2  503  501  0.32065716678E+02 -0.31028440370E+02  0.58848525962E+02  0.73852036571E+02  0.00000000000E+00 0. -1.
          1    1    1    2  501    0  0.20230930418E+02  0.93272507075E+02  0.25185826035E+02  0.98708545500E+02  0.00000000000E+00 0. -1.
<scales pt_clust_5="13000.00000" pt_clust_6="13000.00000" pt_clust_7="13000.00000" pt_clust_8="13000.00000" pt_clust_9="44.62034" pt_clust_10="87.11223"></scales>
<clustering>
<clus scale="   44.620">  1  9  2 -1</clus>
<clus scale="   76.272">  5  6 -1 -1</clus>
<clus scale="   87.112">  1 10  2 -1</clus>
<clus scale="   88.448">  7  8 -1 -1</clus>
<clus scale="   92.520">  2  5  1 -1</clus>
<clus scale="   44.620">  1  5  2 -1</clus>
</clustering>
</event>
<event>
10    4  0.7204077E-005  0.1844132E+03  0.7546771E-02  0.1186949E+00
         21   -1    0    0  501  502  0.00000000000E+00  0.00000000000E+00  0.28016122965E+03  0.28016122965E+03  0.00000000000E+00 0. -1.
          2   -1    0    0  503    0 -0.00000000000E+00 -0.00000000000E+00 -0.25855795534E+03  0.25855795534E+03  0.00000000000E+00 0. -1.
         24    2    1    2    0    0  0.71890690790E+02 -0.34909136224E+02  0.30330956297E+02  0.11687345609E+03  0.79702688882E+02 0.  0.
         23    2    1    2    0    0 -0.17732045958E+03  0.42820155678E+02  0.77932047825E+02  0.21821307643E+03  0.90925417409E+02 0.  0.
        -11    1    3    3    0    0  0.20355390972E+02 -0.53257326475E+02  0.23792322770E+02  0.61779927061E+02  0.00000000000E+00 0.  1.
         12    1    3    3    0    0  0.51535299818E+02  0.18348190250E+02  0.65386335270E+01  0.55093529032E+02  0.00000000000E+00 0. -1.
        -13    1    4    4    0    0 -0.28027013117E+02 -0.14458019361E+02  0.45004243854E+02  0.54953887514E+02  0.00000000000E+00 0. -1.
         13    1    4    4    0    0 -0.14929344646E+03  0.57278175039E+02  0.32927803971E+02  0.16325918892E+03  0.00000000000E+00 0.  1.
         21    1    1    2  503  502 -0.11192377140E+02  0.51935681436E+02 -0.27418592978E+02  0.59785981243E+02  0.00000000000E+00 0.  1.
          1    1    1    2  501    0  0.11662214593E+03 -0.59846700890E+02 -0.59241136830E+02  0.14384667122E+03  0.00000000000E+00 0. -1.
<scales pt_clust_5="13000.00000" pt_clust_6="13000.00000" pt_clust_7="13000.00000" pt_clust_8="13000.00000" pt_clust_9="53.12800" pt_clust_10="160.43950"></scales>
<clustering>
<clus scale="   53.128">  2  9  1 -1</clus>
<clus scale="   79.703">  5  6 -1 -1</clus>
<clus scale="   90.925">  7  8 -1 -1</clus>
<clus scale="  108.628">  2  5  1 -1</clus>
<clus scale="  160.440">  1 10  2 -1</clus>
<clus scale="  160.440">  1  5  2 -1</clus>
</clustering>
</event>
<event>
10    4  0.7204077E-005  0.4776149E+03  0.7546771E-02  0.1069309E+00
         21   -1    0    0  501  502  0.00000000000E+00  0.00000000000E+00  0.29487539753E+03  0.29487539753E+03  0.00000000000E+00 0. -1.
          2   -1    0    0  503    0 -0.00000000000E+00 -0.00000000000E+00 -0.14253009989E+04  0.14253009989E+04  0.00000000000E+00 0. -1.
         24    2    1    2    0    0 -0.67144523898E+02  0.35732979414E+02 -0.10531802317E+03  0.15260662304E+03  0.80072857354E+02 0.  0.
         23    2    1    2    0    0 -0.38195668930E+03 -0.16388941813E+03 -0.81068137871E+03  0.91566349943E+03  0.92112390757E+02 0.  0.
        -13    1    3    3    0    0 -0.52433258727E+02  0.10450340695E+02 -0.11063492091E+03  0.12287612447E+03  0.00000000000E+00 0.  1.
         14    1    3    3    0    0 -0.14711265171E+02  0.25282638719E+02  0.53168977398E+01  0.29730498568E+02  0.00000000000E+00 0. -1.
        -13    1    4    4    0    0 -0.14848754883E+03 -0.60939048393E+02 -0.41377024764E+03  0.44381070019E+03  0.00000000000E+00 0.  1.
         13    1    4    4    0    0 -0.23346914047E+03 -0.10295036974E+03 -0.39691113107E+03  0.47185279924E+03  0.00000000000E+00 0. -1.
         21    1    1    2  503  502 -0.64168796378E+02  0.46050980900E+01  0.28986364752E+02  0.70562388697E+02  0.00000000000E+00 0. -1.
          1    1    1    2  501    0  0.51327000958E+03  0.12355134063E+03 -0.24341256426E+03  0.58134388527E+03  0.00000000000E+00 0. -1.
<scales pt_clust_5="13000.00000" pt_clust_6="13000.00000" pt_clust_7="13000.00000" pt_clust_8="13000.00000" pt_clust_9="64.33383" pt_clust_10="468.64833"></scales>
<clustering>
<clus scale="   64.334">  1  9  2 -1</clus>
<clus scale="   80.073">  5  6 -1 -1</clus>
<clus scale="   92.112">  7  8 -1 -1</clus>
<clus scale="  114.448">  2  5  1 -1</clus>
<clus scale="  468.648">  1 10  2 -1</clus>
<clus scale="   64.334">  1  5  2 -1</clus>
</clustering>
</event>
<event>
10    4  0.7204077E-005  0.1414863E+03  0.7546771E-02  0.1235799E+00
          2   -1    0    0  502    0 -0.00000000000E+00  0.00000000000E+00  0.40231389182E+03  0.40231389182E+03  0.00000000000E+00 0. -1.
         21   -1    0    0  503  502  0.00000000000E+00 -0.00000000000E+00 -0.25678229183E+03  0.25678229183E+03  0.00000000000E+00 0. -1.
         24    2    1    2    0    0  0.71157125420E+01  0.14067858422E+02  0.23127237249E+03  0.24632592122E+03  0.83312731210E+02 0.  0.
         23    2    1    2    0    0  0.29541499256E+02  0.85701029958E+02  0.94715752264E+02  0.15997863031E+03  0.91677269343E+02 0.  0.
        -13    1    3    3    0    0  0.18938555320E+02 -0.14457851515E+02  0.15656276397E+02  0.28509951572E+02  0.00000000000E+00 0.  1.
         14    1    3    3    0    0 -0.11822842778E+02  0.28525709937E+02  0.21561609610E+03  0.21781596965E+03  0.00000000000E+00 0. -1.
        -13    1    4    4    0    0  0.53651213986E+02  0.48551765687E+02  0.89941674056E+02  0.11543496630E+03  0.00000000000E+00 0. -1.
         13    1    4    4    0    0 -0.24109714730E+02  0.37149264271E+02  0.47740782084E+01  0.44543664005E+02  0.00000000000E+00 0.  1.
         21    1    1    2  503  501 -0.20680643140E+02  0.25123029377E+02 -0.95523635020E+02  0.10091392596E+03  0.00000000000E+00 0.  1.
          1    1    1    2  501    0 -0.15976568658E+02 -0.12489191776E+03 -0.84932889749E+02  0.15187770616E+03  0.00000000000E+00 0. -1.
<scales pt_clust_5="13000.00000" pt_clust_6="13000.00000" pt_clust_7="13000.00000" pt_clust_8="13000.00000" pt_clust_9="32.54006" pt_clust_10="107.76671"></scales>
<clustering>
<clus scale="   32.540">  2  9  1 -1</clus>
<clus scale="   83.313">  5  6 -1 -1</clus>
<clus scale="   84.921">  1  5  2 -1</clus>
<clus scale="   91.677">  7  8 -1 -1</clus>
<clus scale="  107.767">  2 10  1 -1</clus>
<clus scale="   32.540">  2  5  1 -1</clus>
</clustering>
</event>
<event>
10    4  0.7204077E-005  0.9283968E+02  0.7546771E-02  0.1302631E+00
         21   -1    0    0  503  502  0.00000000000E+00  0.00000000000E+00  0.16937102408E+03  0.16937102408E+03  0.00000000000E+00 0.  1.
         -1   -1    0    0    0  501 -0.00000000000E+00 -0.00000000000E+00 -0.43594009857E+03  0.43594009857E+03  0.00000000000E+00 0.  1.
         23    2    1    2    0    0  0.11541846757E+02 -0.76032391982E+01 -0.37111367313E+03  0.38240903531E+03  0.91215615078E+02 0.  0.
         24    2    1    2    0    0 -0.38321088378E+02  0.31313728266E+02  0.93146749503E+01  0.94942736721E+02  0.80487916448E+02 0.  0.
        -13    1    4    4    0    0  0.39543992219E+01 -0.24303549086E+02  0.22368209743E+01  0.24724545283E+02  0.00000000000E+00 0.  1.
         14    1    4    4    0    0 -0.42275487600E+02  0.55617277352E+02  0.70778539761E+01  0.70218191438E+02  0.00000000000E+00 0. -1.
        -11    1    3    3    0    0  0.66241577611E+01 -0.48685437649E+02 -0.23777125890E+03  0.24279481638E+03  0.00000000000E+00 0.  1.
         11    1    3    3    0    0  0.49176889960E+01  0.41082198450E+02 -0.13334241423E+03  0.13961421893E+03  0.00000000000E+00 0. -1.
         21    1    1    2  503  501  0.19698284489E+02 -0.44514499937E+02  0.25713932110E+02  0.55052424298E+02  0.00000000000E+00 0.  1.
         -2    1    1    2    0  502  0.70809571320E+01  0.20804010870E+02  0.69515991574E+02  0.72906926328E+02  0.00000000000E+00 0.  1.
<scales pt_clust_5="13000.00000" pt_clust_6="13000.00000" pt_clust_7="13000.00000" pt_clust_8="13000.00000" pt_clust_9="42.47453" pt_clust_10="21.97605"></scales>
<clustering>
<clus scale="   21.976">  1 10  2 -1</clus>
<clus scale="   42.475">  1  9  2 -1</clus>
<clus scale="   80.488">  5  6 -1 -1</clus>
<clus scale="   82.324">  1  5  2 -1</clus>
<clus scale="   91.216">  7  8 -1 -1</clus>
<clus scale="   21.976">  1  5  2 -1</clus>
</clustering>
</event>
<event>
10    4  0.1035571E-004  0.3915837E+03  0.7546771E-02  0.1095782E+00
         21   -1    0    0  501  502  0.00000000000E+00  0.00000000000E+00  0.66429423264E+03  0.66429423264E+03  0.00000000000E+00 0.  1.
          2   -1    0    0  503    0 -0.00000000000E+00 -0.00000000000E+00 -0.89178028737E+03  0.89178028737E+03  0.00000000000E+00 0. -1.
         23    2    1    2    0    0 -0.62509361899E+02  0.19753480481E+02 -0.17095610439E+02  0.10353779635E+03  0.78295562206E+02 0.  0.
         24    2    1    2    0    0  0.38049476440E+03  0.11512320615E+03  0.45281110017E+03  0.60774415394E+03  0.79280803981E+02 0.  0.
        -11    1    4    4    0    0  0.33888309769E+03  0.12618775780E+03  0.39310285727E+03  0.53413009699E+03  0.00000000000E+00 0.  1.
         12    1    4    4    0    0  0.41611666713E+02 -0.11064551658E+02  0.59708242903E+02  0.73614056950E+02  0.00000000000E+00 0. -1.
        -11    1    3    3    0    0 -0.50968003557E+02  0.48863824372E+02 -0.14778054366E+02  0.72137380114E+02  0.00000000000E+00 0.  1.
         11    1    3    3    0    0 -0.11541358343E+02 -0.29110343891E+02 -0.23175560728E+01  0.31400416239E+02  0.00000000000E+00 0. -1.
         21    1    1    2  503  502 -0.11506979104E+03  0.10479085296E+03 -0.63983322473E+02  0.16827372115E+03  0.00000000000E+00 0.  1.
          1    1    1    2  501    0 -0.20291561146E+03 -0.23966753959E+03 -0.59921822200E+03  0.67651884858E+03  0.00000000000E+00 0. -1.
<scales pt_clust_5="13000.00000" pt_clust_6="13000.00000" pt_clust_7="13000.00000" pt_clust_8="13000.00000" pt_clust_9="163.99230" pt_clust_10="383.47427"></scales>
<clustering>
<clus scale="   78.296">  7  8 -1 -1</clus>
<clus scale="   79.281">  5  6 -1 -1</clus>
<clus scale="  102.117">  2  7  1 -1</clus>
<clus scale="  163.992">  2  9  1 -1</clus>
<clus scale="  383.474">  1 10  2 -1</clus>
<clus scale="  383.474">  1  5  2 -1</clus>
</clustering>
</event>
<event>
10    4  0.7204077E-005  0.3760492E+03  0.7546771E-02  0.1096064E+00
         21   -1    0    0  503  502  0.00000000000E+00  0.00000000000E+00  0.35663307190E+03  0.35663307190E+03  0.00000000000E+00 0.  1.
          2   -1    0    0  502    0 -0.00000000000E+00 -0.00000000000E+00 -0.61389616622E+03  0.61389616622E+03  0.00000000000E+00 0. -1.
         23    2    1    2    0    0 -0.63298380589E+02 -0.20873974827E+02  0.47873589309E+02  0.12171391316E+03  0.89888755092E+02 0.  0.
         24    2    1    2    0    0 -0.11725853494E+03 -0.33228949752E+03 -0.15844560033E+03  0.39544760382E+03  0.84308510388E+02 0.  0.
        -11    1    4    4    0    0 -0.11217153283E+03 -0.26823487731E+03 -0.96887763475E+02  0.30646311507E+03  0.00000000000E+00 0.  1.
         12    1    4    4    0    0 -0.50870021098E+01 -0.64054620202E+02 -0.61557836854E+02  0.88984488748E+02  0.00000000000E+00 0. -1.
        -13    1    3    3    0    0 -0.84020591514E+02 -0.19337236039E+02  0.51779481259E+02  0.10057088632E+03  0.00000000000E+00 0.  1.
         13    1    3    3    0    0  0.20722210926E+02 -0.15367387876E+01 -0.39058919498E+01  0.21143026833E+02  0.00000000000E+00 0. -1.
         21    1    1    2  503  501 -0.23874564433E+02  0.25402968875E+02  0.10368161169E+02  0.36370378339E+02  0.00000000000E+00 0.  1.
          1    1    1    2  501    0  0.20443147996E+03  0.32776050347E+03 -0.15705924448E+03  0.41699734281E+03  0.00000000000E+00 0. -1.
<scales pt_clust_5="13000.00000" pt_clust_6="13000.00000" pt_clust_7="13000.00000" pt_clust_8="13000.00000" pt_clust_9="34.86123" pt_clust_10="366.47673"></scales>
<clustering>
<clus scale="   34.861">  1  9  2 -1</clus>
<clus scale="   84.309">  5  6 -1 -1</clus>
<clus scale="   89.889">  7  8 -1 -1</clus>
<clus scale="  114.456">  2  7  1 -1</clus>
<clus scale="  366.477">  1 10  2 -1</clus>
<clus scale="   34.861">  1  5  2 -1</clus>
</clustering>
</event>
<event>
10    4  0.7204077E-005  0.1997969E+03  0.7546771E-02  0.1178654E+00
         21   -1    0    0  501  502  0.00000000000E+00  0.00000000000E+00  0.21626051422E+03  0.21626051422E+03  0.00000000000E+00 0.  1.
          2   -1    0    0  503    0 -0.00000000000E+00 -0.00000000000E+00 -0.15434310859E+04  0.15434310859E+04  0.00000000000E+00 0. -1.
         24    2    1    2    0    0  0.31056681811E+02 -0.53804592207E+02 -0.49226963274E+03  0.50262580609E+03  0.80273644495E+02 0.  0.
         23    2    1    2    0    0  0.69375726130E+02  0.19889258280E+03 -0.10956837376E+03  0.25423042314E+03  0.90865992829E+02 0.  0.
        -13    1    3    3    0    0  0.18760657650E+02 -0.74799002646E+02 -0.38138772871E+03  0.38910596588E+03  0.00000000000E+00 0.  1.
         14    1    3    3    0    0  0.12296024161E+02  0.20994410438E+02 -0.11088190403E+03  0.11351984021E+03  0.00000000000E+00 0. -1.
        -13    1    4    4    0    0  0.85925179130E+02  0.17870398152E+03 -0.11247070991E+03  0.22796471220E+03  0.00000000000E+00 0.  1.
         13    1    4    4    0    0 -0.16549453000E+02  0.20188601283E+02  0.29023361494E+01  0.26265710946E+02  0.00000000000E+00 0. -1.
         21    1    1    2  503  502  0.62321678345E+01 -0.36615864827E+02  0.12942301534E+03  0.13464723678E+03  0.00000000000E+00 0.  1.
          1    1    1    2  501    0 -0.10666457578E+03 -0.10847212577E+03 -0.85475558047E+03  0.86818813407E+03  0.00000000000E+00 0. -1.
<scales pt_clust_5="13000.00000" pt_clust_6="13000.00000" pt_clust_7="13000.00000" pt_clust_8="13000.00000" pt_clust_9="37.14245" pt_clust_10="177.93882"></scales>
<clustering>
<clus scale="   37.142">  1  9  2 -1</clus>
<clus scale="   80.274">  5  6 -1 -1</clus>
<clus scale="   90.866">  7  8 -1 -1</clus>
<clus scale="  102.833">  2  5  1 -1</clus>
<clus scale="  177.939">  1 10  2 -1</clus>
<clus scale="   37.142">  1  5  2 -1</clus>
</clustering>
</event>
<event>
10    4  0.7204077E-005  0.9735654E+02  0.7546771E-02  0.1291903E+00
         -1   -1    0    0    0  501 -0.00000000000E+00  0.00000000000E+00  0.45913411132E+03  0.45913411132E+03  0.00000000000E+00 0.  1.
         21   -1    0    0  501  502  0.00000000000E+00 -0.00000000000E+00 -0.24201914794E+03  0.24201914794E+03  0.00000000000E+00 0. -1.
         23    2    1    2    0    0  0.16196487304E+02 -0.17349308225E+02  0.37058954981E+03  0.38076624887E+03  0.84160543907E+02 0.  0.
         24    2    1    2    0    0  0.95929753191E+02 -0.19935004236E+01 -0.11705268905E+03  0.16008204929E+03  0.52138650711E+02 0.  0.
        -13    1    4    4    0    0  0.13099981201E+02 -0.19821120117E+02 -0.18474133050E+02  0.30096177533E+02  0.00000000000E+00 0.  1.
         14    1    4    4    0    0  0.82829771990E+02  0.17827619693E+02 -0.98578556004E+02  0.12998587175E+03  0.00000000000E+00 0. -1.
        -13    1    3    3    0    0  0.34766462970E+02 -0.37720647849E+02  0.30980615069E+03  0.31402452966E+03  0.00000000000E+00 0.  1.
         13    1    3    3    0    0 -0.18569975666E+02  0.20371339624E+02  0.60783399117E+02  0.66741719205E+02  0.00000000000E+00 0. -1.
         21    1    1    2  503  502 -0.28550855280E+02  0.40201151740E+02 -0.53211746659E+02  0.72544978606E+02  0.00000000000E+00 0. -1.
         -2    1    1    2    0  503 -0.83575385215E+02 -0.20858343092E+02  0.16789849281E+02  0.87759982505E+02  0.00000000000E+00 0.  1.
<scales pt_clust_5="13000.00000" pt_clust_6="13000.00000" pt_clust_7="13000.00000" pt_clust_8="13000.00000" pt_clust_9="49.30805" pt_clust_10="82.21838"></scales>
<clustering>
<clus scale="   49.308">  2  9  1 -1</clus>
<clus scale="   52.139">  5  6 -1 -1</clus>
<clus scale="   84.161">  7  8 -1 -1</clus>
<clus scale="   87.077">  1  7  2 -1</clus>
<clus scale="   82.218">  2 10  1 -1</clus>
<clus scale="   49.308">  2  5  1 -1</clus>
</clustering>
</event>
<event>
10    4  0.7204077E-005  0.1912452E+03  0.7546771E-02  0.1179616E+00
         21   -1    0    0  503  502  0.00000000000E+00  0.00000000000E+00  0.85569970809E+02  0.85569970809E+02  0.00000000000E+00 0. -1.
          2   -1    0    0  502    0 -0.00000000000E+00 -0.00000000000E+00 -0.80327674069E+03  0.80327674069E+03  0.00000000000E+00 0. -1.
         24    2    1    2    0    0  0.75998049724E+02  0.61484500090E+01 -0.14333129432E+03  0.18277241873E+03  0.83954690870E+02 0.  0.
         23    2    1    2    0    0 -0.17763308024E+03 -0.10684782031E+03 -0.23285890110E+03  0.32554727428E+03  0.93743224121E+02 0.  0.
        -11    1    3    3    0    0  0.75754441645E+02 -0.13795349337E+02 -0.61501213730E+02  0.98546671088E+02  0.00000000000E+00 0.  1.
         12    1    3    3    0    0  0.24360807873E+00  0.19943799346E+02 -0.81830080587E+02  0.84225747644E+02  0.00000000000E+00 0. -1.
        -11    1    4    4    0    0 -0.46920799320E+02  0.92155737090E+01 -0.25006789703E+02  0.53961354124E+02  0.00000000000E+00 0. -1.
         11    1    4    4    0    0 -0.13071228092E+03 -0.11606339402E+03 -0.20785211140E+03  0.27158592016E+03  0.00000000000E+00 0.  1.
         21    1    1    2  503  501  0.49208683839E+01  0.23768722707E+02 -0.91683957075E+01  0.25946610658E+02  0.00000000000E+00 0. -1.
          1    1    1    2  501    0  0.96714162131E+02  0.76930647591E+02 -0.33234817875E+03  0.35458040783E+03  0.00000000000E+00 0. -1.
<scales pt_clust_5="13000.00000" pt_clust_6="13000.00000" pt_clust_7="13000.00000" pt_clust_8="13000.00000" pt_clust_9="24.27277" pt_clust_10="166.69418"></scales>
<clustering>
<clus scale="   24.273">  1  9  2 -1</clus>
<clus scale="   83.955">  5  6 -1 -1</clus>
<clus scale="   93.743">  7  8 -1 -1</clus>
<clus scale="  114.744">  2  5  1 -1</clus>
<clus scale="  166.694">  1 10  2 -1</clus>
<clus scale="   24.273">  1  5  2 -1</clus>
</clustering>
</event>
<event>
10    4  0.7204077E-005  0.1532245E+03  0.7546771E-02  0.1200621E+00
         21   -1    0    0  501  502  0.00000000000E+00  0.00000000000E+00  0.26002401583E+03  0.26002401583E+03  0.00000000000E+00 0.  1.
          2   -1    0    0  503    0 -0.00000000000E+00 -0.00000000000E+00 -0.10575923048E+04  0.10575923048E+04  0.00000000000E+00 0. -1.
         24    2    1    2    0    0  0.24109406950E+02 -0.13629321987E+03 -0.53890925594E+03  0.56037017169E+03  0.66591575266E+02 0.  0.
         23    2    1    2    0    0 -0.13445473009E+03  0.45388075272E+02 -0.24188659159E+03  0.29475785723E+03  0.90746456633E+02 0.  0.
        -13    1    3    3    0    0  0.35154736079E+02 -0.11046251756E+03 -0.33401226277E+03  0.35355624013E+03  0.00000000000E+00 0.  1.
         14    1    3    3    0    0 -0.11045329128E+02 -0.25830702316E+02 -0.20489699318E+03  0.20681393157E+03  0.00000000000E+00 0. -1.
        -11    1    4    4    0    0 -0.10301427712E+03  0.10280852358E+02 -0.95044916858E+02  0.14053886806E+03  0.00000000000E+00 0. -1.
         11    1    4    4    0    0 -0.31440452967E+02  0.35107222914E+02 -0.14684167473E+03  0.15421898917E+03  0.00000000000E+00 0.  1.
         21    1    1    2  503  502  0.11724166675E+03  0.16057985268E+02  0.20036985193E+03  0.23270484498E+03  0.00000000000E+00 0.  1.
          1    1    1    2  501    0 -0.68963436156E+01  0.74847159333E+02 -0.21714229338E+03  0.22978344673E+03  0.00000000000E+00 0. -1.
<scales pt_clust_5="13000.00000" pt_clust_6="13000.00000" pt_clust_7="13000.00000" pt_clust_8="13000.00000" pt_clust_9="137.07862" pt_clust_10="75.16424"></scales>
<clustering>
<clus scale="   66.592">  5  6 -1 -1</clus>
<clus scale="   75.164">  1 10  2 -1</clus>
<clus scale="   90.746">  7  8 -1 -1</clus>
<clus scale="  137.079">  1  9  2 -1</clus>
<clus scale="  140.276">  2  5  1 -1</clus>
<clus scale="   75.164">  1  5  2 -1</clus>
</clustering>
</event>
<event>
10    4  0.7204077E-005  0.1710528E+03  0.7546771E-02  0.1205054E+00
         21   -1    0    0  501  502  0.00000000000E+00  0.00000000000E+00  0.42334634678E+03  0.42334634678E+03  0.00000000000E+00 0. -1.
          2   -1    0    0  503    0 -0.00000000000E+00 -0.00000000000E+00 -0.60147374449E+03  0.60147374449E+03  0.00000000000E+00 0. -1.
         23    2    1    2    0    0 -0.12072609415E+00  0.15500388978E+02 -0.42243041597E+02  0.10047755733E+03  0.89838679474E+02 0.  0.
         24    2    1    2    0    0  0.12504613705E+03  0.69359887949E+02 -0.48578155415E+03  0.51230237073E+03  0.77605864797E+02 0.  0.
        -11    1    4    4    0    0  0.26694993527E+01  0.30510910271E+02 -0.14349078163E+03  0.14672302575E+03  0.00000000000E+00 0.  1.
         12    1    4    4    0    0  0.12237663769E+03  0.38848977678E+02 -0.34229077252E+03  0.36557934498E+03  0.00000000000E+00 0. -1.
        -13    1    3    3    0    0 -0.17592495517E+02 -0.22735573811E+02 -0.50051693344E+02  0.57719790555E+02  0.00000000000E+00 0. -1.
         13    1    3    3    0    0  0.17471769423E+02  0.38235962789E+02  0.78086517473E+01  0.42757766772E+02  0.00000000000E+00 0.  1.
         21    1    1    2  503  502 -0.70882717169E+00  0.22250482913E+02  0.15816276230E+03  0.15972177624E+03  0.00000000000E+00 0. -1.
          1    1    1    2  501    0 -0.12421658378E+03 -0.10711075984E+03  0.19173443574E+03  0.25231838698E+03  0.00000000000E+00 0. -1.
<scales pt_clust_5="13000.00000" pt_clust_6="13000.00000" pt_clust_7="13000.00000" pt_clust_8="13000.00000" pt_clust_9="22.26177" pt_clust_10="152.43489"></scales>
<clustering>
<clus scale="   22.262">  1  9  2 -1</clus>
<clus scale="   77.606">  5  6 -1 -1</clus>
<clus scale="   89.839">  7  8 -1 -1</clus>
<clus scale="   91.615">  2  7  1 -1</clus>
<clus scale="  152.435">  1 10  2 -1</clus>
<clus scale="   22.262">  1  5  2 -1</clus>
</clustering>
</event>
<event>
10    4  0.7204077E-005  0.1628625E+03  0.7546771E-02  0.1188090E+00
          2   -1    0    0  503    0 -0.00000000000E+00  0.00000000000E+00  0.62492781932E+02  0.62492781932E+02  0.00000000000E+00 0. -1.
         21   -1    0    0  501  502  0.00000000000E+00 -0.00000000000E+00 -0.78219562148E+03  0.78219562148E+03  0.00000000000E+00 0. -1.
         23    2    1    2    0    0 -0.21994310522E+02  0.12568875733E+03 -0.12633671368E+03  0.20179655592E+03  0.92084045007E+02 0.  0.
         24    2    1    2    0    0  0.39340992313E+02 -0.14426872195E+03 -0.34091715178E+03  0.37971614577E+03  0.74824255259E+02 0.  0.
        -11    1    4    4    0    0  0.13796272345E+02 -0.83148667602E+02 -0.10483068019E+03  0.13451211679E+03  0.00000000000E+00 0.  1.
         12    1    4    4    0    0  0.25544719968E+02 -0.61120054343E+02 -0.23608647159E+03  0.24520402898E+03  0.00000000000E+00 0. -1.
        -13    1    3    3    0    0 -0.14368817429E+02  0.21493401836E+02  0.11949655823E+02  0.28481985729E+02  0.00000000000E+00 0.  1.
         13    1    3    3    0    0 -0.76254930936E+01  0.10419535550E+03 -0.13828636950E+03  0.17331457020E+03  0.00000000000E+00 0. -1.
         21    1    1    2  503  502 -0.23889500805E+02 -0.13251415701E+02 -0.19716026627E+03  0.19904391189E+03  0.00000000000E+00 0. -1.
          1    1    1    2  501    0  0.65428190141E+01  0.31831380315E+02 -0.55288707821E+02  0.64131789823E+02  0.00000000000E+00 0. -1.
<scales pt_clust_5="13000.00000" pt_clust_6="13000.00000" pt_clust_7="13000.00000" pt_clust_8="13000.00000" pt_clust_9="27.31864" pt_clust_10="30.75136"></scales>
<clustering>
<clus scale="   27.319">  2  9  1 -1</clus>
<clus scale="   30.751">  2 10  1 -1</clus>
<clus scale="   74.824">  5  6 -1 -1</clus>
<clus scale="   92.084">  7  8 -1 -1</clus>
<clus scale="  153.764">  2  5  1 -1</clus>
<clus scale="   27.319">  2  5  1 -1</clus>
</clustering>
</event>
<event>
10    4  0.1332440E-004  0.2793183E+03  0.7546771E-02  0.1140666E+00
         21   -1    0    0  503  502  0.00000000000E+00  0.00000000000E+00  0.80664399436E+02  0.80664399436E+02  0.00000000000E+00 0.  1.
          2   -1    0    0  502    0 -0.00000000000E+00 -0.00000000000E+00 -0.16880939191E+04  0.16880939191E+04  0.00000000000E+00 0. -1.
         24    2    1    2    0    0  0.83463786489E+01  0.43252735683E+02 -0.22552732341E+03  0.24370343192E+03  0.81168515719E+02 0.  0.
         23    2    1    2    0    0 -0.16032081459E+03 -0.21487219631E+03 -0.32510353383E+03  0.43101245596E+03  0.90590314841E+02 0.  0.
        -11    1    3    3    0    0  0.68205593791E+00  0.59481536735E+02 -0.95980870640E+02  0.11291964374E+03  0.00000000000E+00 0.  1.
         12    1    3    3    0    0  0.76643227110E+01 -0.16228801052E+02 -0.12954645277E+03  0.13078378818E+03  0.00000000000E+00 0. -1.
        -11    1    4    4    0    0 -0.11538983505E+02 -0.72782196849E+02 -0.11779802185E+03  0.13894880450E+03  0.00000000000E+00 0. -1.
         11    1    4    4    0    0 -0.14878183109E+03 -0.14208999946E+03 -0.20730551198E+03  0.29206365146E+03  0.00000000000E+00 0.  1.
         21    1    1    2  503  501  0.16199668494E+02 -0.24749147219E+02 -0.40938873193E+02  0.50506839989E+02  0.00000000000E+00 0. -1.
          1    1    1    2  501    0  0.13577476745E+03  0.19636860784E+03 -0.10158597892E+04  0.10435355907E+04  0.00000000000E+00 0. -1.
<scales pt_clust_5="13000.00000" pt_clust_6="13000.00000" pt_clust_7="13000.00000" pt_clust_8="13000.00000" pt_clust_9="29.57955" pt_clust_10="264.21998"></scales>
<clustering>
<clus scale="   29.580">  1  9  2 -1</clus>
<clus scale="   81.169">  5  6 -1 -1</clus>
<clus scale="   90.590">  7  8 -1 -1</clus>
<clus scale="   91.199">  2  5  1 -1</clus>
<clus scale="  264.220">  1 10  2 -1</clus>
<clus scale="   29.580">  1  5  2 -1</clus>
</clustering>
</event>
<event>
10    4  0.7204077E-005  0.3579478E+03  0.7546771E-02  0.1096049E+00
         21   -1    0    0  503  502  0.00000000000E+00  0.00000000000E+00  0.81262113731E+03  0.81262113731E+03  0.00000000000E+00 0. -1.
          2   -1    0    0  502    0 -0.00000000000E+00 -0.00000000000E+00 -0.11591540466E+04  0.11591540466E+04  0.00000000000E+00 0. -1.
         24    2    1    2    0    0 -0.11004373431E+03  0.71261151080E+02 -0.59623781515E+02  0.16543816612E+03  0.81406488514E+02 0.  0.
         23    2    1    2    0    0 -0.26590125907E+03  0.12875744455E+03 -0.69955187323E+03  0.76496993617E+03  0.92326706835E+02 0.  0.
        -13    1    3    3    0    0  0.48088905342E+01  0.31913213833E+02 -0.18813197264E+02  0.37356592947E+02  0.00000000000E+00 0.  1.
         14    1    3    3    0    0 -0.11485262484E+03  0.39347937247E+02 -0.40810584251E+02  0.12808157317E+03  0.00000000000E+00 0. -1.
        -13    1    4    4    0    0 -0.23195817492E+03  0.95354087529E+02 -0.64774190639E+03  0.69459813865E+03  0.00000000000E+00 0. -1.
         13    1    4    4    0    0 -0.33943084152E+02  0.33403357018E+02 -0.51809966842E+02  0.70371797518E+02  0.00000000000E+00 0.  1.
         21    1    1    2  503  501  0.32316167212E+02 -0.14734130997E+03  0.61898432995E+03  0.63709920500E+03  0.00000000000E+00 0. -1.
          1    1    1    2  501    0  0.34362882617E+03 -0.52677285659E+02 -0.20634158452E+03  0.40426787666E+03  0.00000000000E+00 0. -1.
<scales pt_clust_5="13000.00000" pt_clust_6="13000.00000" pt_clust_7="13000.00000" pt_clust_8="13000.00000" pt_clust_9="150.84362" pt_clust_10="345.83582"></scales>
<clustering>
<clus scale="   81.406">  5  6 -1 -1</clus>
<clus scale="   92.327">  7  8 -1 -1</clus>
<clus scale="  150.844">  1  9  2 -1</clus>
<clus scale="  132.764">  2  5  1 -1</clus>
<clus scale="  345.836">  1 10  2 -1</clus>
<clus scale="  150.844">  1  5  2 -1</clus>
</clustering>
</event>
<event>
10    4  0.7204077E-005  0.5682155E+03  0.7546771E-02  0.9973635E-01
         21   -1    0    0  503  502  0.00000000000E+00  0.00000000000E+00  0.88610215838E+03  0.88610215838E+03  0.00000000000E+00 0. -1.
          2   -1    0    0  502    0 -0.00000000000E+00 -0.00000000000E+00 -0.50660035953E+03  0.50660035953E+03  0.00000000000E+00 0. -1.
         24    2    1    2    0    0 -0.82080234864E+02 -0.23515279166E+03 -0.21723607238E+02  0.26300611396E+03  0.81647415684E+02 0.  0.
         23    2    1    2    0    0 -0.11130944954E+03 -0.25554257647E+03 -0.16136563666E+03  0.33412239420E+03  0.88921896427E+02 0.  0.
        -11    1    3    3    0    0 -0.82823200794E+02 -0.11733492198E+03 -0.21248563979E+02  0.14518494405E+03  0.00000000000E+00 0.  1.
         12    1    3    3    0    0  0.74296593061E+00 -0.11781786968E+03 -0.47504325918E+00  0.11782116991E+03  0.00000000000E+00 0. -1.
        -11    1    4    4    0    0 -0.12338106998E+03 -0.22762037065E+03 -0.15848928736E+03  0.30356675670E+03  0.00000000000E+00 0. -1.
         11    1    4    4    0    0  0.12071620438E+02 -0.27922205814E+02 -0.28763493007E+01  0.30555637496E+02  0.00000000000E+00 0.  1.
         21    1    1    2  503  501 -0.21491375161E+02  0.93003320601E+01  0.70981778998E+02  0.74744821442E+02  0.00000000000E+00 0.  1.
          1    1    1    2  501    0  0.21488105957E+03  0.48139503607E+03  0.49160926375E+03  0.72082918831E+03  0.00000000000E+00 0. -1.
<scales pt_clust_5="13000.00000" pt_clust_6="13000.00000" pt_clust_7="13000.00000" pt_clust_8="13000.00000" pt_clust_9="23.41742" pt_clust_10="527.26618"></scales>
<clustering>
<clus scale="   23.417">  1  9  2 -1</clus>
<clus scale="   81.647">  5  6 -1 -1</clus>
<clus scale="   88.922">  7  8 -1 -1</clus>
<clus scale="  146.856">  5  7 -1 -1</clus>
<clus scale="  527.266">  1 10  2 -1</clus>
<clus scale="   23.417">  1  5  2 -1</clus>
</clustering>
</event>
<event>
10    4  0.7204077E-005  0.2034767E+03  0.7546771E-02  0.1147741E+00
         -1   -1    0    0    0  501 -0.00000000000E+00  0.00000000000E+00  0.36123016478E+03  0.36123016478E+03  0.00000000000E+00 0.  1.
         21   -1    0    0  503  502  0.00000000000E+00 -0.00000000000E+00 -0.18493647086E+03  0.18493647086E+03  0.00000000000E+00 0. -1.
         24    2    1    2    0    0  0.15828356486E+03  0.13057056011E+03  0.16666801023E+03  0.27668021762E+03  0.81678388329E+02 0.  0.
         23    2    1    2    0    0 -0.11906242179E+03 -0.96989167754E+02  0.56549153125E+02  0.18760072847E+03  0.91724956579E+02 0.  0.
        -13    1    3    3    0    0  0.10080915690E+03  0.33141417231E+02  0.97389047681E+02  0.14403286521E+03  0.00000000000E+00 0.  1.
         14    1    3    3    0    0  0.57474407955E+02  0.97429142879E+02  0.69278962547E+02  0.13264735242E+03  0.00000000000E+00 0. -1.
        -11    1    4    4    0    0 -0.34290255483E+02  0.15820311636E+02  0.11837743427E+02  0.39575700256E+02  0.00000000000E+00 0.  1.
         11    1    4    4    0    0 -0.84772166306E+02 -0.11280947939E+03  0.44711409698E+02  0.14802502821E+03  0.00000000000E+00 0. -1.
         21    1    1    2  503  501 -0.72915982542E+01 -0.32383067755E+02 -0.14057217181E+02  0.36047688375E+02  0.00000000000E+00 0. -1.
         -2    1    1    2    0  502 -0.31929544813E+02 -0.11983246006E+01 -0.32866252250E+02  0.45838001165E+02  0.00000000000E+00 0.  1.
<scales pt_clust_5="13000.00000" pt_clust_6="13000.00000" pt_clust_7="13000.00000" pt_clust_8="13000.00000" pt_clust_9="35.00779" pt_clust_10="31.95202"></scales>
<clustering>
<clus scale="   31.952">  2 10  1 -1</clus>
<clus scale="   35.008">  2  9  1 -1</clus>
<clus scale="   81.678">  5  6 -1 -1</clus>
<clus scale="   91.725">  7  8 -1 -1</clus>
<clus scale="  199.150">  1  5  2 -1</clus>
<clus scale="   31.952">  2  5  1 -1</clus>
</clustering>
</event>
<event>
10    4  0.7204077E-005  0.1667362E+03  0.7546771E-02  0.1201382E+00
         21   -1    0    0  503  502  0.00000000000E+00  0.00000000000E+00  0.30472843543E+03  0.30472843543E+03  0.00000000000E+00 0. -1.
         -3   -1    0    0    0  501 -0.00000000000E+00 -0.00000000000E+00 -0.39560183975E+03  0.39560183975E+03  0.00000000000E+00 0.  1.
         23    2    1    2    0    0 -0.57452025367E+01 -0.54131739730E+02 -0.22392166413E+03  0.24740282707E+03  0.90022189368E+02 0.  0.
         24    2    1    2    0    0 -0.14036729141E+02 -0.91576362423E+02  0.48807684366E+02  0.13250866427E+03  0.81197882569E+02 0.  0.
        -13    1    4    4    0    0  0.21195887403E+02 -0.64187780781E+02  0.16982286202E+01  0.67618198918E+02  0.00000000000E+00 0.  1.
         14    1    4    4    0    0 -0.35232616544E+02 -0.27388581642E+02  0.47109455746E+02  0.64890465352E+02  0.00000000000E+00 0. -1.
        -11    1    3    3    0    0  0.11406256161E+02 -0.73914257568E+02 -0.13081735746E+03  0.15068709688E+03  0.00000000000E+00 0.  1.
         11    1    3    3    0    0 -0.17151458698E+02  0.19782517838E+02 -0.93104306668E+02  0.96715730198E+02  0.00000000000E+00 0. -1.
         21    1    1    2  503  501  0.32888842899E+02  0.20578737880E+03 -0.91519967167E+01  0.20859980898E+03  0.00000000000E+00 0. -1.
         -4    1    1    2    0  502 -0.13106911222E+02 -0.60079276653E+02  0.93392572163E+02  0.11181897487E+03  0.00000000000E+00 0.  1.
<scales pt_clust_5="13000.00000" pt_clust_6="13000.00000" pt_clust_7="13000.00000" pt_clust_8="13000.00000" pt_clust_9="145.62920" pt_clust_10="61.49236"></scales>
<clustering>
<clus scale="   61.492">  1 10  2 -1</clus>
<clus scale="   81.198">  5  6 -1 -1</clus>
<clus scale="   90.022">  7  8 -1 -1</clus>
<clus scale="  107.082">  2  7  1 -1</clus>
<clus scale="  145.629">  2  9  1 -1</clus>
<clus scale="   61.492">  1  5  2 -1</clus>
</clustering>
</event>
<event>
10    4  0.7204077E-005  0.2576616E+03  0.7546771E-02  0.1155237E+00
          2   -1    0    0  502    0 -0.00000000000E+00  0.00000000000E+00  0.63208093996E+03  0.63208093996E+03  0.00000000000E+00 0. -1.
         21   -1    0    0  503  502  0.00000000000E+00 -0.00000000000E+00 -0.12530663678E+04  0.12530663678E+04  0.00000000000E+00 0. -1.
         24    2    1    2    0    0  0.14700418667E+02 -0.16075227035E+02  0.74414883380E+02  0.11084895059E+03  0.79217420722E+02 0.  0.
         23    2    1    2    0    0  0.52525407426E+02 -0.11371666739E+03  0.46824462343E+03  0.49326689282E+03  0.91481152794E+02 0.  0.
        -11    1    3    3    0    0  0.42479867204E+02 -0.25450727023E+02  0.61101078151E+02  0.78648715024E+02  0.00000000000E+00 0.  1.
         12    1    3    3    0    0 -0.27779448537E+02  0.93754999880E+01  0.13313805229E+02  0.32200235569E+02  0.00000000000E+00 0. -1.
        -13    1    4    4    0    0 -0.18185125402E+01 -0.97768010749E+02  0.31835292966E+03  0.33303224879E+03  0.00000000000E+00 0. -1.
         13    1    4    4    0    0  0.54343919966E+02 -0.15948656643E+02  0.14989169377E+03  0.16023464403E+03  0.00000000000E+00 0.  1.
         21    1    1    2  503  501 -0.12831368901E+03  0.30346251464E+03 -0.90852121128E+03  0.96641848695E+03  0.00000000000E+00 0. -1.
          1    1    1    2  501    0  0.61087862917E+02 -0.17367062021E+03 -0.25512372340E+03  0.31461297742E+03  0.00000000000E+00 0. -1.
<scales pt_clust_5="13000.00000" pt_clust_6="13000.00000" pt_clust_7="13000.00000" pt_clust_8="13000.00000" pt_clust_9="257.66159" pt_clust_10="13000.00000"></scales>
<clustering>
<clus scale="   79.217">  5  6 -1 -1</clus>
<clus scale="   82.158">  1  5  2 -1</clus>
<clus scale="   91.481">  7  8 -1 -1</clus>
<clus scale="  170.501">  1  7  2 -1</clus>
<clus scale="  257.662">  2  9  1 -1</clus>
<clus scale="  257.662">  2  5  1 -1</clus>
</clustering>
</event>
<event>
10    4  0.7204077E-005  0.2185664E+03  0.7546771E-02  0.1167731E+00
         21   -1    0    0  501  502  0.00000000000E+00  0.00000000000E+00  0.97892806612E+02  0.97892806612E+02  0.00000000000E+00 0. -1.
          2   -1    0    0  503    0 -0.00000000000E+00 -0.00000000000E+00 -0.14437725951E+04  0.14437725951E+04  0.00000000000E+00 0. -1.
         23    2    1    2    0    0  0.32147654793E+02 -0.27620497024E+02 -0.16939136134E+03  0.19756362533E+03  0.92420718413E+02 0.  0.
         24    2    1    2    0    0  0.10622458365E+03 -0.13763792545E+03 -0.10330259266E+04  0.10507081687E+04  0.81346358804E+02 0.  0.
        -13    1    4    4    0    0  0.45062711267E+02 -0.33195718984E+02 -0.16384764245E+03  0.17314344816E+03  0.00000000000E+00 0.  1.
         14    1    4    4    0    0  0.61161872384E+02 -0.10444220647E+03 -0.86917828413E+03  0.87756472054E+03  0.00000000000E+00 0. -1.
        -11    1    3    3    0    0 -0.20019952519E+02 -0.29829592540E+02 -0.24322607469E+02  0.43384240503E+02  0.00000000000E+00 0. -1.
         11    1    3    3    0    0  0.52167607311E+02  0.22090955161E+01 -0.14506875387E+03  0.15417938482E+03  0.00000000000E+00 0.  1.
         21    1    1    2  503  502  0.45314511066E+01  0.25307020474E+02  0.21975538456E+02  0.33821644325E+02  0.00000000000E+00 0.  1.
          1    1    1    2  501    0 -0.14290368955E+03  0.13995140200E+03 -0.16543803904E+03  0.25957196338E+03  0.00000000000E+00 0. -1.
<scales pt_clust_5="13000.00000" pt_clust_6="13000.00000" pt_clust_7="13000.00000" pt_clust_8="13000.00000" pt_clust_9="25.70952" pt_clust_10="202.86463"></scales>
<clustering>
<clus scale="   25.710">  1  9  2 -1</clus>
<clus scale="   81.346">  5  6 -1 -1</clus>
<clus scale="   92.421">  7  8 -1 -1</clus>
<clus scale="  100.708">  2  7  1 -1</clus>
<clus scale="  202.865">  1 10  2 -1</clus>
<clus scale="   25.710">  1  5  2 -1</clus>
</clustering>
</event>
<event>
10    4  0.7204077E-005  0.2996818E+03  0.7546771E-02  0.1130349E+00
          2   -1    0    0  503    0 -0.00000000000E+00  0.00000000000E+00  0.89967884651E+03  0.89967884651E+03  0.00000000000E+00 0. -1.
         21   -1    0    0  501  502  0.00000000000E+00 -0.00000000000E+00 -0.19168335192E+03  0.19168335192E+03  0.00000000000E+00 0. -1.
         23    2    1    2    0    0 -0.31648559468E+02 -0.47511739786E+01  0.41863671514E+02  0.10372247362E+03  0.89339686427E+02 0.  0.
         24    2    1    2    0    0 -0.46199248438E+02  0.51355821124E+02  0.16489712754E+03  0.19128549588E+03  0.68024167343E+02 0.  0.
        -11    1    4    4    0    0  0.11942874251E+02  0.33747352702E+02  0.69709034078E+02  0.78363674568E+02  0.00000000000E+00 0.  1.
         12    1    4    4    0    0 -0.58142122689E+02  0.17608468422E+02  0.95188093463E+02  0.11292182131E+03  0.00000000000E+00 0. -1.
        -11    1    3    3    0    0  0.25599603724E+02 -0.59318055616E+01 -0.83407427903E+01  0.27569802654E+02  0.00000000000E+00 0. -1.
         11    1    3    3    0    0 -0.57248163192E+02  0.11806315831E+01  0.50204414304E+02  0.76152670967E+02  0.00000000000E+00 0.  1.
         21    1    1    2  503  502  0.23122405383E+03  0.20442423655E+03  0.16634216541E+03  0.35060454583E+03  0.00000000000E+00 0. -1.
          1    1    1    2  501    0 -0.15337624592E+03 -0.25102888370E+03  0.33489253012E+03  0.44574968311E+03  0.00000000000E+00 0. -1.
<scales pt_clust_5="13000.00000" pt_clust_6="13000.00000" pt_clust_7="13000.00000" pt_clust_8="13000.00000" pt_clust_9="299.68177" pt_clust_10="13000.00000"></scales>
<clustering>
<clus scale="   68.024">  5  6 -1 -1</clus>
<clus scale="   89.340">  7  8 -1 -1</clus>
<clus scale="   94.899">  1  7  2 -1</clus>
<clus scale="   99.856">  1  5  2 -1</clus>
<clus scale="  299.682">  2  9  1 -1</clus>
<clus scale="  299.682">  2  5  1 -1</clus>
</clustering>
</event>
<event>
10    4  0.7204077E-005  0.9473018E+02  0.7546771E-02  0.1296344E+00
         21   -1    0    0  503  502  0.00000000000E+00  0.00000000000E+00  0.98976000874E+02  0.98976000874E+02  0.00000000000E+00 0. -1.
          2   -1    0    0  502    0 -0.00000000000E+00 -0.00000000000E+00 -0.15423319238E+03  0.15423319238E+03  0.00000000000E+00 0. -1.
         23    2    1    2    0    0  0.42309755579E+02 -0.18197732398E+02 -0.65917372186E+02  0.11885340042E+03  0.87520043155E+02 0.  0.
         24    2    1    2    0    0 -0.25707701929E+02 -0.18655700193E+02  0.12024532806E+01  0.85262673988E+02  0.79116095667E+02 0.  0.
        -13    1    4    4    0    0 -0.35759781424E+02 -0.66254858745E+01 -0.32065713973E+02  0.48485761242E+02  0.00000000000E+00 0.  1.
         14    1    4    4    0    0  0.10052079495E+02 -0.12030214319E+02  0.33268167254E+02  0.36776912746E+02  0.00000000000E+00 0. -1.
        -13    1    3    3    0    0  0.63226450212E+02  0.37736957291E+00 -0.22316973939E+02  0.67050531243E+02  0.00000000000E+00 0.  1.
         13    1    3    3    0    0 -0.20916694633E+02 -0.18575101971E+02 -0.43600398246E+02  0.51802869176E+02  0.00000000000E+00 0. -1.
         21    1    1    2  503  501 -0.25446952895E+01  0.20845366184E+02  0.16444456908E+02  0.26672550093E+02  0.00000000000E+00 0. -1.
          1    1    1    2  501    0 -0.14057358361E+02  0.16008066407E+02 -0.69867295121E+01  0.22420568758E+02  0.00000000000E+00 0. -1.
<scales pt_clust_5="13000.00000" pt_clust_6="13000.00000" pt_clust_7="13000.00000" pt_clust_8="13000.00000" pt_clust_9="21.00011" pt_clust_10="23.06309"></scales>
<clustering>
<clus scale="   21.000">  1  9  2 -1</clus>
<clus scale="   23.063">  1 10  2 -1</clus>
<clus scale="   79.116">  5  6 -1 -1</clus>
<clus scale="   87.025">  1  5  2 -1</clus>
<clus scale="   87.520">  7  8 -1 -1</clus>
<clus scale="   21.000">  1  5  2 -1</clus>
</clustering>
</event>
<event>
10    4  0.7204077E-005  0.1573136E+03  0.7546771E-02  0.1193137E+00
         -1   -1    0    0    0  501 -0.00000000000E+00  0.00000000000E+00  0.66150363649E+03  0.66150363649E+03  0.00000000000E+00 0.  1.
         21   -1    0    0  503  502  0.00000000000E+00 -0.00000000000E+00 -0.15312834507E+03  0.15312834507E+03  0.00000000000E+00 0. -1.
         24    2    1    2    0    0  0.12638804262E+03 -0.14426470930E+02  0.39898319698E+03  0.42661607782E+03  0.81434796007E+02 0.  0.
         23    2    1    2    0    0 -0.13688133692E+03 -0.48421734859E+02  0.14202841126E+03  0.22211784040E+03  0.89906065511E+02 0.  0.
        -11    1    3    3    0    0  0.43340309250E+02 -0.39680321539E+02  0.10786275462E+03  0.12283030635E+03  0.00000000000E+00 0.  1.
         12    1    3    3    0    0  0.83047733365E+02  0.25253850609E+02  0.29112044236E+03  0.30378577147E+03  0.00000000000E+00 0. -1.
        -11    1    4    4    0    0 -0.29761533263E+02 -0.52939110999E+01 -0.94247395207E+01  0.31663860661E+02  0.00000000000E+00 0.  1.
         11    1    4    4    0    0 -0.10711980366E+03 -0.43127823759E+02  0.15145315078E+03  0.19045397974E+03  0.00000000000E+00 0. -1.
         21    1    1    2  503  501  0.25501254330E+02 -0.22831937891E+02 -0.64696523942E+02  0.73193248120E+02  0.00000000000E+00 0.  1.
         -2    1    1    2    0  502 -0.15007960021E+02  0.85680143680E+02  0.32060207116E+02  0.92704815222E+02  0.00000000000E+00 0.  1.
<scales pt_clust_5="13000.00000" pt_clust_6="13000.00000" pt_clust_7="13000.00000" pt_clust_8="13000.00000" pt_clust_9="34.22881" pt_clust_10="77.67478"></scales>
<clustering>
<clus scale="   34.229">  2  9  1 -1</clus>
<clus scale="   77.675">  2 10  1 -1</clus>
<clus scale="   81.435">  5  6 -1 -1</clus>
<clus scale="   89.906">  7  8 -1 -1</clus>
<clus scale="  152.631">  1  5  2 -1</clus>
<clus scale="   34.229">  2  5  1 -1</clus>
</clustering>
</event>
<event>
10    4  0.7204077E-005  0.9839208E+02  0.7546771E-02  0.1289629E+00
         21   -1    0    0  501  502  0.00000000000E+00  0.00000000000E+00  0.16547412687E+03  0.16547412687E+03  0.00000000000E+00 0. -1.
          2   -1    0    0  503    0 -0.00000000000E+00 -0.00000000000E+00 -0.71696830337E+03  0.71696830337E+03  0.00000000000E+00 0. -1.
         23    2    1    2    0    0 -0.48738748610E-01  0.54611412276E+01 -0.20550443212E+03  0.22496260778E+03  0.91357959902E+02 0.  0.
         24    2    1    2    0    0  0.14197988522E+01  0.81512546083E+02 -0.30279131194E+03  0.32363857145E+03  0.80081429482E+02 0.  0.
        -13    1    4    4    0    0 -0.30187311913E+02  0.57475141760E+02 -0.24544831683E+03  0.25388883779E+03  0.00000000000E+00 0.  1.
         14    1    4    4    0    0  0.31607110765E+02  0.24037404323E+02 -0.57342995108E+02  0.69749733659E+02  0.00000000000E+00 0. -1.
        -11    1    3    3    0    0 -0.41794580229E+02  0.19312181898E+02 -0.84770397646E+02  0.96466406708E+02  0.00000000000E+00 0. -1.
         11    1    3    3    0    0  0.41745841480E+02 -0.13851040670E+02 -0.12073403448E+03  0.12849620107E+03  0.00000000000E+00 0.  1.
         21    1    1    2  503  502 -0.33881712289E+02 -0.91419561637E+02  0.12722574029E+03  0.16028691671E+03  0.00000000000E+00 0. -1.
          1    1    1    2  501    0  0.32510652185E+02  0.44458743257E+01 -0.17042417273E+03  0.17355433430E+03  0.00000000000E+00 0. -1.
<scales pt_clust_5="13000.00000" pt_clust_6="13000.00000" pt_clust_7="13000.00000" pt_clust_8="13000.00000" pt_clust_9="87.68479" pt_clust_10="32.81325"></scales>
<clustering>
<clus scale="   32.813">  1 10  2 -1</clus>
<clus scale="   80.081">  5  6 -1 -1</clus>
<clus scale="   87.685">  1  9  2 -1</clus>
<clus scale="   88.021">  1  5  2 -1</clus>
<clus scale="   91.358">  7  8 -1 -1</clus>
<clus scale="   32.813">  1  5  2 -1</clus>
</clustering>
</event>
<event>
10    4  0.7204077E-005  0.9719128E+02  0.7546771E-02  0.1292701E+00
          2   -1    0    0  502    0 -0.00000000000E+00  0.00000000000E+00  0.40403294914E+03  0.40403294914E+03  0.00000000000E+00 0. -1.
         21   -1    0    0  503  502  0.00000000000E+00 -0.00000000000E+00 -0.60429389872E+02  0.60429389872E+02  0.00000000000E+00 0. -1.
         24    2    1    2    0    0 -0.35267815248E+02  0.14491199339E+02  0.23227262252E+03  0.24862279413E+03  0.80055661492E+02 0.  0.
         23    2    1    2    0    0  0.17627339095E+02  0.24005627708E+02  0.49331860857E+02  0.10835369413E+03  0.91759998318E+02 0.  0.
        -11    1    3    3    0    0  0.23964804505E+02 -0.20773358606E+01  0.39220445344E+02  0.46009461116E+02  0.00000000000E+00 0.  1.
         12    1    3    3    0    0 -0.59232619753E+02  0.16568535200E+02  0.19305217718E+03  0.20261333302E+03  0.00000000000E+00 0. -1.
        -11    1    4    4    0    0  0.38809894654E+02 -0.17588592871E+02  0.44201914684E+02  0.61395242356E+02  0.00000000000E+00 0.  1.
         11    1    4    4    0    0 -0.21182555558E+02  0.41594220579E+02  0.51299461735E+01  0.46958451777E+02  0.00000000000E+00 0. -1.
         21    1    1    2  503  501 -0.25786850037E+02 -0.71410103544E+01  0.16702667556E+01  0.26809428468E+02  0.00000000000E+00 0. -1.
          1    1    1    2  501    0  0.43427326190E+02 -0.31355816693E+02  0.60328809127E+02  0.80676422276E+02  0.00000000000E+00 0. -1.
<scales pt_clust_5="13000.00000" pt_clust_6="13000.00000" pt_clust_7="13000.00000" pt_clust_8="13000.00000" pt_clust_9="26.75735" pt_clust_10="50.20521"></scales>
<clustering>
<clus scale="   26.757">  2  9  1 -1</clus>
<clus scale="   50.205">  2 10  1 -1</clus>
<clus scale="   80.056">  5  6 -1 -1</clus>
<clus scale="   86.227">  1  5  2 -1</clus>
<clus scale="   91.760">  7  8 -1 -1</clus>
<clus scale="   26.757">  2  5  1 -1</clus>
</clustering>
</event>
<event>
10    4  0.7204077E-005  0.1402516E+03  0.7546771E-02  0.1216502E+00
         21   -1    0    0  503  502  0.00000000000E+00  0.00000000000E+00  0.26048987991E+03  0.26048987991E+03  0.00000000000E+00 0. -1.
          2   -1    0    0  502    0 -0.00000000000E+00 -0.00000000000E+00 -0.31664248683E+03  0.31664248683E+03  0.00000000000E+00 0. -1.
         23    2    1    2    0    0  0.21195769990E+02 -0.11308824277E+03 -0.17494715338E+03  0.23023610023E+03  0.95728491341E+02 0.  0.
         24    2    1    2    0    0  0.14029147822E+02  0.82539126631E+02 -0.18432240601E+02  0.11744969513E+03  0.80281747477E+02 0.  0.
        -13    1    4    4    0    0  0.98560571547E+01  0.31049867653E+02 -0.47937689165E+02  0.57959107881E+02  0.00000000000E+00 0.  1.
         14    1    4    4    0    0  0.41730906673E+01  0.51489258978E+02  0.29505448564E+02  0.59490587245E+02  0.00000000000E+00 0. -1.
        -13    1    3    3    0    0 -0.28407608786E+02 -0.31406632667E+02 -0.17007692283E+02  0.45635845661E+02  0.00000000000E+00 0.  1.
         13    1    3    3    0    0  0.49603378775E+02 -0.81681610105E+02 -0.15793946110E+03  0.18460025457E+03  0.00000000000E+00 0. -1.
         21    1    1    2  503  501 -0.23565046162E+02 -0.36024005001E+02  0.15392240588E+03  0.15982849361E+03  0.00000000000E+00 0. -1.
          1    1    1    2  501    0 -0.11659871650E+02  0.66573121142E+02 -0.16695618813E+02  0.69618077775E+02  0.00000000000E+00 0. -1.
<scales pt_clust_5="13000.00000" pt_clust_6="13000.00000" pt_clust_7="13000.00000" pt_clust_8="13000.00000" pt_clust_9="43.04696" pt_clust_10="60.03499"></scales>
<clustering>
<clus scale="   43.047">  1  9  2 -1</clus>
<clus scale="   60.035">  1 10  2 -1</clus>
<clus scale="   80.282">  5  6 -1 -1</clus>
<clus scale="   95.728">  7  8 -1 -1</clus>
<clus scale="  130.199">  1  5  2 -1</clus>
<clus scale="   43.047">  1  5  2 -1</clus>
</clustering>
</event>
<event>
10    4  0.7204077E-005  0.3270421E+03  0.7546771E-02  0.1072727E+00
          2   -1    0    0  502    0 -0.00000000000E+00  0.00000000000E+00  0.23596463456E+04  0.23596463456E+04  0.00000000000E+00 0. -1.
         21   -1    0    0  503  502  0.00000000000E+00 -0.00000000000E+00 -0.15591015459E+03  0.15591015459E+03  0.00000000000E+00 0. -1.
         23    2    1    2    0    0  0.22745046681E+03  0.18335409248E+03  0.10804440377E+04  0.11228328812E+04  0.89676766343E+02 0.  0.
         24    2    1    2    0    0 -0.24298450033E+03 -0.38650886587E+03  0.34574241103E+03  0.57829129798E+03  0.80327079725E+02 0.  0.
        -11    1    4    4    0    0 -0.18791740576E+02 -0.38026821956E+02  0.68050803234E+01  0.42959024898E+02  0.00000000000E+00 0.  1.
         12    1    4    4    0    0 -0.22419275976E+03 -0.34848204392E+03  0.33893733070E+03  0.53533227308E+03  0.00000000000E+00 0. -1.
        -11    1    3    3    0    0  0.17566804270E+03  0.18128242841E+03  0.85354662560E+03  0.89009236720E+03  0.00000000000E+00 0. -1.
         11    1    3    3    0    0  0.51782424111E+02  0.20716640709E+01  0.22689741215E+03  0.23274051405E+03  0.00000000000E+00 0.  1.
         21    1    1    2  503  501  0.32854337848E+02  0.40100070846E+02  0.64390606085E+02  0.82665430195E+02  0.00000000000E+00 0. -1.
          1    1    1    2  501    0 -0.17320304324E+02  0.16305470255E+03  0.71315913617E+03  0.73176689080E+03  0.00000000000E+00 0. -1.
<scales pt_clust_5="13000.00000" pt_clust_6="13000.00000" pt_clust_7="13000.00000" pt_clust_8="13000.00000" pt_clust_9="51.84036" pt_clust_10="166.29630"></scales>
<clustering>
<clus scale="   51.840">  2  9  1 -1</clus>
<clus scale="   80.327">  5  6 -1 -1</clus>
<clus scale="   89.677">  7  8 -1 -1</clus>
<clus scale="  166.296">  2 10  1 -1</clus>
<clus scale="  324.603">  2  5  1 -1</clus>
<clus scale="   51.840">  2  5  1 -1</clus>
</clustering>
</event>
<event>
10    4  0.7204077E-005  0.1748630E+03  0.7546771E-02  0.1188043E+00
         21   -1    0    0  501  502  0.00000000000E+00  0.00000000000E+00  0.69817433279E+03  0.69817433279E+03  0.00000000000E+00 0. -1.
          2   -1    0    0  503    0 -0.00000000000E+00 -0.00000000000E+00 -0.11405736303E+03  0.11405736303E+03  0.00000000000E+00 0. -1.
         23    2    1    2    0    0 -0.51475782085E+02 -0.48767717967E+02  0.22835956990E+03  0.25610052784E+03  0.91713361845E+02 0.  0.
         24    2    1    2    0    0  0.11246790914E+03 -0.91248256145E+02  0.14280223035E+03  0.21807584426E+03  0.78672244299E+02 0.  0.
        -11    1    4    4    0    0  0.33336791370E+02 -0.77019381706E+02  0.64505511264E+02  0.10585030846E+03  0.00000000000E+00 0.  1.
         12    1    4    4    0    0  0.79131117774E+02 -0.14228874439E+02  0.78296719082E+02  0.11222553581E+03  0.00000000000E+00 0. -1.
        -11    1    3    3    0    0 -0.32979696504E+02 -0.25361091029E+01  0.13802849552E+02  0.35841468812E+02  0.00000000000E+00 0.  1.
         11    1    3    3    0    0 -0.18496085581E+02 -0.46231608864E+02  0.21455672034E+03  0.22025905903E+03  0.00000000000E+00 0. -1.
         21    1    1    2  503  502 -0.70052816984E+01 -0.35142375954E+02  0.13360469271E+03  0.13832669473E+03  0.00000000000E+00 0. -1.
          1    1    1    2  501    0 -0.53986845361E+02  0.17515835007E+03  0.79350476802E+02  0.19972862899E+03  0.00000000000E+00 0. -1.
<scales pt_clust_5="13000.00000" pt_clust_6="13000.00000" pt_clust_7="13000.00000" pt_clust_8="13000.00000" pt_clust_9="35.83379" pt_clust_10="156.16587"></scales>
<clustering>
<clus scale="   35.834">  1  9  2 -1</clus>
<clus scale="   78.672">  5  6 -1 -1</clus>
<clus scale="   91.713">  7  8 -1 -1</clus>
<clus scale="  124.360">  2  7  1 -1</clus>
<clus scale="  156.166">  1 10  2 -1</clus>
<clus scale="   35.834">  1  5  2 -1</clus>
</clustering>
</event>
<event>
10    4  0.7204077E-005  0.2581041E+03  0.7546771E-02  0.1140663E+00
          2   -1    0    0  502    0 -0.00000000000E+00  0.00000000000E+00  0.37801703946E+04  0.37801703946E+04  0.00000000000E+00 0. -1.
         21   -1    0    0  503  502  0.00000000000E+00 -0.00000000000E+00 -0.20157123384E+03  0.20157123384E+03  0.00000000000E+00 0. -1.
         24    2    1    2    0    0 -0.32884227632E+02  0.74951441652E+02  0.88791641108E+03  0.89548427463E+03  0.82446600905E+02 0.  0.
         23    2    1    2    0    0  0.21086604981E+03  0.57899991768E+02  0.98121394897E+03  0.10094484957E+04  0.91589038097E+02 0.  0.
        -11    1    3    3    0    0 -0.30159239279E+02 -0.82624964889E+01  0.18094856923E+03  0.18363069805E+03  0.00000000000E+00 0.  1.
         12    1    3    3    0    0 -0.27249883529E+01  0.83213938141E+02  0.70696784186E+03  0.71185357658E+03  0.00000000000E+00 0. -1.
        -13    1    4    4    0    0  0.13333398362E+03 -0.10392978463E+02  0.54740707666E+03  0.56350729610E+03  0.00000000000E+00 0.  1.
         13    1    4    4    0    0  0.77532066190E+02  0.68292970230E+02  0.43380687231E+03  0.44594119964E+03  0.00000000000E+00 0. -1.
         21    1    1    2  503  501  0.42399445351E+02  0.10412244228E+02 -0.17180247038E+03  0.17726312821E+03  0.00000000000E+00 0. -1.
          1    1    1    2  501    0 -0.22038126753E+03 -0.14326367765E+03  0.18812712711E+04  0.18995457299E+04  0.00000000000E+00 0. -1.
<scales pt_clust_5="13000.00000" pt_clust_6="13000.00000" pt_clust_7="13000.00000" pt_clust_8="13000.00000" pt_clust_9="43.65922" pt_clust_10="241.30733"></scales>
<clustering>
<clus scale="   43.659">  2  9  1 -1</clus>
<clus scale="   82.447">  5  6 -1 -1</clus>
<clus scale="   91.589">  7  8 -1 -1</clus>
<clus scale="  115.594">  1  5  2 -1</clus>
<clus scale="  241.307">  2 10  1 -1</clus>
<clus scale="   43.659">  2  5  1 -1</clus>
</clustering>
</event>
<event>
10    4  0.7204077E-005  0.1141569E+03  0.7546771E-02  0.1258396E+00
         21   -1    0    0  503  502  0.00000000000E+00  0.00000000000E+00  0.12563371781E+03  0.12563371781E+03  0.00000000000E+00 0.  1.
          2   -1    0    0  502    0 -0.00000000000E+00 -0.00000000000E+00 -0.79463748296E+03  0.79463748296E+03  0.00000000000E+00 0. -1.
         24    2    1    2    0    0 -0.16574695282E+02  0.43400556718E+02 -0.35263012557E+03  0.36452742664E+03  0.79836773902E+02 0.  0.
         23    2    1    2    0    0  0.99151973863E+02 -0.98647157854E+02 -0.29524659782E+03  0.33998278216E+03  0.94102938162E+02 0.  0.
        -11    1    3    3    0    0  0.46812237857E+01  0.52822325379E+02 -0.32055552972E+03  0.32491223361E+03  0.00000000000E+00 0.  1.
         12    1    3    3    0    0 -0.21255919068E+02 -0.94217686604E+01 -0.32074595852E+02  0.39615193035E+02  0.00000000000E+00 0. -1.
        -11    1    4    4    0    0  0.76398389140E+02 -0.65311572628E+02 -0.27886304870E+03  0.29642354041E+03  0.00000000000E+00 0. -1.
         11    1    4    4    0    0  0.22753584723E+02 -0.33335585225E+02 -0.16383549121E+02  0.43559241750E+02  0.00000000000E+00 0.  1.
         21    1    1    2  503  501 -0.24199122406E+02  0.29354988357E+02  0.84307547643E+02  0.92493650897E+02  0.00000000000E+00 0.  1.
          1    1    1    2  501    0 -0.58378156176E+02  0.25891612779E+02 -0.10543458941E+03  0.12326734107E+03  0.00000000000E+00 0. -1.
<scales pt_clust_5="13000.00000" pt_clust_6="13000.00000" pt_clust_7="13000.00000" pt_clust_8="13000.00000" pt_clust_9="38.04357" pt_clust_10="72.12503"></scales>
<clustering>
<clus scale="   38.044">  1  9  2 -1</clus>
<clus scale="   72.125">  1 10  2 -1</clus>
<clus scale="   79.837">  5  6 -1 -1</clus>
<clus scale="   94.103">  7  8 -1 -1</clus>
<clus scale="  102.715">  2  5  1 -1</clus>
<clus scale="   38.044">  1  5  2 -1</clus>
</clustering>
</event>
<event>
10    4  0.7204077E-005  0.1046140E+03  0.7546771E-02  0.1275065E+00
         21   -1    0    0  501  502  0.00000000000E+00  0.00000000000E+00  0.97595544731E+03  0.97595544731E+03  0.00000000000E+00 0. -1.
          4   -1    0    0  503    0 -0.00000000000E+00 -0.00000000000E+00 -0.53700658065E+02  0.53700658065E+02  0.00000000000E+00 0. -1.
         23    2    1    2    0    0  0.90145438809E+01 -0.29286013908E+02  0.16092481018E+02  0.96960279440E+02  0.90572596473E+02 0.  0.
         24    2    1    2    0    0 -0.56814743414E+02  0.40896932825E+02  0.51377401271E+03  0.52791592070E+03  0.99151444820E+02 0.  0.
        -11    1    4    4    0    0  0.28249852331E+02  0.16959931186E+02  0.13257102436E+03  0.13660442863E+03  0.00000000000E+00 0.  1.
         12    1    4    4    0    0 -0.85064595745E+02  0.23937001639E+02  0.38120298836E+03  0.39131149207E+03  0.00000000000E+00 0. -1.
        -13    1    3    3    0    0  0.20849874798E+02  0.50313221926E+01  0.45461226668E+02  0.50266834118E+02  0.00000000000E+00 0.  1.
         13    1    3    3    0    0 -0.11835330918E+02 -0.34317336100E+02 -0.29368745650E+02  0.46693445322E+02  0.00000000000E+00 0. -1.
         21    1    1    2  503  502 -0.28910271747E+01  0.32215406259E+02  0.13276416990E+03  0.13664741215E+03  0.00000000000E+00 0. -1.
          3    1    1    2  501    0  0.50691226707E+02 -0.43826325176E+02  0.25962412562E+03  0.26813249308E+03  0.00000000000E+00 0. -1.
<scales pt_clust_5="13000.00000" pt_clust_6="13000.00000" pt_clust_7="13000.00000" pt_clust_8="13000.00000" pt_clust_9="32.34487" pt_clust_10="60.12989"></scales>
<clustering>
<clus scale="   32.345">  1  9  2 -1</clus>
<clus scale="   60.130">  1 10  2 -1</clus>
<clus scale="   90.573">  7  8 -1 -1</clus>
<clus scale="   96.522">  2  7  1 -1</clus>
<clus scale="   99.151">  5  6 -1 -1</clus>
<clus scale="   32.345">  1  5  2 -1</clus>
</clustering>
</event>
<event>
10    4  0.7204077E-005  0.1030352E+03  0.7546771E-02  0.1279404E+00
         21   -1    0    0  501  502  0.00000000000E+00  0.00000000000E+00  0.69552872429E+02  0.69552872429E+02  0.00000000000E+00 0.  1.
          2   -1    0    0  503    0 -0.00000000000E+00 -0.00000000000E+00 -0.54363895597E+03  0.54363895597E+03  0.00000000000E+00 0. -1.
         24    2    1    2    0    0 -0.41195393289E+02  0.34526134321E+02 -0.32327046432E+03  0.33803287705E+03  0.82905479248E+02 0.  0.
         23    2    1    2    0    0 -0.30550924529E+02 -0.21872941771E+02 -0.52853546206E+02  0.11422964650E+03  0.94037919067E+02 0.  0.
        -11    1    3    3    0    0  0.24260344488E+02  0.20153626838E+02 -0.11497434083E+03  0.11922177670E+03  0.00000000000E+00 0.  1.
         12    1    3    3    0    0 -0.65455737777E+02  0.14372507483E+02 -0.20829612348E+03  0.21881110035E+03  0.00000000000E+00 0. -1.
        -13    1    4    4    0    0 -0.39369199787E+02  0.20283023379E+02 -0.55589890895E+02  0.71074403965E+02  0.00000000000E+00 0. -1.
         13    1    4    4    0    0  0.88182752576E+01 -0.42155965150E+02  0.27363446894E+01  0.43155242538E+02  0.00000000000E+00 0.  1.
         21    1    1    2  503  502  0.89765593947E+02 -0.32746134952E+02 -0.55165392735E+02  0.11033309461E+03  0.00000000000E+00 0.  1.
          1    1    1    2  501    0 -0.18019276129E+02  0.20092942402E+02 -0.42796680280E+02  0.50596210230E+02  0.00000000000E+00 0. -1.
<scales pt_clust_5="13000.00000" pt_clust_6="13000.00000" pt_clust_7="13000.00000" pt_clust_8="13000.00000" pt_clust_9="85.71284" pt_clust_10="26.98928"></scales>
<clustering>
<clus scale="   26.989">  1 10  2 -1</clus>
<clus scale="   82.905">  5  6 -1 -1</clus>
<clus scale="   85.713">  1  9  2 -1</clus>
<clus scale="   92.986">  2  5  1 -1</clus>
<clus scale="   94.038">  7  8 -1 -1</clus>
<clus scale="   26.989">  1  5  2 -1</clus>
</clustering>
</event>
<event>
10    4  0.7204077E-005  0.2216579E+03  0.7546771E-02  0.1133468E+00
         -1   -1    0    0    0  501 -0.00000000000E+00  0.00000000000E+00  0.47586143151E+03  0.47586143151E+03  0.00000000000E+00 0.  1.
         21   -1    0    0  503  502  0.00000000000E+00 -0.00000000000E+00 -0.20143003061E+03  0.20143003061E+03  0.00000000000E+00 0. -1.
         23    2    1    2    0    0 -0.21893767888E+02  0.19823030293E+03  0.12243608018E+03  0.24406573568E+03  0.69302954724E+02 0.  0.
         24    2    1    2    0    0 -0.60222335895E+02 -0.22455980954E+03  0.47873216449E+01  0.24657180210E+03  0.81981079157E+02 0.  0.
        -13    1    4    4    0    0 -0.59051671527E+01 -0.22693170918E+02  0.27677984632E+02  0.36275636986E+02  0.00000000000E+00 0.  1.
         14    1    4    4    0    0 -0.54317168743E+02 -0.20186663862E+03 -0.22890662988E+02  0.21029616511E+03  0.00000000000E+00 0. -1.
        -11    1    3    3    0    0 -0.46170511041E+02  0.11365284979E+03  0.63240147561E+02  0.13801450148E+03  0.00000000000E+00 0.  1.
         11    1    3    3    0    0  0.24276743153E+02  0.84577453132E+02  0.59195932616E+02  0.10605123420E+03  0.00000000000E+00 0. -1.
         21    1    1    2  503  501  0.63338187401E+02 -0.11952056659E+02  0.53741706225E+02  0.83921085727E+02  0.00000000000E+00 0. -1.
         -2    1    1    2    0  502  0.18777916382E+02  0.38281563271E+02  0.93466292859E+02  0.10273283862E+03  0.00000000000E+00 0.  1.
<scales pt_clust_5="13000.00000" pt_clust_6="13000.00000" pt_clust_7="13000.00000" pt_clust_8="13000.00000" pt_clust_9="65.40254" pt_clust_10="42.63907"></scales>
<clustering>
<clus scale="   42.639">  2 10  1 -1</clus>
<clus scale="   65.403">  1  9  2 -1</clus>
<clus scale="   69.303">  7  8 -1 -1</clus>
<clus scale="   81.981">  5  6 -1 -1</clus>
<clus scale="  217.288">  1  7  2 -1</clus>
<clus scale="   42.639">  2  5  1 -1</clus>
</clustering>
</event>
<event>
10    4  0.7204077E-005  0.1016377E+03  0.7546771E-02  0.1282480E+00
         -3   -1    0    0    0  501 -0.00000000000E+00  0.00000000000E+00  0.31387619587E+03  0.31387619587E+03  0.00000000000E+00 0.  1.
         21   -1    0    0  501  502  0.00000000000E+00 -0.00000000000E+00 -0.16889056974E+03  0.16889056974E+03  0.00000000000E+00 0. -1.
         24    2    1    2    0    0 -0.14980155582E+02  0.49358803132E+02  0.13444504029E+03  0.16467755678E+03  0.79890752542E+02 0.  0.
         23    2    1    2    0    0  0.77253736103E+01  0.21537285886E+02 -0.11357899022E+03  0.14760490466E+03  0.91452090085E+02 0.  0.
        -13    1    3    3    0    0  0.25422302879E+02  0.46513913166E+02  0.61072317576E+02  0.80868198791E+02  0.00000000000E+00 0.  1.
         14    1    3    3    0    0 -0.40402458461E+02  0.28448899660E+01  0.73372722713E+02  0.83809357991E+02  0.00000000000E+00 0. -1.
        -13    1    4    4    0    0  0.90347419955E+01 -0.35781799562E+02 -0.42605027177E+02  0.56366231766E+02  0.00000000000E+00 0.  1.
         13    1    4    4    0    0 -0.13093683852E+01  0.57319085448E+02 -0.70973963040E+02  0.91238672896E+02  0.00000000000E+00 0. -1.
         21    1    1    2  503  502  0.20991854996E+02 -0.63199240215E+01 -0.75529307409E+01  0.23187198593E+02  0.00000000000E+00 0. -1.
         -4    1    1    2    0  503 -0.13737073024E+02 -0.64576164997E+02  0.13167250681E+03  0.14729710557E+03  0.00000000000E+00 0.  1.
<scales pt_clust_5="13000.00000" pt_clust_6="13000.00000" pt_clust_7="13000.00000" pt_clust_8="13000.00000" pt_clust_9="21.92258" pt_clust_10="66.12280"></scales>
<clustering>
<clus scale="   21.923">  2  9  1 -1</clus>
<clus scale="   66.123">  2 10  1 -1</clus>
<clus scale="   79.891">  5  6 -1 -1</clus>
<clus scale="   91.374">  1  5  2 -1</clus>
<clus scale="   91.452">  7  8 -1 -1</clus>
<clus scale="   21.923">  2  5  1 -1</clus>
</clustering>
</event>
<event>
10    4  0.7204077E-005  0.9272902E+02  0.7546771E-02  0.1303186E+00
          2   -1    0    0  503    0 -0.00000000000E+00  0.00000000000E+00  0.85822332445E+03  0.85822332445E+03  0.00000000000E+00 0. -1.
         21   -1    0    0  501  502  0.00000000000E+00 -0.00000000000E+00 -0.64744436218E+02  0.64744436218E+02  0.00000000000E+00 0.  1.
         24    2    1    2    0    0  0.49322959730E+00 -0.14695591292E+02  0.67147556578E+03  0.67651179499E+03  0.81071386115E+02 0.  0.
         23    2    1    2    0    0  0.36685088483E+02 -0.29897422759E+02  0.94113934165E+02  0.13992828998E+03  0.92102345937E+02 0.  0.
        -13    1    3    3    0    0 -0.35766316650E+02  0.35286445956E+01  0.19295913064E+03  0.19627762694E+03  0.00000000000E+00 0.  1.
         14    1    3    3    0    0  0.36259546248E+02 -0.18224235887E+02  0.47851643514E+03  0.48023416806E+03  0.00000000000E+00 0. -1.
        -11    1    4    4    0    0  0.65832834095E+02 -0.24481755225E+02  0.47876906833E+02  0.85003038721E+02  0.00000000000E+00 0.  1.
         11    1    4    4    0    0 -0.29147745611E+02 -0.54156675340E+01  0.46237027331E+02  0.54925251256E+02  0.00000000000E+00 0. -1.
         21    1    1    2  503  502  0.11515233791E+02 -0.17555786346E+02 -0.40088393686E+01  0.21374682140E+02  0.00000000000E+00 0.  1.
          1    1    1    2  501    0 -0.48693551872E+02  0.62148800396E+02  0.31898227659E+02  0.85152993561E+02  0.00000000000E+00 0. -1.
<scales pt_clust_5="13000.00000" pt_clust_6="13000.00000" pt_clust_7="13000.00000" pt_clust_8="13000.00000" pt_clust_9="20.99539" pt_clust_10="68.25651"></scales>
<clustering>
<clus scale="   20.995">  2  9  1 -1</clus>
<clus scale="   68.257">  2 10  1 -1</clus>
<clus scale="   81.071">  5  6 -1 -1</clus>
<clus scale="   81.783">  1  5  2 -1</clus>
<clus scale="   92.102">  7  8 -1 -1</clus>
<clus scale="   20.995">  2  5  1 -1</clus>
</clustering>
</event>
<event>
10    4  0.7204077E-005  0.3132879E+03  0.7546771E-02  0.1078781E+00
         21   -1    0    0  503  502  0.00000000000E+00  0.00000000000E+00  0.11847017500E+04  0.11847017500E+04  0.00000000000E+00 0.  1.
         -1   -1    0    0    0  501 -0.00000000000E+00 -0.00000000000E+00 -0.13227712937E+03  0.13227712937E+03  0.00000000000E+00 0.  1.
         24    2    1    2    0    0  0.24284397518E+02 -0.11374936510E+03  0.76646256007E+02  0.16130558000E+03  0.81339975128E+02 0.  0.
         23    2    1    2    0    0 -0.62790585427E+02 -0.11235055638E+03  0.98489865814E+02  0.18559209522E+03  0.90437088657E+02 0.  0.
        -13    1    3    3    0    0  0.10939102184E+02 -0.11806833841E+03  0.45243404751E+02  0.12691241927E+03  0.00000000000E+00 0.  1.
         14    1    3    3    0    0  0.13345295334E+02  0.43189733041E+01  0.31402851256E+02  0.34393160729E+02  0.00000000000E+00 0. -1.
        -13    1    4    4    0    0  0.13593803014E+02 -0.40815758632E+02  0.17155910586E+01  0.43054162235E+02  0.00000000000E+00 0. -1.
         13    1    4    4    0    0 -0.76384388441E+02 -0.71534797745E+02  0.96774274755E+02  0.14253793299E+03  0.00000000000E+00 0.  1.
         21    1    1    2  503  501 -0.90439418224E+02 -0.33582673585E+02  0.40137295627E+03  0.41280423249E+03  0.00000000000E+00 0.  1.
         -2    1    1    2    0  502  0.12894560613E+03  0.25968259507E+03  0.47591554258E+03  0.55727697170E+03  0.00000000000E+00 0.  1.
<scales pt_clust_5="13000.00000" pt_clust_6="13000.00000" pt_clust_7="13000.00000" pt_clust_8="13000.00000" pt_clust_9="96.47323" pt_clust_10="247.15955"></scales>
<clustering>
<clus scale="   81.340">  5  6 -1 -1</clus>
<clus scale="   90.437">  7  8 -1 -1</clus>
<clus scale="   96.473">  1  9  2 -1</clus>
<clus scale="  120.364">  5  7 -1 -1</clus>
<clus scale="  247.160">  1 10  2 -1</clus>
<clus scale="   96.473">  1  5  2 -1</clus>
</clustering>
</event>
<event>
10    4  0.7204077E-005  0.4700081E+03  0.7546771E-02  0.1021918E+00
          2   -1    0    0  502    0 -0.00000000000E+00  0.00000000000E+00  0.31558063776E+04  0.31558063776E+04  0.00000000000E+00 0. -1.
         21   -1    0    0  503  502  0.00000000000E+00 -0.00000000000E+00 -0.76969379131E+02  0.76969379131E+02  0.00000000000E+00 0. -1.
         24    2    1    2    0    0 -0.19059039267E+03  0.16627137657E+03  0.72582043954E+03  0.77268682815E+03  0.79112296809E+02 0.  0.
         23    2    1    2    0    0 -0.77116661819E+02  0.16816157777E+03  0.41376019738E+03  0.46253279715E+03  0.92270210411E+02 0.  0.
        -13    1    3    3    0    0 -0.47589323737E+02  0.27216305591E+01  0.13853869734E+03  0.14650980058E+03  0.00000000000E+00 0.  1.
         14    1    3    3    0    0 -0.14300106893E+03  0.16354974601E+03  0.58728174220E+03  0.62617702757E+03  0.00000000000E+00 0. -1.
        -11    1    4    4    0    0 -0.10342917939E+02  0.57952290724E+02  0.23442066669E+03  0.24169917857E+03  0.00000000000E+00 0. -1.
         11    1    4    4    0    0 -0.66773743880E+02  0.11020928705E+03  0.17933953070E+03  0.22083361858E+03  0.00000000000E+00 0.  1.
         21    1    1    2  503  501  0.26331387996E+02  0.66633073814E+01  0.21049209268E+02  0.34362928715E+02  0.00000000000E+00 0.  1.
          1    1    1    2  501    0  0.24137566649E+03 -0.34109626172E+03  0.19182071523E+04  0.19631932027E+04  0.00000000000E+00 0. -1.
<scales pt_clust_5="13000.00000" pt_clust_6="13000.00000" pt_clust_7="13000.00000" pt_clust_8="13000.00000" pt_clust_9="27.16140" pt_clust_10="421.06628"></scales>
<clustering>
<clus scale="   27.161">  2  9  1 -1</clus>
<clus scale="   79.112">  5  6 -1 -1</clus>
<clus scale="   92.270">  7  8 -1 -1</clus>
<clus scale="  135.932">  5  7 -1 -1</clus>
<clus scale="  421.066">  2 10  1 -1</clus>
<clus scale="   27.161">  2  5  1 -1</clus>
</clustering>
</event>
<event>
10    4  0.7204077E-005  0.1240424E+03  0.7546771E-02  0.1238959E+00
         -1   -1    0    0    0  501 -0.00000000000E+00  0.00000000000E+00  0.21495970940E+03  0.21495970940E+03  0.00000000000E+00 0.  1.
         21   -1    0    0  501  502  0.00000000000E+00 -0.00000000000E+00 -0.47781714189E+03  0.47781714189E+03  0.00000000000E+00 0.  1.
         24    2    1    2    0    0 -0.51096720018E+02 -0.39225758540E+02  0.62191543068E+02  0.12033811825E+03  0.80398630248E+02 0.  0.
         23    2    1    2    0    0  0.10742133557E+03  0.64480256057E+02  0.67058210390E+02  0.16758202783E+03  0.88825028644E+02 0.  0.
        -11    1    3    3    0    0  0.13689442657E+02 -0.22031633861E+02 -0.38712192480E+01  0.26225561373E+02  0.00000000000E+00 0.  1.
         12    1    3    3    0    0 -0.64786162675E+02 -0.17194124679E+02  0.66062762316E+02  0.94112556880E+02  0.00000000000E+00 0. -1.
        -11    1    4    4    0    0  0.77687354173E+02  0.30368177113E+02 -0.38094951867E+01  0.83498882826E+02  0.00000000000E+00 0. -1.
         11    1    4    4    0    0  0.29733981392E+02  0.34112078944E+02  0.70867705577E+02  0.84083145000E+02  0.00000000000E+00 0.  1.
         21    1    1    2  503  502 -0.25246364779E+02  0.23931530889E+02 -0.23018757787E+03  0.23280124164E+03  0.00000000000E+00 0.  1.
         -2    1    1    2    0  503 -0.31078250768E+02 -0.49186028406E+02 -0.16191960808E+03  0.17205546357E+03  0.00000000000E+00 0.  1.
<scales pt_clust_5="13000.00000" pt_clust_6="13000.00000" pt_clust_7="13000.00000" pt_clust_8="13000.00000" pt_clust_9="34.78645" pt_clust_10="58.38758"></scales>
<clustering>
<clus scale="   34.786">  2  9  1 -1</clus>
<clus scale="   58.388">  2 10  1 -1</clus>
<clus scale="   80.399">  5  6 -1 -1</clus>
<clus scale="   88.825">  7  8 -1 -1</clus>
<clus scale="  118.155">  1  5  2 -1</clus>
<clus scale="   34.786">  2  5  1 -1</clus>
</clustering>
</event>
<event>
10    4  0.7204077E-005  0.1054701E+03  0.7546771E-02  0.1274329E+00
         -1   -1    0    0    0  501 -0.00000000000E+00  0.00000000000E+00  0.33133534354E+03  0.33133534354E+03  0.00000000000E+00 0.  1.
         21   -1    0    0  503  502  0.00000000000E+00 -0.00000000000E+00 -0.14760929032E+03  0.14760929032E+03  0.00000000000E+00 0.  1.
         24    2    1    2    0    0 -0.44958249144E+01  0.57054157747E+02  0.20430754464E+03  0.22674721781E+03  0.79983364717E+02 0.  0.
         23    2    1    2    0    0  0.57103522542E+02 -0.10661367369E+02 -0.35048503209E+02  0.11400867387E+03  0.91624795218E+02 0.  0.
        -11    1    3    3    0    0 -0.33729056208E+02  0.55265816649E+02  0.10637993175E+03  0.12453372877E+03  0.00000000000E+00 0.  1.
         12    1    3    3    0    0  0.29233231294E+02  0.17883410987E+01  0.97927612890E+02  0.10221348904E+03  0.00000000000E+00 0. -1.
        -11    1    4    4    0    0  0.75014759124E+02  0.14211229521E+02 -0.33338463948E+02  0.83310421373E+02  0.00000000000E+00 0.  1.
         11    1    4    4    0    0 -0.17911236581E+02 -0.24872596889E+02 -0.17100392607E+01  0.30698252494E+02  0.00000000000E+00 0. -1.
         21    1    1    2  503  501  0.30259717196E+02  0.13925355308E+02 -0.55155493989E+01  0.33763697819E+02  0.00000000000E+00 0.  1.
         -2    1    1    2    0  502 -0.82867414824E+02 -0.60318145687E+02  0.19982561197E+02  0.10442504437E+03  0.00000000000E+00 0.  1.
<scales pt_clust_5="13000.00000" pt_clust_6="13000.00000" pt_clust_7="13000.00000" pt_clust_8="13000.00000" pt_clust_9="33.31015" pt_clust_10="91.74519"></scales>
<clustering>
<clus scale="   33.310">  2  9  1 -1</clus>
<clus scale="   79.983">  5  6 -1 -1</clus>
<clus scale="   91.625">  7  8 -1 -1</clus>
<clus scale="   91.745">  2 10  1 -1</clus>
<clus scale="   95.531">  1  5  2 -1</clus>
<clus scale="   33.310">  2  5  1 -1</clus>
</clustering>
</event>
<event>
10    4  0.7204077E-005  0.2674928E+03  0.7546771E-02  0.1142777E+00
          2   -1    0    0  503    0 -0.00000000000E+00  0.00000000000E+00  0.10228036688E+04  0.10228036688E+04  0.00000000000E+00 0. -1.
         21   -1    0    0  501  502  0.00000000000E+00 -0.00000000000E+00 -0.17708748730E+03  0.17708748730E+03  0.00000000000E+00 0.  1.
         24    2    1    2    0    0  0.38361651082E+02  0.26879383934E+01  0.23554310242E+03  0.25538568507E+03  0.90898040451E+02 0.  0.
         23    2    1    2    0    0  0.22087078314E+03  0.71468555789E+02  0.18926419848E+03  0.31288342516E+03  0.90462387796E+02 0.  0.
        -11    1    3    3    0    0 -0.17730824603E+02  0.30181485203E+02  0.66138976998E+02  0.74830932565E+02  0.00000000000E+00 0.  1.
         12    1    3    3    0    0  0.56092475684E+02 -0.27493546810E+02  0.16940412542E+03  0.18055475251E+03  0.00000000000E+00 0. -1.
        -13    1    4    4    0    0  0.17990094827E+03  0.86943727252E+02  0.12698095583E+03  0.23674400951E+03  0.00000000000E+00 0.  1.
         13    1    4    4    0    0  0.40969834869E+02 -0.15475171463E+02  0.62283242646E+02  0.76139415650E+02  0.00000000000E+00 0. -1.
         21    1    1    2  503  502 -0.35690193042E+02  0.10025312502E+03 -0.19156184446E+02  0.10812695482E+03  0.00000000000E+00 0. -1.
          1    1    1    2  501    0 -0.22354224117E+03 -0.17440961921E+03  0.44006506502E+03  0.52349509101E+03  0.00000000000E+00 0. -1.
<scales pt_clust_5="13000.00000" pt_clust_6="13000.00000" pt_clust_7="13000.00000" pt_clust_8="13000.00000" pt_clust_9="105.84640" pt_clust_10="251.73199"></scales>
<clustering>
<clus scale="   90.462">  7  8 -1 -1</clus>
<clus scale="   90.898">  5  6 -1 -1</clus>
<clus scale="   98.698">  1  5  2 -1</clus>
<clus scale="  105.846">  2  9  1 -1</clus>
<clus scale="  251.732">  2 10  1 -1</clus>
<clus scale="  105.846">  2  5  1 -1</clus>
</clustering>
</event>
<event>
10    4  0.7204077E-005  0.1287377E+03  0.7546771E-02  0.1230296E+00
          2   -1    0    0  502    0 -0.00000000000E+00  0.00000000000E+00  0.10631272710E+04  0.10631272710E+04  0.00000000000E+00 0. -1.
         21   -1    0    0  503  502  0.00000000000E+00 -0.00000000000E+00 -0.47360066627E+02  0.47360066627E+02  0.00000000000E+00 0. -1.
         24    2    1    2    0    0  0.11030119265E+03  0.80598230259E+01  0.44763677511E+03  0.46867868635E+03  0.83962579575E+02 0.  0.
         23    2    1    2    0    0 -0.46084314458E+02 -0.67754440250E+02  0.12981420595E+03  0.17679677693E+03  0.87698027658E+02 0.  0.
        -11    1    3    3    0    0  0.46786010349E+02 -0.30711720645E+02  0.27580650499E+03  0.28142737739E+03  0.00000000000E+00 0.  1.
         12    1    3    3    0    0  0.63515182296E+02  0.38771543671E+02  0.17183027011E+03  0.18725130896E+03  0.00000000000E+00 0. -1.
        -11    1    4    4    0    0 -0.70683001303E+02 -0.49081905713E+02  0.76286435492E+02  0.11499887122E+03  0.00000000000E+00 0. -1.
         11    1    4    4    0    0  0.24598686845E+02 -0.18672534537E+02  0.53527770458E+02  0.61797905715E+02  0.00000000000E+00 0.  1.
         21    1    1    2  503  501 -0.90182692360E+01  0.38441319397E+02  0.23394042221E+02  0.45894939029E+02  0.00000000000E+00 0. -1.
          1    1    1    2  501    0 -0.55198608952E+02  0.21253297827E+02  0.41492218113E+03  0.41911693534E+03  0.00000000000E+00 0. -1.
<scales pt_clust_5="13000.00000" pt_clust_6="13000.00000" pt_clust_7="13000.00000" pt_clust_8="13000.00000" pt_clust_9="39.48499" pt_clust_10="60.46974"></scales>
<clustering>
<clus scale="   39.485">  2  9  1 -1</clus>
<clus scale="   60.470">  2 10  1 -1</clus>
<clus scale="   83.963">  5  6 -1 -1</clus>
<clus scale="   87.698">  7  8 -1 -1</clus>
<clus scale="  126.223">  1  5  2 -1</clus>
<clus scale="   39.485">  2  5  1 -1</clus>
</clustering>
</event>
<event>
10    4  0.7204077E-005  0.9415266E+02  0.7546771E-02  0.1298618E+00
         21   -1    0    0  503  502  0.00000000000E+00  0.00000000000E+00  0.26524792711E+03  0.26524792711E+03  0.00000000000E+00 0. -1.
          2   -1    0    0  502    0 -0.00000000000E+00 -0.00000000000E+00 -0.95776861379E+02  0.95776861379E+02  0.00000000000E+00 0. -1.
         24    2    1    2    0    0 -0.18547219689E+02 -0.36356324455E+02  0.61942975456E+01  0.90273669977E+02  0.80281906323E+02 0.  0.
         23    2    1    2    0    0  0.36321223029E+02 -0.42136936314E+02  0.10987601618E+03  0.15249730888E+03  0.89932961911E+02 0.  0.
        -13    1    3    3    0    0 -0.14982060727E+02  0.24702521042E+02  0.25236124817E+01  0.29000781186E+02  0.00000000000E+00 0.  1.
         14    1    3    3    0    0 -0.35651589620E+01 -0.61058845497E+02  0.36706850640E+01  0.61272888790E+02  0.00000000000E+00 0. -1.
        -11    1    4    4    0    0 -0.12058861049E+02 -0.29933092534E+02  0.49629467907E+00  0.32274641235E+02  0.00000000000E+00 0.  1.
         11    1    4    4    0    0  0.48380084079E+02 -0.12203843780E+02  0.10937972150E+03  0.12022266764E+03  0.00000000000E+00 0. -1.
         21    1    1    2  503  501  0.91452774889E+01  0.19296952423E+02  0.48555662964E+02  0.53043952332E+02  0.00000000000E+00 0. -1.
          1    1    1    2  501    0 -0.26919280829E+02  0.59196308346E+02  0.48450890427E+01  0.65209857307E+02  0.00000000000E+00 0. -1.
<scales pt_clust_5="13000.00000" pt_clust_6="13000.00000" pt_clust_7="13000.00000" pt_clust_8="13000.00000" pt_clust_9="21.35435" pt_clust_10="67.33322"></scales>
<clustering>
<clus scale="   21.354">  1  9  2 -1</clus>
<clus scale="   67.333">  1 10  2 -1</clus>
<clus scale="   80.282">  5  6 -1 -1</clus>
<clus scale="   84.982">  2  5  1 -1</clus>
<clus scale="   89.933">  7  8 -1 -1</clus>
<clus scale="   21.354">  1  5  2 -1</clus>
</clustering>
</event>
<event>
10    4  0.7204077E-005  0.1982404E+03  0.7546771E-02  0.1152193E+00
         21   -1    0    0  501  502  0.00000000000E+00  0.00000000000E+00  0.41563588278E+03  0.41563588278E+03  0.00000000000E+00 0. -1.
          2   -1    0    0  503    0 -0.00000000000E+00 -0.00000000000E+00 -0.77586286689E+03  0.77586286689E+03  0.00000000000E+00 0. -1.
         24    2    1    2    0    0 -0.39781904594E+02 -0.18226743491E+03 -0.68146321933E+03  0.71103878362E+03  0.79874994533E+02 0.  0.
         23    2    1    2    0    0 -0.56818939101E+02  0.10189807351E+03  0.87317355071E+02  0.17134673310E+03  0.90131976683E+02 0.  0.
        -13    1    3    3    0    0 -0.38306962854E+02 -0.82624348968E+02 -0.20583302375E+03  0.22508096346E+03  0.00000000000E+00 0.  1.
         14    1    3    3    0    0 -0.14749417395E+01 -0.99643085938E+02 -0.47563019557E+03  0.48595782016E+03  0.00000000000E+00 0. -1.
        -11    1    4    4    0    0  0.20066344270E+02  0.39599583814E+02  0.93556102055E+01  0.45368630715E+02  0.00000000000E+00 0.  1.
         11    1    4    4    0    0 -0.76885283372E+02  0.62298489700E+02  0.77961744866E+02  0.12597810239E+03  0.00000000000E+00 0. -1.
         21    1    1    2  503  502 -0.42150172985E+02  0.11030241535E+02  0.29973838483E+02  0.52884159296E+02  0.00000000000E+00 0.  1.
          1    1    1    2  501    0  0.13875101668E+03  0.69339119858E+02  0.20394504166E+03  0.25622907366E+03  0.00000000000E+00 0. -1.
<scales pt_clust_5="13000.00000" pt_clust_6="13000.00000" pt_clust_7="13000.00000" pt_clust_8="13000.00000" pt_clust_9="43.56952" pt_clust_10="136.11034"></scales>
<clustering>
<clus scale="   43.570">  1  9  2 -1</clus>
<clus scale="   79.875">  5  6 -1 -1</clus>
<clus scale="   90.132">  7  8 -1 -1</clus>
<clus scale="  136.110">  1 10  2 -1</clus>
<clus scale="  193.792">  2  5  1 -1</clus>
<clus scale="   43.570">  1  5  2 -1</clus>
</clustering>
</event>
<event>
10    4  0.7204077E-005  0.1865783E+03  0.7546771E-02  0.1162979E+00
          2   -1    0    0  503    0 -0.00000000000E+00  0.00000000000E+00  0.17334831688E+03  0.17334831688E+03  0.00000000000E+00 0. -1.
         21   -1    0    0  501  502  0.00000000000E+00 -0.00000000000E+00 -0.51067681122E+03  0.51067681122E+03  0.00000000000E+00 0. -1.
         23    2    1    2    0    0 -0.26652992270E+02 -0.18510144460E+03 -0.46134712436E+02  0.21329973359E+03  0.91626622056E+02 0.  0.
         24    2    1    2    0    0  0.86534721468E+02  0.11821490087E+03 -0.87971531122E+02  0.18819250090E+03  0.78831505763E+02 0.  0.
        -13    1    4    4    0    0  0.70281509161E+02  0.90393594621E+02 -0.10172251291E+03  0.15315992332E+03  0.00000000000E+00 0.  1.
         14    1    4    4    0    0  0.16253212306E+02  0.27821306252E+02  0.13750981792E+02  0.35032577582E+02  0.00000000000E+00 0. -1.
        -11    1    3    3    0    0 -0.18979446319E+02 -0.85749422027E+02 -0.68251375160E+02  0.11122694355E+03  0.00000000000E+00 0. -1.
         11    1    3    3    0    0 -0.76735459504E+01 -0.99352022572E+02  0.22116662725E+02  0.10207279004E+03  0.00000000000E+00 0.  1.
         21    1    1    2  503  502 -0.64808015965E+02 -0.26418117774E+02 -0.16918964283E+03  0.18309323068E+03  0.00000000000E+00 0. -1.
          1    1    1    2  501    0  0.49262867672E+01  0.93304661500E+02 -0.34032607943E+02  0.99439662924E+02  0.00000000000E+00 0. -1.
<scales pt_clust_5="13000.00000" pt_clust_6="13000.00000" pt_clust_7="13000.00000" pt_clust_8="13000.00000" pt_clust_9="69.98568" pt_clust_10="88.39748"></scales>
<clustering>
<clus scale="   69.986">  2  9  1 -1</clus>
<clus scale="   78.832">  5  6 -1 -1</clus>
<clus scale="   88.397">  2 10  1 -1</clus>
<clus scale="   91.627">  7  8 -1 -1</clus>
<clus scale="  180.639">  2  5  1 -1</clus>
<clus scale="   69.986">  2  5  1 -1</clus>
</clustering>
</event>
<event>
10    4  0.7204077E-005  0.2294585E+03  0.7546771E-02  0.1147752E+00
         21   -1    0    0  503  502  0.00000000000E+00  0.00000000000E+00  0.13375661978E+04  0.13375661978E+04  0.00000000000E+00 0. -1.
          4   -1    0    0  502    0 -0.00000000000E+00 -0.00000000000E+00 -0.13197415279E+03  0.13197415279E+03  0.00000000000E+00 0. -1.
         24    2    1    2    0    0 -0.71010486193E+02  0.88579858374E+02  0.39526894628E+02  0.14510424949E+03  0.81264920862E+02 0.  0.
         23    2    1    2    0    0  0.71738936779E+02  0.21251225968E+03  0.74011176416E+03  0.77883838379E+03  0.92281466515E+02 0.  0.
        -11    1    3    3    0    0 -0.36140140231E+02 -0.79083686914E+01  0.92511942645E+01  0.38134454586E+02  0.00000000000E+00 0.  1.
         12    1    3    3    0    0 -0.34870345963E+02  0.96488227065E+02  0.30275700364E+02  0.10696979491E+03  0.00000000000E+00 0. -1.
        -13    1    4    4    0    0  0.55226697289E+02  0.80228525092E+02  0.43673141140E+03  0.44746053461E+03  0.00000000000E+00 0.  1.
         13    1    4    4    0    0  0.16512239490E+02  0.13228373458E+03  0.30338035275E+03  0.33137784918E+03  0.00000000000E+00 0. -1.
         21    1    1    2  503  501 -0.27315245525E+02 -0.38298597191E+02  0.17515760764E+03  0.18136452988E+03  0.00000000000E+00 0.  1.
          3    1    1    2  501    0  0.26586794939E+02 -0.26279352086E+03  0.25079577862E+03  0.36423318746E+03  0.00000000000E+00 0. -1.
<scales pt_clust_5="13000.00000" pt_clust_6="13000.00000" pt_clust_7="13000.00000" pt_clust_8="13000.00000" pt_clust_9="47.04153" pt_clust_10="210.08424"></scales>
<clustering>
<clus scale="   47.042">  1  9  2 -1</clus>
<clus scale="   81.265">  5  6 -1 -1</clus>
<clus scale="   92.281">  7  8 -1 -1</clus>
<clus scale="  138.836">  2  5  1 -1</clus>
<clus scale="  210.084">  1 10  2 -1</clus>
<clus scale="   47.042">  1  5  2 -1</clus>
</clustering>
</event>
<event>
10    4  0.7204077E-005  0.1224563E+03  0.7546771E-02  0.1242980E+00
          2   -1    0    0  502    0 -0.00000000000E+00  0.00000000000E+00  0.22834437620E+04  0.22834437620E+04  0.00000000000E+00 0. -1.
         21   -1    0    0  503  502  0.00000000000E+00 -0.00000000000E+00 -0.35248160100E+02  0.35248160100E+02  0.00000000000E+00 0. -1.
         24    2    1    2    0    0  0.78492041221E+02 -0.93799002344E+01  0.16516112749E+04  0.16554089073E+04  0.79434652225E+02 0.  0.
         23    2    1    2    0    0 -0.80140882328E+02  0.89765439621E+02  0.33396546803E+03  0.36675171567E+03  0.92160142890E+02 0.  0.
        -11    1    3    3    0    0  0.23884182461E+02 -0.70143141639E+01  0.10805822376E+03  0.11088838756E+03  0.00000000000E+00 0.  1.
         12    1    3    3    0    0  0.54607858759E+02 -0.23655860705E+01  0.15435530511E+04  0.15445205197E+04  0.00000000000E+00 0. -1.
        -13    1    4    4    0    0 -0.29222043577E+02 -0.97813416413E+01  0.13546367523E+03  0.13892447510E+03  0.00000000000E+00 0.  1.
         13    1    4    4    0    0 -0.50918838752E+02  0.99546781262E+02  0.19850179280E+03  0.22782724057E+03  0.00000000000E+00 0. -1.
         21    1    1    2  503  501  0.44350552328E+01 -0.26950588361E+02 -0.12014875105E+01  0.27339486099E+02  0.00000000000E+00 0. -1.
          1    1    1    2  501    0 -0.27862141252E+01 -0.53434951025E+02  0.26382034653E+03  0.26919181307E+03  0.00000000000E+00 0. -1.
<scales pt_clust_5="13000.00000" pt_clust_6="13000.00000" pt_clust_7="13000.00000" pt_clust_8="13000.00000" pt_clust_9="27.31307" pt_clust_10="56.92865"></scales>
<clustering>
<clus scale="   27.313">  2  9  1 -1</clus>
<clus scale="   56.929">  2 10  1 -1</clus>
<clus scale="   79.435">  5  6 -1 -1</clus>
<clus scale="   92.160">  7  8 -1 -1</clus>
<clus scale="  113.190">  1  5  2 -1</clus>
<clus scale="   27.313">  2  5  1 -1</clus>
</clustering>
</event>
<event>
10    4  0.7204077E-005  0.1751931E+03  0.7546771E-02  0.1202219E+00
          4   -1    0    0  503    0 -0.00000000000E+00  0.00000000000E+00  0.48109333969E+03  0.48109333969E+03  0.00000000000E+00 0. -1.
         21   -1    0    0  501  502  0.00000000000E+00 -0.00000000000E+00 -0.37715909686E+03  0.37715909686E+03  0.00000000000E+00 0.  1.
         24    2    1    2    0    0  0.40367185607E+02 -0.13590706733E+02 -0.15399098624E+03  0.17869326736E+03  0.80024014995E+02 0.  0.
         23    2    1    2    0    0 -0.15152359183E+03  0.25014241080E+02  0.28452721602E+03  0.33473205058E+03  0.86629659447E+02 0.  0.
        -11    1    3    3    0    0  0.26805499923E+02 -0.33951476395E+02 -0.14702552663E+03  0.15325711421E+03  0.00000000000E+00 0.  1.
         12    1    3    3    0    0  0.13561685684E+02  0.20360769662E+02 -0.69654596107E+01  0.25436153157E+02  0.00000000000E+00 0. -1.
        -11    1    4    4    0    0 -0.13613870232E+03  0.39698788806E+02  0.27866280466E+03  0.31267027170E+03  0.00000000000E+00 0. -1.
         11    1    4    4    0    0 -0.15384889509E+02 -0.14684547726E+02  0.58644113581E+01  0.22061778888E+02  0.00000000000E+00 0.  1.
         21    1    1    2  503  502  0.16317700750E+03  0.11384702179E+03 -0.54605730739E+02  0.20632417691E+03  0.00000000000E+00 0.  1.
          3    1    1    2  501    0 -0.52020601275E+02 -0.12527055614E+03  0.28003743791E+02  0.13850294169E+03  0.00000000000E+00 0. -1.
<scales pt_clust_5="13000.00000" pt_clust_6="13000.00000" pt_clust_7="13000.00000" pt_clust_8="13000.00000" pt_clust_9="152.27577" pt_clust_10="135.33262"></scales>
<clustering>
<clus scale="   80.024">  5  6 -1 -1</clus>
<clus scale="   86.630">  7  8 -1 -1</clus>
<clus scale="   90.654">  1  5  2 -1</clus>
<clus scale="  135.333">  2 10  1 -1</clus>
<clus scale="  152.276">  2  9  1 -1</clus>
<clus scale="  135.333">  2  5  1 -1</clus>
</clustering>
</event>
<event>
10    4  0.7204077E-005  0.1034288E+03  0.7546771E-02  0.1277115E+00
         21   -1    0    0  501  502  0.00000000000E+00  0.00000000000E+00  0.41569528587E+03  0.41569528587E+03  0.00000000000E+00 0. -1.
          2   -1    0    0  503    0 -0.00000000000E+00 -0.00000000000E+00 -0.12736770784E+03  0.12736770784E+03  0.00000000000E+00 0. -1.
         24    2    1    2    0    0  0.52835286760E+02  0.43056080703E+01 -0.51607768736E+02  0.10963208708E+03  0.80905666892E+02 0.  0.
         23    2    1    2    0    0 -0.35795359088E+02 -0.29124403317E+02  0.29008374632E+03  0.30708136720E+03  0.89559184915E+02 0.  0.
        -11    1    3    3    0    0 -0.14440726183E+02 -0.17653653950E+02 -0.25472708148E+02  0.34191299052E+02  0.00000000000E+00 0.  1.
         12    1    3    3    0    0  0.67276012943E+02  0.21959262020E+02 -0.26135060587E+02  0.75440788026E+02  0.00000000000E+00 0. -1.
        -11    1    4    4    0    0 -0.29498115490E+01  0.26171774432E+02  0.15789739619E+03  0.16007888958E+03  0.00000000000E+00 0.  1.
         11    1    4    4    0    0 -0.32845547539E+02 -0.55296177749E+02  0.13218635014E+03  0.14700247763E+03  0.00000000000E+00 0. -1.
         21    1    1    2  503  502  0.53020037614E+01 -0.29867382155E+02  0.59220208132E+02  0.66537243795E+02  0.00000000000E+00 0.  1.
          1    1    1    2  501    0 -0.22341931434E+02  0.54686177401E+02 -0.93686076812E+01  0.59812295633E+02  0.00000000000E+00 0. -1.
<scales pt_clust_5="13000.00000" pt_clust_6="13000.00000" pt_clust_7="13000.00000" pt_clust_8="13000.00000" pt_clust_9="30.33433" pt_clust_10="56.95599"></scales>
<clustering>
<clus scale="   30.334">  1  9  2 -1</clus>
<clus scale="   56.956">  1 10  2 -1</clus>
<clus scale="   80.906">  5  6 -1 -1</clus>
<clus scale="   89.559">  7  8 -1 -1</clus>
<clus scale="   96.033">  2  5  1 -1</clus>
<clus scale="   30.334">  1  5  2 -1</clus>
</clustering>
</event>
<event>
10    4  0.7204077E-005  0.1009532E+03  0.7546771E-02  0.1282552E+00
         21   -1    0    0  503  502  0.00000000000E+00  0.00000000000E+00  0.64916227797E+02  0.64916227797E+02  0.00000000000E+00 0. -1.
          2   -1    0    0  502    0 -0.00000000000E+00 -0.00000000000E+00 -0.38901138204E+03  0.38901138204E+03  0.00000000000E+00 0. -1.
         24    2    1    2    0    0  0.62929929418E+02  0.28584035884E+02 -0.13921736667E+03  0.17551355639E+03  0.81524905220E+02 0.  0.
         23    2    1    2    0    0 -0.77125647046E+01  0.12443940116E+02 -0.34080723214E+02  0.97686202879E+02  0.90370145724E+02 0.  0.
        -13    1    3    3    0    0  0.24096049004E+02 -0.25171769047E+02 -0.23143005743E+02  0.41831044087E+02  0.00000000000E+00 0.  1.
         14    1    3    3    0    0  0.38833880414E+02  0.53755804931E+02 -0.11607436093E+03  0.13368251230E+03  0.00000000000E+00 0. -1.
        -13    1    4    4    0    0  0.25543380309E+02  0.43572501395E+01 -0.52698783253E+02  0.58724881121E+02  0.00000000000E+00 0.  1.
         13    1    4    4    0    0 -0.33255945013E+02  0.80866899768E+01  0.18618060038E+02  0.38961321758E+02  0.00000000000E+00 0. -1.
         21    1    1    2  503  501 -0.85252679527E+01 -0.23869166202E+02 -0.39097315507E+01  0.25645726538E+02  0.00000000000E+00 0. -1.
          1    1    1    2  501    0 -0.46692096760E+02 -0.17158809798E+02 -0.14688733281E+03  0.15508212403E+03  0.00000000000E+00 0. -1.
<scales pt_clust_5="13000.00000" pt_clust_6="13000.00000" pt_clust_7="13000.00000" pt_clust_8="13000.00000" pt_clust_9="25.34595" pt_clust_10="50.99729"></scales>
<clustering>
<clus scale="   25.346">  1  9  2 -1</clus>
<clus scale="   50.997">  1 10  2 -1</clus>
<clus scale="   81.525">  5  6 -1 -1</clus>
<clus scale="   90.370">  7  8 -1 -1</clus>
<clus scale="   93.119">  2  5  1 -1</clus>
<clus scale="   25.346">  1  5  2 -1</clus>
</clustering>
</event>
<event>
10    4  0.7204077E-005  0.1088060E+03  0.7546771E-02  0.1269669E+00
          2   -1    0    0  503    0 -0.00000000000E+00  0.00000000000E+00  0.40074751911E+03  0.40074751911E+03  0.00000000000E+00 0. -1.
         21   -1    0    0  501  502  0.00000000000E+00 -0.00000000000E+00 -0.89922618880E+02  0.89922618880E+02  0.00000000000E+00 0.  1.
         24    2    1    2    0    0  0.23072698437E+02 -0.20484458886E+02  0.13937104990E+03  0.16370717464E+03  0.80148530931E+02 0.  0.
         23    2    1    2    0    0 -0.73761952520E+02  0.84799352205E+02  0.11569827128E+03  0.18766868563E+03  0.95925438822E+02 0.  0.
        -11    1    3    3    0    0  0.33205947313E+02 -0.31030948108E+02  0.32581095724E+02  0.55920322567E+02  0.00000000000E+00 0.  1.
         12    1    3    3    0    0 -0.10133248876E+02  0.10546489222E+02  0.10678995417E+03  0.10778685207E+03  0.00000000000E+00 0. -1.
        -13    1    4    4    0    0 -0.64089916837E+02  0.10320083999E+03  0.77259690288E+02  0.14396871382E+03  0.00000000000E+00 0. -1.
         13    1    4    4    0    0 -0.96720356832E+01 -0.18401487788E+02  0.38438580994E+02  0.43699971807E+02  0.00000000000E+00 0.  1.
         21    1    1    2  503  502  0.31726093304E+02 -0.11708927469E+02 -0.24299635214E+02  0.41642721457E+02  0.00000000000E+00 0.  1.
          1    1    1    2  501    0  0.18963160779E+02 -0.52605965851E+02  0.80055214262E+02  0.97651556261E+02  0.00000000000E+00 0. -1.
<scales pt_clust_5="13000.00000" pt_clust_6="13000.00000" pt_clust_7="13000.00000" pt_clust_8="13000.00000" pt_clust_9="33.81781" pt_clust_10="59.41789"></scales>
<clustering>
<clus scale="   33.818">  2  9  1 -1</clus>
<clus scale="   59.418">  2 10  1 -1</clus>
<clus scale="   80.149">  5  6 -1 -1</clus>
<clus scale="   95.188">  1  5  2 -1</clus>
<clus scale="   95.925">  7  8 -1 -1</clus>
<clus scale="   33.818">  2  5  1 -1</clus>
</clustering>
</event>
<event>
10    4  0.7204077E-005  0.1411497E+03  0.7546771E-02  0.1223022E+00
         21   -1    0    0  501  502  0.00000000000E+00  0.00000000000E+00  0.56339592877E+02  0.56339592877E+02  0.00000000000E+00 0. -1.
          2   -1    0    0  503    0 -0.00000000000E+00 -0.00000000000E+00 -0.12905296704E+04  0.12905296704E+04  0.00000000000E+00 0. -1.
         23    2    1    2    0    0  0.43708805996E+02 -0.29984420590E+02 -0.12096825226E+03  0.16182914537E+03  0.93519137262E+02 0.  0.
         24    2    1    2    0    0  0.22295421336E+02  0.98385436801E+02 -0.65848707569E+03  0.67091232392E+03  0.79632515706E+02 0.  0.
        -13    1    4    4    0    0 -0.25929435299E+02  0.10471862878E+02 -0.16294134606E+03  0.16532355483E+03  0.00000000000E+00 0.  1.
         14    1    4    4    0    0  0.48224856636E+02  0.87913573923E+02 -0.49554572963E+03  0.50558876909E+03  0.00000000000E+00 0. -1.
        -13    1    3    3    0    0 -0.87802473276E+01 -0.25713602391E+02 -0.10247158826E+03  0.10601277513E+03  0.00000000000E+00 0.  1.
         13    1    3    3    0    0  0.52489053324E+02 -0.42708181995E+01 -0.18496664008E+02  0.55816370237E+02  0.00000000000E+00 0. -1.
         21    1    1    2  503  502  0.28392282721E+02  0.33129931039E+02 -0.54861619372E+01  0.43975129580E+02  0.00000000000E+00 0. -1.
          1    1    1    2  501    0 -0.94396510054E+02 -0.10153094725E+03 -0.44924858768E+03  0.47015266445E+03  0.00000000000E+00 0. -1.
<scales pt_clust_5="13000.00000" pt_clust_6="13000.00000" pt_clust_7="13000.00000" pt_clust_8="13000.00000" pt_clust_9="43.63157" pt_clust_10="116.54138"></scales>
<clustering>
<clus scale="   43.632">  1  9  2 -1</clus>
<clus scale="   79.633">  5  6 -1 -1</clus>
<clus scale="   93.519">  7  8 -1 -1</clus>
<clus scale="  111.380">  2  7  1 -1</clus>
<clus scale="  116.541">  1 10  2 -1</clus>
<clus scale="   43.632">  1  5  2 -1</clus>
</clustering>
</event>
<event>
10    4  0.7204077E-005  0.1437242E+03  0.7546771E-02  0.1228339E+00
         21   -1    0    0  501  502  0.00000000000E+00  0.00000000000E+00  0.83696376744E+02  0.83696376744E+02  0.00000000000E+00 0.  1.
          2   -1    0    0  503    0 -0.00000000000E+00 -0.00000000000E+00 -0.12473022540E+04  0.12473022540E+04  0.00000000000E+00 0. -1.
         23    2    1    2    0    0  0.91662135340E+01 -0.89016819407E+00 -0.20746757904E+03  0.22756850874E+03  0.93058142837E+02 0.  0.
         24    2    1    2    0    0 -0.43606663860E+02 -0.13297915573E+03 -0.53718633631E+03  0.56091524678E+03  0.80447232182E+02 0.  0.
        -11    1    4    4    0    0 -0.55409003614E+02 -0.72524049480E+02 -0.40391073706E+03  0.41409392527E+03  0.00000000000E+00 0.  1.
         12    1    4    4    0    0  0.11802339754E+02 -0.60455106252E+02 -0.13327559925E+03  0.14682132152E+03  0.00000000000E+00 0. -1.
        -11    1    3    3    0    0 -0.20570492288E+01  0.45616128163E+02 -0.99750764427E+02  0.10970541283E+03  0.00000000000E+00 0. -1.
         11    1    3    3    0    0  0.11223262763E+02 -0.46506296357E+02 -0.10771681461E+03  0.11786309591E+03  0.00000000000E+00 0.  1.
         21    1    1    2  503  502  0.76441044690E+01  0.32591788683E+02  0.51012240132E+02  0.61015618214E+02  0.00000000000E+00 0.  1.
          1    1    1    2  501    0  0.26796345857E+02  0.10127753524E+03 -0.46996420202E+03  0.48149925698E+03  0.00000000000E+00 0. -1.
<scales pt_clust_5="13000.00000" pt_clust_6="13000.00000" pt_clust_7="13000.00000" pt_clust_8="13000.00000" pt_clust_9="33.47622" pt_clust_10="119.10043"></scales>
<clustering>
<clus scale="   33.476">  1  9  2 -1</clus>
<clus scale="   80.447">  5  6 -1 -1</clus>
<clus scale="   93.058">  7  8 -1 -1</clus>
<clus scale="   94.457">  2  7  1 -1</clus>
<clus scale="  119.100">  1 10  2 -1</clus>
<clus scale="   33.476">  1  5  2 -1</clus>
</clustering>
</event>
<event>
10    4  0.7204077E-005  0.1426709E+03  0.7546771E-02  0.1211977E+00
         21   -1    0    0  501  502  0.00000000000E+00  0.00000000000E+00  0.72809550879E+02  0.72809550879E+02  0.00000000000E+00 0.  1.
         -3   -1    0    0    0  501 -0.00000000000E+00 -0.00000000000E+00 -0.14740777588E+04  0.14740777588E+04  0.00000000000E+00 0.  1.
         24    2    1    2    0    0  0.36973759552E+02  0.85088012379E+02 -0.36705787807E+03  0.38679363456E+03  0.79188390146E+02 0.  0.
         23    2    1    2    0    0 -0.21017331276E+03 -0.57338428286E+02 -0.40679147851E+03  0.47013942495E+03  0.89951404389E+02 0.  0.
        -11    1    3    3    0    0  0.28525148946E+02  0.99141577423E+02 -0.33840403297E+03  0.35377962919E+03  0.00000000000E+00 0.  1.
         12    1    3    3    0    0  0.84486106062E+01 -0.14053565044E+02 -0.28653845105E+02  0.33014005376E+02  0.00000000000E+00 0. -1.
        -13    1    4    4    0    0 -0.17145032134E+03 -0.64780507183E+01 -0.30478063657E+03  0.34975479161E+03  0.00000000000E+00 0.  1.
         13    1    4    4    0    0 -0.38722991420E+02 -0.50860377568E+02 -0.10201084194E+03  0.12038463334E+03  0.00000000000E+00 0. -1.
         21    1    1    2  503  502  0.68000032968E+02 -0.42885037416E+02 -0.34328470878E+02  0.87416101667E+02  0.00000000000E+00 0.  1.
         -4    1    1    2    0  503  0.10519952024E+03  0.15135453323E+02 -0.59309038050E+03  0.60253814854E+03  0.00000000000E+00 0.  1.
<scales pt_clust_5="13000.00000" pt_clust_6="13000.00000" pt_clust_7="13000.00000" pt_clust_8="13000.00000" pt_clust_9="80.39360" pt_clust_10="112.65732"></scales>
<clustering>
<clus scale="   79.188">  5  6 -1 -1</clus>
<clus scale="   80.394">  1  9  2 -1</clus>
<clus scale="   89.951">  7  8 -1 -1</clus>
<clus scale="  112.657">  1 10  2 -1</clus>
<clus scale="  136.142">  2  5  1 -1</clus>
<clus scale="   80.394">  1  5  2 -1</clus>
</clustering>
</event>
<event>
10    4  0.7204077E-005  0.2478014E+03  0.7546771E-02  0.1114885E+00
          2   -1    0    0  503    0 -0.00000000000E+00  0.00000000000E+00  0.23110677855E+04  0.23110677855E+04  0.00000000000E+00 0. -1.
         21   -1    0    0  501  502  0.00000000000E+00 -0.00000000000E+00 -0.55894489502E+02  0.55894489502E+02  0.00000000000E+00 0. -1.
         23    2    1    2    0    0 -0.26694973410E+00 -0.27100662935E+03  0.14782759977E+04  0.15052715164E+04  0.84248135771E+02 0.  0.
         24    2    1    2    0    0 -0.63692203860E+02  0.17555424090E+03  0.52086755045E+03  0.55920763606E+03  0.80834316876E+02 0.  0.
        -13    1    4    4    0    0 -0.55681576691E+02  0.79512644211E+02  0.34805919455E+03  0.36134180699E+03  0.00000000000E+00 0.  1.
         14    1    4    4    0    0 -0.80106271692E+01  0.96041596690E+02  0.17280835590E+03  0.19786582907E+03  0.00000000000E+00 0. -1.
        -11    1    3    3    0    0 -0.38679452609E+02 -0.15625416923E+03  0.92676377998E+03  0.94063944704E+03  0.00000000000E+00 0.  1.
         11    1    3    3    0    0  0.38412502875E+02 -0.11475246012E+03  0.55151221773E+03  0.56463206939E+03  0.00000000000E+00 0. -1.
         21    1    1    2  503  502 -0.49323963133E+01 -0.23228216723E+02  0.41686554035E+02  0.47975487208E+02  0.00000000000E+00 0.  1.
          1    1    1    2  501    0  0.68891549907E+02  0.11868060517E+03  0.21434319378E+03  0.25450763528E+03  0.00000000000E+00 0. -1.
<scales pt_clust_5="13000.00000" pt_clust_6="13000.00000" pt_clust_7="13000.00000" pt_clust_8="13000.00000" pt_clust_9="23.74613" pt_clust_10="128.66670"></scales>
<clustering>
<clus scale="   23.746">  2  9  1 -1</clus>
<clus scale="   80.834">  5  6 -1 -1</clus>
<clus scale="   84.248">  7  8 -1 -1</clus>
<clus scale="  128.667">  2 10  1 -1</clus>
<clus scale="  246.662">  2  5  1 -1</clus>
<clus scale="   23.746">  2  5  1 -1</clus>
</clustering>
</event>
<event>
10    4  0.7204077E-005  0.1307310E+03  0.7546771E-02  0.1229170E+00
         21   -1    0    0  501  502  0.00000000000E+00  0.00000000000E+00  0.96637209197E+02  0.96637209197E+02  0.00000000000E+00 0. -1.
          2   -1    0    0  503    0 -0.00000000000E+00 -0.00000000000E+00 -0.32064805885E+03  0.32064805885E+03  0.00000000000E+00 0. -1.
         23    2    1    2    0    0  0.10296027756E+03 -0.56984770321E+02 -0.14842030233E+03  0.21045734147E+03  0.91736708198E+02 0.  0.
         24    2    1    2    0    0 -0.58038871843E+02  0.32873687534E+02 -0.48824698650E+02  0.11566776888E+03  0.80907302411E+02 0.  0.
        -13    1    4    4    0    0 -0.97991284525E+01  0.17891979768E+02 -0.60480176825E+02  0.63827875158E+02  0.00000000000E+00 0.  1.
         14    1    4    4    0    0 -0.48239743391E+02  0.14981707766E+02  0.11655478175E+02  0.51839893726E+02  0.00000000000E+00 0. -1.
        -13    1    3    3    0    0  0.67895804547E+02 -0.49936156208E+02 -0.34526595400E+02  0.91079886703E+02  0.00000000000E+00 0. -1.
         13    1    3    3    0    0  0.35064473013E+02 -0.70486141126E+01 -0.11389370693E+03  0.11937745476E+03  0.00000000000E+00 0.  1.
         21    1    1    2  503  502 -0.23800410499E+02 -0.74654526798E+01  0.19236329247E+02  0.31499664864E+02  0.00000000000E+00 0. -1.
          1    1    1    2  501    0 -0.21120995217E+02  0.31576535467E+02 -0.46002177922E+02  0.59660492829E+02  0.00000000000E+00 0. -1.
<scales pt_clust_5="13000.00000" pt_clust_6="13000.00000" pt_clust_7="13000.00000" pt_clust_8="13000.00000" pt_clust_9="24.94379" pt_clust_10="38.73046"></scales>
<clustering>
<clus scale="   24.944">  1  9  2 -1</clus>
<clus scale="   38.730">  1 10  2 -1</clus>
<clus scale="   80.907">  5  6 -1 -1</clus>
<clus scale="   91.737">  7  8 -1 -1</clus>
<clus scale="  123.373">  1  5  2 -1</clus>
<clus scale="   24.944">  1  5  2 -1</clus>
</clustering>
</event>
<event>
10    4  0.7204077E-005  0.3128265E+03  0.7546771E-02  0.1078999E+00
         -3   -1    0    0    0  501 -0.00000000000E+00  0.00000000000E+00  0.40534983618E+03  0.40534983618E+03  0.00000000000E+00 0.  1.
         21   -1    0    0  503  502  0.00000000000E+00 -0.00000000000E+00 -0.29002908592E+03  0.29002908592E+03  0.00000000000E+00 0.  1.
         24    2    1    2    0    0  0.67016302870E+02 -0.95142990570E+02  0.17937117533E+02  0.14324593456E+03  0.81573795281E+02 0.  0.
         23    2    1    2    0    0  0.99296776914E+02 -0.97609171590E+01 -0.40555325692E+02  0.14191790634E+03  0.92416623447E+02 0.  0.
        -13    1    3    3    0    0  0.34265260792E+02 -0.25382702742E+02  0.44593164410E+02  0.61700405248E+02  0.00000000000E+00 0.  1.
         14    1    3    3    0    0  0.32751042077E+02 -0.69760287827E+02 -0.26656046878E+02  0.81545529307E+02  0.00000000000E+00 0. -1.
        -13    1    4    4    0    0  0.12030296996E+02 -0.41336092305E+02 -0.98132615397E+01  0.44155415012E+02  0.00000000000E+00 0. -1.
         13    1    4    4    0    0  0.87266479918E+02  0.31575175146E+02 -0.30742064152E+02  0.97762491331E+02  0.00000000000E+00 0.  1.
         21    1    1    2  503  501  0.36698070384E+02 -0.43675319626E+02 -0.65368342742E+02  0.86760026206E+02  0.00000000000E+00 0.  1.
         -4    1    1    2    0  502 -0.20301115017E+03  0.14857922735E+03  0.20330730117E+03  0.32345505500E+03  0.00000000000E+00 0.  1.
<scales pt_clust_5="13000.00000" pt_clust_6="13000.00000" pt_clust_7="13000.00000" pt_clust_8="13000.00000" pt_clust_9="57.04631" pt_clust_10="236.04772"></scales>
<clustering>
<clus scale="   57.046">  2  9  1 -1</clus>
<clus scale="   81.574">  5  6 -1 -1</clus>
<clus scale="   92.417">  7  8 -1 -1</clus>
<clus scale="  138.141">  5  7 -1 -1</clus>
<clus scale="  236.048">  2 10  1 -1</clus>
<clus scale="   57.046">  2  5  1 -1</clus>
</clustering>
</event>
<event>
10    4  0.7204077E-005  0.4703213E+03  0.7546771E-02  0.1055769E+00
          2   -1    0    0  502    0 -0.00000000000E+00  0.00000000000E+00  0.77631661187E+03  0.77631661187E+03  0.00000000000E+00 0. -1.
         21   -1    0    0  503  502  0.00000000000E+00 -0.00000000000E+00 -0.59559739223E+03  0.59559739223E+03  0.00000000000E+00 0. -1.
         23    2    1    2    0    0 -0.39575485414E+02  0.16868132754E+03 -0.14514381821E+03  0.24345472806E+03  0.90464729831E+02 0.  0.
         24    2    1    2    0    0  0.24754791481E+03  0.35606071170E+03  0.89671215352E+02  0.44968628397E+03  0.78215258018E+02 0.  0.
        -11    1    4    4    0    0  0.14710483128E+02  0.60016552589E+02 -0.28254839809E+01  0.61857645107E+02  0.00000000000E+00 0.  1.
         12    1    4    4    0    0  0.23283743168E+03  0.29604415911E+03  0.92496699333E+02  0.38782863887E+03  0.00000000000E+00 0. -1.
        -13    1    3    3    0    0 -0.60396154026E+01  0.15112187830E+03 -0.13838892050E+03  0.20500193261E+03  0.00000000000E+00 0. -1.
         13    1    3    3    0    0 -0.33535870012E+02  0.17559449239E+02 -0.67548977099E+01  0.38452795452E+02  0.00000000000E+00 0.  1.
         21    1    1    2  503  501  0.37050950351E+02 -0.58776483813E+02 -0.44153032718E+02  0.82322161473E+02  0.00000000000E+00 0.  1.
          1    1    1    2  501    0 -0.24502337975E+03 -0.46596555543E+03  0.28034485521E+03  0.59645083059E+03  0.00000000000E+00 0. -1.
<scales pt_clust_5="13000.00000" pt_clust_6="13000.00000" pt_clust_7="13000.00000" pt_clust_8="13000.00000" pt_clust_9="69.47984" pt_clust_10="463.77226"></scales>
<clustering>
<clus scale="   69.480">  2  9  1 -1</clus>
<clus scale="   78.215">  5  6 -1 -1</clus>
<clus scale="   90.465">  7  8 -1 -1</clus>
<clus scale="  174.754">  1  7  2 -1</clus>
<clus scale="  463.772">  2 10  1 -1</clus>
<clus scale="   69.480">  2  5  1 -1</clus>
</clustering>
</event>
<event>
10    4  0.7204077E-005  0.1460769E+03  0.7546771E-02  0.1221063E+00
         21   -1    0    0  503  502  0.00000000000E+00  0.00000000000E+00  0.24925804582E+03  0.24925804582E+03  0.00000000000E+00 0. -1.
          2   -1    0    0  502    0 -0.00000000000E+00 -0.00000000000E+00 -0.31891031534E+03  0.31891031534E+03  0.00000000000E+00 0. -1.
         24    2    1    2    0    0 -0.62356005266E+02 -0.82288621235E+01 -0.13457163704E+03  0.16930031898E+03  0.81222453459E+02 0.  0.
         23    2    1    2    0    0 -0.59716030726E+02  0.46620083276E+02 -0.52441733512E+02  0.12823162175E+03  0.89183949861E+02 0.  0.
        -11    1    3    3    0    0 -0.36133012217E+02  0.28421130017E+01 -0.13605253529E+03  0.14079760132E+03  0.00000000000E+00 0.  1.
         12    1    3    3    0    0 -0.26222993049E+02 -0.11070975125E+02  0.14808982443E+01  0.28502717665E+02  0.00000000000E+00 0. -1.
        -11    1    4    4    0    0 -0.31326587202E+02 -0.13360124652E+02  0.11631027685E+02  0.35987897986E+02  0.00000000000E+00 0.  1.
         11    1    4    4    0    0 -0.28389443524E+02  0.59980207928E+02 -0.64072761196E+02  0.92243723765E+02  0.00000000000E+00 0. -1.
         21    1    1    2  503  501 -0.25284551933E+02  0.59853088813E+01  0.11377162429E+03  0.11670096393E+03  0.00000000000E+00 0. -1.
          1    1    1    2  501    0  0.14735658793E+03 -0.44376530033E+02  0.35894767400E+01  0.15393545649E+03  0.00000000000E+00 0. -1.
<scales pt_clust_5="13000.00000" pt_clust_6="13000.00000" pt_clust_7="13000.00000" pt_clust_8="13000.00000" pt_clust_9="25.98331" pt_clust_10="115.69221"></scales>
<clustering>
<clus scale="   25.983">  1  9  2 -1</clus>
<clus scale="   81.222">  5  6 -1 -1</clus>
<clus scale="   89.184">  7  8 -1 -1</clus>
<clus scale="  104.691">  2  5  1 -1</clus>
<clus scale="  115.692">  1 10  2 -1</clus>
<clus scale="   25.983">  1  5  2 -1</clus>
</clustering>
</event>
<event>
10    4  0.7204077E-005  0.1054867E+03  0.7546771E-02  0.1276462E+00
         -1   -1    0    0    0  501 -0.00000000000E+00  0.00000000000E+00  0.21826196054E+03  0.21826196054E+03  0.00000000000E+00 0.  1.
         21   -1    0    0  501  502  0.00000000000E+00 -0.00000000000E+00 -0.12091437750E+03  0.12091437750E+03  0.00000000000E+00 0. -1.
         23    2    1    2    0    0  0.40820974771E+02  0.28267994460E+02  0.87460002020E+02  0.13485622633E+03  0.89841629189E+02 0.  0.
         24    2    1    2    0    0 -0.57784654686E+02 -0.25122490592E+02  0.47567477138E+02  0.10760261905E+03  0.73112604203E+02 0.  0.
        -11    1    4    4    0    0 -0.27557359480E+02  0.24731251136E+02  0.26815688825E+02  0.45717874091E+02  0.00000000000E+00 0.  1.
         12    1    4    4    0    0 -0.30227295206E+02 -0.49853741729E+02  0.20751788313E+02  0.61884744954E+02  0.00000000000E+00 0. -1.
        -11    1    3    3    0    0  0.20909606417E+02  0.35526318770E+02  0.10142062313E+03  0.10947818852E+03  0.00000000000E+00 0.  1.
         11    1    3    3    0    0  0.19911368354E+02 -0.72583243097E+01 -0.13960621108E+02  0.25378037813E+02  0.00000000000E+00 0. -1.
         21    1    1    2  503  502 -0.10214149836E+02 -0.31229230357E+02 -0.46225299598E+02  0.56713067352E+02  0.00000000000E+00 0. -1.
         -2    1    1    2    0  503  0.27177829752E+02  0.28083726489E+02  0.85454034755E+01  0.40004425306E+02  0.00000000000E+00 0.  1.
<scales pt_clust_5="13000.00000" pt_clust_6="13000.00000" pt_clust_7="13000.00000" pt_clust_8="13000.00000" pt_clust_9="32.85717" pt_clust_10="32.55247"></scales>
<clustering>
<clus scale="   32.857">  2  9  1 -1</clus>
<clus scale="   32.552">  2 10  1 -1</clus>
<clus scale="   73.113">  5  6 -1 -1</clus>
<clus scale="   89.842">  7  8 -1 -1</clus>
<clus scale="   91.659">  2  5  1 -1</clus>
<clus scale="   32.857">  2  5  1 -1</clus>
</clustering>
</event>
<event>
10    4  0.7204077E-005  0.3234776E+03  0.7546771E-02  0.1091138E+00
         21   -1    0    0  501  502  0.00000000000E+00  0.00000000000E+00  0.33015101982E+03  0.33015101982E+03  0.00000000000E+00 0. -1.
          2   -1    0    0  503    0 -0.00000000000E+00 -0.00000000000E+00 -0.64553789221E+03  0.64553789221E+03  0.00000000000E+00 0. -1.
         24    2    1    2    0    0 -0.73983761362E+02  0.17369597247E+03 -0.19032163489E+03  0.27969571250E+03  0.79771417720E+02 0.  0.
         23    2    1    2    0    0 -0.17377741121E+03 -0.29910532301E+03 -0.43104528968E+02  0.36102170905E+03  0.93894041832E+02 0.  0.
        -11    1    3    3    0    0 -0.36323109930E+02  0.28897373034E+02 -0.84599139981E+02  0.96495808038E+02  0.00000000000E+00 0.  1.
         12    1    3    3    0    0 -0.37660651433E+02  0.14479859943E+03 -0.10572249491E+03  0.18319990446E+03  0.00000000000E+00 0. -1.
        -11    1    4    4    0    0 -0.38039398942E+02 -0.12264156196E+03  0.19211047174E+02  0.12983455983E+03  0.00000000000E+00 0.  1.
         11    1    4    4    0    0 -0.13573801227E+03 -0.17646376105E+03 -0.62315576142E+02  0.23118714923E+03  0.00000000000E+00 0. -1.
         21    1    1    2  503  502 -0.19312912252E+02 -0.10971357090E+02  0.49384236659E+01  0.22754060832E+02  0.00000000000E+00 0.  1.
          1    1    1    2  501    0  0.26707408482E+03  0.13638070763E+03 -0.86899132204E+02  0.31221742965E+03  0.00000000000E+00 0. -1.
<scales pt_clust_5="13000.00000" pt_clust_6="13000.00000" pt_clust_7="13000.00000" pt_clust_8="13000.00000" pt_clust_9="22.21169" pt_clust_10="309.55071"></scales>
<clustering>
<clus scale="   22.212">  1  9  2 -1</clus>
<clus scale="   79.771">  5  6 -1 -1</clus>
<clus scale="   93.894">  7  8 -1 -1</clus>
<clus scale="  204.652">  2  5  1 -1</clus>
<clus scale="  309.551">  1 10  2 -1</clus>
<clus scale="   22.212">  1  5  2 -1</clus>
</clustering>
</event>
<event>
10    4  0.7204077E-005  0.1229986E+03  0.7546771E-02  0.1261553E+00
         21   -1    0    0  501  502  0.00000000000E+00  0.00000000000E+00  0.27684809448E+02  0.27684809448E+02  0.00000000000E+00 0.  1.
          2   -1    0    0  503    0 -0.00000000000E+00 -0.00000000000E+00 -0.11503553928E+04  0.11503553928E+04  0.00000000000E+00 0. -1.
         24    2    1    2    0    0  0.94079403450E+00 -0.64127004376E+01 -0.41698886190E+03  0.42408723056E+03  0.76995196920E+02 0.  0.
         23    2    1    2    0    0  0.90687670324E+02  0.40685022383E+02 -0.48878913361E+03  0.50609151580E+03  0.85640414712E+02 0.  0.
        -11    1    3    3    0    0  0.23109713588E+02 -0.18961527111E+02 -0.69376270082E+02  0.75542472974E+02  0.00000000000E+00 0.  1.
         12    1    3    3    0    0 -0.22168919554E+02  0.12548826674E+02 -0.34761259182E+03  0.34854475758E+03  0.00000000000E+00 0. -1.
        -11    1    4    4    0    0  0.10431190490E+03  0.22057206635E+02 -0.36875967758E+03  0.38386350918E+03  0.00000000000E+00 0.  1.
         11    1    4    4    0    0 -0.13624234580E+02  0.18627815748E+02 -0.12002945604E+03  0.12222800663E+03  0.00000000000E+00 0. -1.
         21    1    1    2  503  502 -0.32015391637E+02  0.20172333109E+02 -0.52518892591E+02  0.64731309300E+02  0.00000000000E+00 0.  1.
          1    1    1    2  501    0 -0.59613072722E+02 -0.54444655054E+02 -0.16437369527E+03  0.18313014661E+03  0.00000000000E+00 0. -1.
<scales pt_clust_5="13000.00000" pt_clust_6="13000.00000" pt_clust_7="13000.00000" pt_clust_8="13000.00000" pt_clust_9="37.84056" pt_clust_10="88.28574"></scales>
<clustering>
<clus scale="   37.841">  1  9  2 -1</clus>
<clus scale="   76.995">  5  6 -1 -1</clus>
<clus scale="   77.179">  2  5  1 -1</clus>
<clus scale="   85.640">  7  8 -1 -1</clus>
<clus scale="   88.286">  1 10  2 -1</clus>
<clus scale="   37.841">  1  5  2 -1</clus>
</clustering>
</event>
<event>
10    4  0.7204077E-005  0.1004709E+03  0.7546771E-02  0.1287036E+00
         -3   -1    0    0    0  501 -0.00000000000E+00  0.00000000000E+00  0.79891212410E+02  0.79891212410E+02  0.00000000000E+00 0.  1.
         21   -1    0    0  501  502  0.00000000000E+00 -0.00000000000E+00 -0.49191929043E+03  0.49191929043E+03  0.00000000000E+00 0. -1.
         24    2    1    2    0    0 -0.15094705255E+00  0.22536297005E+02 -0.75793844276E+01  0.83935770418E+02  0.80497571514E+02 0.  0.
         23    2    1    2    0    0  0.85846716026E+02 -0.74166961790E+02 -0.25217428512E+03  0.29240907012E+03  0.95083107544E+02 0.  0.
        -11    1    3    3    0    0 -0.18528777273E+02 -0.25688135799E+02 -0.64075916285E+01  0.32314905826E+02  0.00000000000E+00 0.  1.
         12    1    3    3    0    0  0.18377830221E+02  0.48224432804E+02 -0.11717927990E+01  0.51620864592E+02  0.00000000000E+00 0. -1.
        -11    1    4    4    0    0  0.31086535269E+02 -0.85541490776E+02 -0.13862602175E+03  0.16583393267E+03  0.00000000000E+00 0. -1.
         11    1    4    4    0    0  0.54760180757E+02  0.11374528986E+02 -0.11354826337E+03  0.12657513745E+03  0.00000000000E+00 0.  1.
         21    1    1    2  503  502 -0.30984413393E+02  0.17693665286E+02 -0.11643727919E+03  0.12178152425E+03  0.00000000000E+00 0. -1.
         -4    1    1    2    0  503 -0.54711355581E+02  0.33936999499E+02 -0.35837129287E+02  0.73684138049E+02  0.00000000000E+00 0.  1.
<scales pt_clust_5="13000.00000" pt_clust_6="13000.00000" pt_clust_7="13000.00000" pt_clust_8="13000.00000" pt_clust_9="35.68052" pt_clust_10="69.61989"></scales>
<clustering>
<clus scale="   35.681">  2  9  1 -1</clus>
<clus scale="   69.620">  2 10  1 -1</clus>
<clus scale="   80.498">  5  6 -1 -1</clus>
<clus scale="   86.796">  1  5  2 -1</clus>
<clus scale="   95.083">  7  8 -1 -1</clus>
<clus scale="   35.681">  2  5  1 -1</clus>
</clustering>
</event>
<event>
10    4  0.7204077E-005  0.1785878E+03  0.7546771E-02  0.1171629E+00
         21   -1    0    0  501  502  0.00000000000E+00  0.00000000000E+00  0.10429579796E+03  0.10429579796E+03  0.00000000000E+00 0.  1.
         -1   -1    0    0    0  501 -0.00000000000E+00 -0.00000000000E+00 -0.10180654815E+04  0.10180654815E+04  0.00000000000E+00 0.  1.
         24    2    1    2    0    0  0.12721412398E+03 -0.94206216676E+02 -0.30223722308E+03  0.35047004565E+03  0.80147796492E+02 0.  0.
         23    2    1    2    0    0 -0.14743954539E+03 -0.45418801222E+00 -0.84820674295E+02  0.19682273407E+03  0.99025330218E+02 0.  0.
        -11    1    3    3    0    0  0.10791930686E+03 -0.10656171104E+03 -0.28055747810E+03  0.31892706622E+03  0.00000000000E+00 0.  1.
         12    1    3    3    0    0  0.19294817123E+02  0.12355494361E+02 -0.21679744973E+02  0.31542979422E+02  0.00000000000E+00 0. -1.
        -11    1    4    4    0    0 -0.54041223379E+02 -0.13800955307E+02  0.16708182603E+02  0.58224424064E+02  0.00000000000E+00 0.  1.
         11    1    4    4    0    0 -0.93398322016E+02  0.13346767295E+02 -0.10152885690E+03  0.13859831000E+03  0.00000000000E+00 0. -1.
         21    1    1    2  503  502 -0.73784024492E+01 -0.31540936919E+02  0.36158923407E+00  0.32394479023E+02  0.00000000000E+00 0.  1.
         -2    1    1    2    0  503  0.27603823864E+02  0.12620134161E+03 -0.52707337544E+03  0.54267402076E+03  0.00000000000E+00 0.  1.
<scales pt_clust_5="13000.00000" pt_clust_6="13000.00000" pt_clust_7="13000.00000" pt_clust_8="13000.00000" pt_clust_9="32.39246" pt_clust_10="126.31136"></scales>
<clustering>
<clus scale="   32.392">  1  9  2 -1</clus>
<clus scale="   80.148">  5  6 -1 -1</clus>
<clus scale="   99.025">  7  8 -1 -1</clus>
<clus scale="  126.311">  1 10  2 -1</clus>
<clus scale="  168.853">  2  5  1 -1</clus>
<clus scale="   32.392">  1  5  2 -1</clus>
</clustering>
</event>
<event>
10    4  0.7204077E-005  0.2302723E+03  0.7546771E-02  0.1165572E+00
         -3   -1    0    0    0  501 -0.00000000000E+00  0.00000000000E+00  0.38618705709E+03  0.38618705709E+03  0.00000000000E+00 0.  1.
         21   -1    0    0  503  502  0.00000000000E+00 -0.00000000000E+00 -0.39699711130E+03  0.39699711130E+03  0.00000000000E+00 0.  1.
         23    2    1    2    0    0 -0.58988030687E+01 -0.73166534929E+01  0.92508087829E+02  0.12937698032E+03  0.89957364500E+02 0.  0.
         24    2    1    2    0    0  0.16413952457E+03 -0.10147272080E+03 -0.14622917550E+03  0.25504641476E+03  0.80169852949E+02 0.  0.
        -13    1    4    4    0    0  0.13737399139E+03 -0.52836985128E+02 -0.13207708290E+03  0.19775670997E+03  0.00000000000E+00 0.  1.
         14    1    4    4    0    0  0.26765533172E+02 -0.48635735669E+02 -0.14152092600E+02  0.57289704790E+02  0.00000000000E+00 0. -1.
        -11    1    3    3    0    0  0.40186324163E+02  0.43628077973E+01  0.57718025079E+02  0.70465205319E+02  0.00000000000E+00 0. -1.
         11    1    3    3    0    0 -0.46085127232E+02 -0.11679461290E+02  0.34790062750E+02  0.58911775004E+02  0.00000000000E+00 0.  1.
         21    1    1    2  503  501  0.22037352311E+02 -0.23265129284E+02 -0.11871765415E+03  0.12296663183E+03  0.00000000000E+00 0.  1.
         -4    1    1    2    0  502 -0.18027807381E+03  0.13205450357E+03  0.16162868762E+03  0.27579414147E+03  0.00000000000E+00 0.  1.
<scales pt_clust_5="13000.00000" pt_clust_6="13000.00000" pt_clust_7="13000.00000" pt_clust_8="13000.00000" pt_clust_9="32.04545" pt_clust_10="215.86614"></scales>
<clustering>
<clus scale="   32.045">  2  9  1 -1</clus>
<clus scale="   80.170">  5  6 -1 -1</clus>
<clus scale="   89.957">  7  8 -1 -1</clus>
<clus scale="   90.502">  1  7  2 -1</clus>
<clus scale="  215.866">  2 10  1 -1</clus>
<clus scale="   32.045">  2  5  1 -1</clus>
</clustering>
</event>
<event>
10    4  0.7204077E-005  0.9968828E+02  0.7546771E-02  0.1288014E+00
         21   -1    0    0  501  502  0.00000000000E+00  0.00000000000E+00  0.26757045787E+03  0.26757045787E+03  0.00000000000E+00 0. -1.
          2   -1    0    0  503    0 -0.00000000000E+00 -0.00000000000E+00 -0.33630955125E+03  0.33630955125E+03  0.00000000000E+00 0. -1.
         24    2    1    2    0    0  0.80158012491E+01 -0.61825036291E+02 -0.99008227475E+01  0.10313594198E+03  0.81562295551E+02 0.  0.
         23    2    1    2    0    0  0.37625178804E+02 -0.35908712397E+02  0.67484209535E+02  0.12743313519E+03  0.94762839246E+02 0.  0.
        -11    1    3    3    0    0 -0.25919747982E+02 -0.67063462230E+01 -0.25043539828E+02  0.36660432379E+02  0.00000000000E+00 0.  1.
         12    1    3    3    0    0  0.33935549232E+02 -0.55118690068E+02  0.15142717080E+02  0.66475509603E+02  0.00000000000E+00 0. -1.
        -11    1    4    4    0    0  0.56272390103E+02 -0.13678423934E+01  0.90097774074E+01  0.57005517011E+02  0.00000000000E+00 0.  1.
         11    1    4    4    0    0 -0.18647211300E+02 -0.34540870003E+02  0.58474432127E+02  0.70427618180E+02  0.00000000000E+00 0. -1.
         21    1    1    2  503  502 -0.29887490827E+02  0.10881546038E+01  0.11185802737E+03  0.11578715160E+03  0.00000000000E+00 0. -1.
          1    1    1    2  501    0 -0.15753489226E+02  0.96645594084E+02 -0.23818050753E+03  0.25752378035E+03  0.00000000000E+00 0. -1.
<scales pt_clust_5="13000.00000" pt_clust_6="13000.00000" pt_clust_7="13000.00000" pt_clust_8="13000.00000" pt_clust_9="29.90729" pt_clust_10="98.30849"></scales>
<clustering>
<clus scale="   29.907">  1  9  2 -1</clus>
<clus scale="   81.562">  5  6 -1 -1</clus>
<clus scale="   94.763">  7  8 -1 -1</clus>
<clus scale="   98.308">  1 10  2 -1</clus>
<clus scale="   87.236">  2  5  1 -1</clus>
<clus scale="   29.907">  1  5  2 -1</clus>
</clustering>
</event>
<event>
10    4  0.7204077E-005  0.1500892E+03  0.7546771E-02  0.1224839E+00
         21   -1    0    0  501  502  0.00000000000E+00  0.00000000000E+00  0.69466822518E+03  0.69466822518E+03  0.00000000000E+00 0.  1.
          4   -1    0    0  503    0 -0.00000000000E+00 -0.00000000000E+00 -0.93136198879E+02  0.93136198879E+02  0.00000000000E+00 0. -1.
         24    2    1    2    0    0  0.18948552787E+02  0.32890444295E+02 -0.88403541968E+01  0.89102027610E+02  0.80126091152E+02 0.  0.
         23    2    1    2    0    0 -0.52751475839E+02  0.95796962987E+02  0.14150561313E+03  0.19711335165E+03  0.82885816229E+02 0.  0.
        -13    1    3    3    0    0  0.40427118589E+02  0.17495179537E+01  0.16360163458E+02  0.43647080988E+02  0.00000000000E+00 0.  1.
         14    1    3    3    0    0 -0.21478565802E+02  0.31140926341E+02 -0.25200517654E+02  0.45454946621E+02  0.00000000000E+00 0. -1.
        -11    1    4    4    0    0 -0.50263615809E+02  0.27313888984E+02  0.26062722925E+02  0.62862907441E+02  0.00000000000E+00 0. -1.
         11    1    4    4    0    0 -0.24878600297E+01  0.68483074003E+02  0.11544289020E+03  0.13425044421E+03  0.00000000000E+00 0.  1.
         21    1    1    2  503  502  0.88608535884E+01 -0.13753542496E+03  0.44534080567E+03  0.46617908688E+03  0.00000000000E+00 0.  1.
          3    1    1    2  501    0  0.24942069464E+02  0.88480176817E+01  0.23525961697E+02  0.35409957919E+02  0.00000000000E+00 0. -1.
<scales pt_clust_5="13000.00000" pt_clust_6="13000.00000" pt_clust_7="13000.00000" pt_clust_8="13000.00000" pt_clust_9="125.12674" pt_clust_10="26.46498"></scales>
<clustering>
<clus scale="   26.465">  1 10  2 -1</clus>
<clus scale="   80.126">  5  6 -1 -1</clus>
<clus scale="   82.886">  7  8 -1 -1</clus>
<clus scale="   89.195">  2  5  1 -1</clus>
<clus scale="  125.127">  1  9  2 -1</clus>
<clus scale="   26.465">  1  5  2 -1</clus>
</clustering>
</event>
<event>
10    4  0.7204077E-005  0.1480118E+03  0.7546771E-02  0.1216138E+00
         21   -1    0    0  501  502  0.00000000000E+00  0.00000000000E+00  0.47132323168E+03  0.47132323168E+03  0.00000000000E+00 0. -1.
         -1   -1    0    0    0  501 -0.00000000000E+00 -0.00000000000E+00 -0.33215808218E+03  0.33215808218E+03  0.00000000000E+00 0.  1.
         23    2    1    2    0    0  0.64580733802E+02 -0.24852740920E+02 -0.69684117294E+02  0.13306618731E+03  0.89790890917E+02 0.  0.
         24    2    1    2    0    0  0.91058177216E+02  0.98976005895E+02  0.26038296030E+03  0.30422783579E+03  0.81654446779E+02 0.  0.
        -13    1    4    4    0    0  0.71127794875E+02  0.17212936855E+02  0.12127798840E+03  0.14164673970E+03  0.00000000000E+00 0.  1.
         14    1    4    4    0    0  0.19930382341E+02  0.81763069041E+02  0.13910497190E+03  0.16258109609E+03  0.00000000000E+00 0. -1.
        -11    1    3    3    0    0  0.74822468093E+02 -0.46642294631E+02 -0.46670276749E+02  0.99759812108E+02  0.00000000000E+00 0.  1.
         11    1    3    3    0    0 -0.10241734291E+02  0.21789553712E+02 -0.23013840545E+02  0.33306375199E+02  0.00000000000E+00 0. -1.
         21    1    1    2  503  502 -0.31089327084E+02  0.51933793527E+01  0.12909307055E+03  0.13288543303E+03  0.00000000000E+00 0. -1.
         -2    1    1    2    0  503 -0.12454958393E+03 -0.79316644329E+02 -0.18062676405E+03  0.23330185772E+03  0.00000000000E+00 0.  1.
<scales pt_clust_5="13000.00000" pt_clust_6="13000.00000" pt_clust_7="13000.00000" pt_clust_8="13000.00000" pt_clust_9="31.52011" pt_clust_10="123.45064"></scales>
<clustering>
<clus scale="   31.520">  1  9  2 -1</clus>
<clus scale="   81.654">  5  6 -1 -1</clus>
<clus scale="   89.791">  7  8 -1 -1</clus>
<clus scale="  111.631">  2  7  1 -1</clus>
<clus scale="  123.451">  1 10  2 -1</clus>
<clus scale="   31.520">  1  5  2 -1</clus>
</clustering>
</event>
<event>
10    4  0.7204077E-005  0.2825656E+03  0.7546771E-02  0.1127331E+00
          2   -1    0    0  503    0 -0.00000000000E+00  0.00000000000E+00  0.61994051400E+03  0.61994051400E+03  0.00000000000E+00 0. -1.
         21   -1    0    0  501  502  0.00000000000E+00 -0.00000000000E+00 -0.31140553074E+03  0.31140553074E+03  0.00000000000E+00 0.  1.
         24    2    1    2    0    0 -0.71826548864E+02  0.71207350235E+02  0.77641253907E+02  0.15019965621E+03  0.79386601936E+02 0.  0.
         23    2    1    2    0    0  0.24021966196E+03 -0.29903978998E+02 -0.11564536441E+03  0.28246172558E+03  0.88380100463E+02 0.  0.
        -11    1    3    3    0    0 -0.39075761030E+01  0.58429800053E+02  0.44523322012E+02  0.73563828668E+02  0.00000000000E+00 0.  1.
         12    1    3    3    0    0 -0.67918972761E+02  0.12777550182E+02  0.33117931895E+02  0.76635827539E+02  0.00000000000E+00 0. -1.
        -13    1    4    4    0    0  0.25750443347E+02  0.25264502913E+02 -0.12620507441E+02  0.38218551098E+02  0.00000000000E+00 0. -1.
         13    1    4    4    0    0  0.21446921861E+03 -0.55168481911E+02 -0.10302485697E+03  0.24424317448E+03  0.00000000000E+00 0.  1.
         21    1    1    2  503  502  0.56552503928E+02 -0.33002627443E+02 -0.20070289673E+02  0.68484857058E+02  0.00000000000E+00 0.  1.
          1    1    1    2  501    0 -0.22494561702E+03 -0.83007437937E+01  0.36660938344E+03  0.43019980590E+03  0.00000000000E+00 0. -1.
<scales pt_clust_5="13000.00000" pt_clust_6="13000.00000" pt_clust_7="13000.00000" pt_clust_8="13000.00000" pt_clust_9="65.47793" pt_clust_10="268.38839"></scales>
<clustering>
<clus scale="   65.478">  2  9  1 -1</clus>
<clus scale="   79.387">  5  6 -1 -1</clus>
<clus scale="   88.380">  7  8 -1 -1</clus>
<clus scale="  121.939">  1  5  2 -1</clus>
<clus scale="  268.388">  2 10  1 -1</clus>
<clus scale="   65.478">  2  5  1 -1</clus>
</clustering>
</event>
<event>
10    4  0.7204077E-005  0.4025918E+03  0.7546771E-02  0.1079006E+00
         21   -1    0    0  503  502  0.00000000000E+00  0.00000000000E+00  0.77194147761E+03  0.77194147761E+03  0.00000000000E+00 0. -1.
          2   -1    0    0  502    0 -0.00000000000E+00 -0.00000000000E+00 -0.73290273709E+03  0.73290273709E+03  0.00000000000E+00 0. -1.
         23    2    1    2    0    0 -0.10145936813E+03  0.52241511240E+02 -0.98409541491E+02  0.17573122217E+03  0.90409323135E+02 0.  0.
         24    2    1    2    0    0  0.51973516727E+02 -0.45720087034E+03  0.13126105840E+03  0.48633954003E+03  0.86964363172E+02 0.  0.
        -13    1    4    4    0    0 -0.13445072905E+02 -0.18950344180E+03  0.79512676252E+02  0.20594802773E+03  0.00000000000E+00 0.  1.
         14    1    4    4    0    0  0.65418589633E+02 -0.26769742853E+03  0.51748382153E+02  0.28039151230E+03  0.00000000000E+00 0. -1.
        -11    1    3    3    0    0 -0.31132532451E+02 -0.10661153584E+02 -0.69746719472E+02  0.77120034035E+02  0.00000000000E+00 0. -1.
         11    1    3    3    0    0 -0.70326835678E+02  0.62902664824E+02 -0.28662822019E+02  0.98611188131E+02  0.00000000000E+00 0.  1.
         21    1    1    2  503  501  0.20615430128E+02  0.69742982522E+02  0.35250456272E+03  0.35992852945E+03  0.00000000000E+00 0. -1.
          1    1    1    2  501    0  0.28870421273E+02  0.33521637657E+03 -0.34631733912E+03  0.48284492306E+03  0.00000000000E+00 0. -1.
<scales pt_clust_5="13000.00000" pt_clust_6="13000.00000" pt_clust_7="13000.00000" pt_clust_8="13000.00000" pt_clust_9="72.72606" pt_clust_10="393.08716"></scales>
<clustering>
<clus scale="   72.726">  1  9  2 -1</clus>
<clus scale="   86.964">  5  6 -1 -1</clus>
<clus scale="   90.409">  7  8 -1 -1</clus>
<clus scale="  146.736">  2  7  1 -1</clus>
<clus scale="  393.087">  1 10  2 -1</clus>
<clus scale="   72.726">  1  5  2 -1</clus>
</clustering>
</event>
<event>
10    4  0.7204077E-005  0.2520160E+03  0.7546771E-02  0.1152847E+00
          2   -1    0    0  503    0 -0.00000000000E+00  0.00000000000E+00  0.21288733610E+04  0.21288733610E+04  0.00000000000E+00 0. -1.
         21   -1    0    0  501  502  0.00000000000E+00 -0.00000000000E+00 -0.65286186791E+02  0.65286186791E+02  0.00000000000E+00 0.  1.
         24    2    1    2    0    0  0.20554736494E+02  0.54264181747E+02  0.57685030412E+03  0.58474035919E+03  0.76144045603E+02 0.  0.
         23    2    1    2    0    0  0.10300599425E+03 -0.17144819347E+03  0.31642734628E+03  0.38495719157E+03  0.89783383612E+02 0.  0.
        -13    1    3    3    0    0  0.32994652003E+02 -0.63423800489E+01  0.18270492675E+03  0.18576857405E+03  0.00000000000E+00 0.  1.
         14    1    3    3    0    0 -0.12439915510E+02  0.60606561796E+02  0.39414537738E+03  0.39897178514E+03  0.00000000000E+00 0. -1.
        -13    1    4    4    0    0  0.67385219784E+02 -0.16935736092E+03  0.24789866205E+03  0.30769535289E+03  0.00000000000E+00 0.  1.
         13    1    4    4    0    0  0.35620774467E+02 -0.20908325504E+01  0.68528684225E+02  0.77261838678E+02  0.00000000000E+00 0. -1.
         21    1    1    2  503  502  0.13275114428E+02 -0.72534559003E+02  0.77807361233E+02  0.10719830397E+03  0.00000000000E+00 0.  1.
          1    1    1    2  501    0 -0.13683584517E+03  0.18971857073E+03  0.10925021626E+04  0.11172636931E+04  0.00000000000E+00 0. -1.
<scales pt_clust_5="13000.00000" pt_clust_6="13000.00000" pt_clust_7="13000.00000" pt_clust_8="13000.00000" pt_clust_9="73.73934" pt_clust_10="235.48052"></scales>
<clustering>
<clus scale="   73.739">  2  9  1 -1</clus>
<clus scale="   76.144">  5  6 -1 -1</clus>
<clus scale="   89.783">  7  8 -1 -1</clus>
<clus scale="   92.880">  1  5  2 -1</clus>
<clus scale="  235.481">  2 10  1 -1</clus>
<clus scale="   73.739">  2  5  1 -1</clus>
</clustering>
</event>
<event>
10    4  0.7204077E-005  0.1998411E+03  0.7546771E-02  0.1151127E+00
          2   -1    0    0  503    0 -0.00000000000E+00  0.00000000000E+00  0.59553533063E+03  0.59553533063E+03  0.00000000000E+00 0. -1.
         21   -1    0    0  501  502  0.00000000000E+00 -0.00000000000E+00 -0.23096170786E+03  0.23096170786E+03  0.00000000000E+00 0.  1.
         23    2    1    2    0    0  0.48473921614E+02 -0.16688347697E+03  0.39202495823E+03  0.43885003475E+03  0.93305783129E+02 0.  0.
         24    2    1    2    0    0 -0.31321921916E+02  0.18593193771E+03  0.34964612431E+02  0.20779618321E+03  0.80031127575E+02 0.  0.
        -11    1    4    4    0    0 -0.53742409410E+02  0.14455282155E+03  0.42885059641E+02  0.16007152504E+03  0.00000000000E+00 0.  1.
         12    1    4    4    0    0  0.22420487494E+02  0.41379116154E+02 -0.79204472101E+01  0.47724658167E+02  0.00000000000E+00 0. -1.
        -11    1    3    3    0    0 -0.12982293861E+02 -0.64851966046E+02  0.73985713991E+02  0.99238114294E+02  0.00000000000E+00 0.  1.
         11    1    3    3    0    0  0.61456215474E+02 -0.10203151092E+03  0.31803924423E+03  0.33961192045E+03  0.00000000000E+00 0. -1.
         21    1    1    2  503  502  0.18448286773E+02 -0.12821578222E+02 -0.11437392530E+03  0.11655954247E+03  0.00000000000E+00 0.  1.
          1    1    1    2  501    0 -0.35600286471E+02 -0.62268825128E+01  0.51957977408E+02  0.63291278064E+02  0.00000000000E+00 0. -1.
<scales pt_clust_5="13000.00000" pt_clust_6="13000.00000" pt_clust_7="13000.00000" pt_clust_8="13000.00000" pt_clust_9="22.46624" pt_clust_10="35.36606"></scales>
<clustering>
<clus scale="   22.466">  2  9  1 -1</clus>
<clus scale="   35.366">  2 10  1 -1</clus>
<clus scale="   80.031">  5  6 -1 -1</clus>
<clus scale="   93.306">  7  8 -1 -1</clus>
<clus scale="  193.999">  2  5  1 -1</clus>
<clus scale="   22.466">  2  5  1 -1</clus>
</clustering>
</event>
<event>
10    4  0.7204077E-005  0.1313599E+03  0.7546771E-02  0.1250750E+00
         21   -1    0    0  501  502  0.00000000000E+00  0.00000000000E+00  0.91900047116E+03  0.91900047116E+03  0.00000000000E+00 0.  1.
         -3   -1    0    0    0  501 -0.00000000000E+00 -0.00000000000E+00 -0.29679824916E+02  0.29679824916E+02  0.00000000000E+00 0.  1.
         24    2    1    2    0    0  0.18625440823E+01 -0.32560654749E+01  0.31996632091E+03  0.32944355497E+03  0.78361587312E+02 0.  0.
         23    2    1    2    0    0  0.17716701775E+02 -0.93462673274E+02  0.25325474138E+03  0.28454295942E+03  0.88190582866E+02 0.  0.
        -13    1    3    3    0    0  0.33257992794E+02  0.18080378736E+02  0.11742862686E+03  0.12337940098E+03  0.00000000000E+00 0.  1.
         14    1    3    3    0    0 -0.31395448711E+02 -0.21336444211E+02  0.20253769404E+03  0.20606415399E+03  0.00000000000E+00 0. -1.
        -13    1    4    4    0    0 -0.11652527987E+02 -0.32398638559E+02  0.18568649415E+03  0.18885160126E+03  0.00000000000E+00 0. -1.
         13    1    4    4    0    0  0.29369229761E+02 -0.61064034715E+02  0.67568247229E+02  0.95691358158E+02  0.00000000000E+00 0.  1.
         21    1    1    2  503  502 -0.24050535378E+02  0.18380011968E+02  0.11238101159E+03  0.11638618843E+03  0.00000000000E+00 0. -1.
         -4    1    1    2    0  503  0.44712895205E+01  0.78338726780E+02  0.20371857237E+03  0.21830759325E+03  0.00000000000E+00 0.  1.
<scales pt_clust_5="13000.00000" pt_clust_6="13000.00000" pt_clust_7="13000.00000" pt_clust_8="13000.00000" pt_clust_9="30.19293" pt_clust_10="108.81621"></scales>
<clustering>
<clus scale="   30.193">  9 10 -1 -1</clus>
<clus scale="   78.362">  5  6 -1 -1</clus>
<clus scale="   78.451">  2  5  1 -1</clus>
<clus scale="   88.191">  7  8 -1 -1</clus>
<clus scale="  108.816">  1  9  2 -1</clus>
<clus scale="  108.816">  1  5  2 -1</clus>
</clustering>
</event>
<event>
10    4  0.7204077E-005  0.1931637E+03  0.7546771E-02  0.1177223E+00
          2   -1    0    0  502    0 -0.00000000000E+00  0.00000000000E+00  0.47969732533E+03  0.47969732533E+03  0.00000000000E+00 0. -1.
         21   -1    0    0  503  502  0.00000000000E+00 -0.00000000000E+00 -0.21868158287E+03  0.21868158287E+03  0.00000000000E+00 0. -1.
         24    2    1    2    0    0 -0.54481891343E+02  0.65801572455E+02  0.16514728084E+03  0.20212999884E+03  0.79276658851E+02 0.  0.
         23    2    1    2    0    0  0.92118373125E+02  0.10969332204E+03  0.19764744358E+03  0.26338367903E+03  0.98934477606E+02 0.  0.
        -11    1    3    3    0    0 -0.38187585860E+02  0.78806600298E+02  0.15695127178E+03  0.17972888938E+03  0.00000000000E+00 0.  1.
         12    1    3    3    0    0 -0.16294305483E+02 -0.13005027843E+02  0.81960090615E+01  0.22401109457E+02  0.00000000000E+00 0. -1.
        -13    1    4    4    0    0 -0.58117397401E+01  0.60361512463E+02  0.45372093771E+02  0.75735826389E+02  0.00000000000E+00 0.  1.
         13    1    4    4    0    0  0.97930112865E+02  0.49331809577E+02  0.15227534981E+03  0.18764785264E+03  0.00000000000E+00 0. -1.
         21    1    1    2  503  501 -0.21317386564E+02 -0.17338535446E+01 -0.44172679438E+02  0.49078129821E+02  0.00000000000E+00 0. -1.
          1    1    1    2  501    0 -0.16319095218E+02 -0.17376104095E+03 -0.57606302533E+02  0.18378710051E+03  0.00000000000E+00 0. -1.
<scales pt_clust_5="13000.00000" pt_clust_6="13000.00000" pt_clust_7="13000.00000" pt_clust_8="13000.00000" pt_clust_9="21.38778" pt_clust_10="165.90414"></scales>
<clustering>
<clus scale="   21.388">  2  9  1 -1</clus>
<clus scale="   79.277">  5  6 -1 -1</clus>
<clus scale="   98.934">  7  8 -1 -1</clus>
<clus scale="  117.530">  1  5  2 -1</clus>
<clus scale="  165.904">  2 10  1 -1</clus>
<clus scale="   21.388">  2  5  1 -1</clus>
</clustering>
</event>
<event>
10    4  0.7204077E-005  0.2597753E+03  0.7546771E-02  0.1108099E+00
         21   -1    0    0  501  502  0.00000000000E+00  0.00000000000E+00  0.14420276629E+03  0.14420276629E+03  0.00000000000E+00 0.  1.
          2   -1    0    0  503    0 -0.00000000000E+00 -0.00000000000E+00 -0.18694807904E+04  0.18694807904E+04  0.00000000000E+00 0. -1.
         24    2    1    2    0    0  0.20113734128E+03  0.17675064212E+03 -0.10602296904E+04  0.10963872956E+04  0.79253302621E+02 0.  0.
         23    2    1    2    0    0 -0.19111965750E+03 -0.99253033424E+02 -0.64312508908E+03  0.68486826601E+03  0.95167081816E+02 0.  0.
        -13    1    3    3    0    0  0.18518976469E+03  0.17713647029E+03 -0.10370828287E+04  0.10682758874E+04  0.00000000000E+00 0.  1.
         14    1    3    3    0    0  0.15947576591E+02 -0.38582817125E+00 -0.23146861658E+02  0.28111408131E+02  0.00000000000E+00 0. -1.
        -13    1    4    4    0    0 -0.10132438063E+03 -0.96205453672E+02 -0.31367162408E+03  0.34338317836E+03  0.00000000000E+00 0.  1.
         13    1    4    4    0    0 -0.89795276868E+02 -0.30475797518E+01 -0.32945346500E+03  0.34148508765E+03  0.00000000000E+00 0. -1.
         21    1    1    2  503  502 -0.75255474659E+01 -0.45932283937E+02  0.97948431762E+02  0.10844493468E+03  0.00000000000E+00 0.  1.
          1    1    1    2  501    0 -0.24921363168E+01 -0.31565324760E+02 -0.11987167647E+03  0.12398306049E+03  0.00000000000E+00 0. -1.
<scales pt_clust_5="13000.00000" pt_clust_6="13000.00000" pt_clust_7="13000.00000" pt_clust_8="13000.00000" pt_clust_9="69.47819" pt_clust_10="31.66357"></scales>
<clustering>
<clus scale="   31.664">  1 10  2 -1</clus>
<clus scale="   69.478">  1  9  2 -1</clus>
<clus scale="   79.253">  5  6 -1 -1</clus>
<clus scale="   95.167">  7  8 -1 -1</clus>
<clus scale="  254.377">  2  5  1 -1</clus>
<clus scale="   31.664">  1  5  2 -1</clus>
</clustering>
</event>
<event>
10    4  0.7204077E-005  0.1921830E+03  0.7546771E-02  0.1177795E+00
         21   -1    0    0  501  502  0.00000000000E+00  0.00000000000E+00  0.18677357321E+03  0.18677357321E+03  0.00000000000E+00 0.  1.
          2   -1    0    0  503    0 -0.00000000000E+00 -0.00000000000E+00 -0.18290764657E+04  0.18290764657E+04  0.00000000000E+00 0. -1.
         24    2    1    2    0    0 -0.89889958289E+02  0.12352329708E+02 -0.45668917577E+03  0.47246109464E+03  0.80135497952E+02 0.  0.
         23    2    1    2    0    0  0.18679611266E+03  0.72278853449E+02 -0.81095160555E+03  0.84048317838E+03  0.93018526314E+02 0.  0.
        -11    1    3    3    0    0 -0.10129032333E+03  0.24585702863E+02 -0.38656177125E+03  0.40036756784E+03  0.00000000000E+00 0.  1.
         12    1    3    3    0    0  0.11400365040E+02 -0.12233373155E+02 -0.70127404512E+02  0.72093526793E+02  0.00000000000E+00 0. -1.
        -13    1    4    4    0    0  0.91390956917E+01  0.22278651538E+02 -0.32478077351E+02  0.40431261331E+02  0.00000000000E+00 0.  1.
         13    1    4    4    0    0  0.17765701697E+03  0.50000201911E+02 -0.77847352820E+03  0.80005191705E+03  0.00000000000E+00 0. -1.
         21    1    1    2  503  502  0.22742325149E+02  0.19978998021E+02  0.15086508338E+03  0.15387217779E+03  0.00000000000E+00 0.  1.
          1    1    1    2  501    0 -0.11964847952E+03 -0.10461018118E+03 -0.52552719455E+03  0.54903358811E+03  0.00000000000E+00 0. -1.
<scales pt_clust_5="13000.00000" pt_clust_6="13000.00000" pt_clust_7="13000.00000" pt_clust_8="13000.00000" pt_clust_9="30.27167" pt_clust_10="168.17209"></scales>
<clustering>
<clus scale="   30.272">  1  9  2 -1</clus>
<clus scale="   80.135">  5  6 -1 -1</clus>
<clus scale="   93.019">  7  8 -1 -1</clus>
<clus scale="  117.808">  2  5  1 -1</clus>
<clus scale="  168.172">  1 10  2 -1</clus>
<clus scale="   30.272">  1  5  2 -1</clus>
</clustering>
</event>
<event>
10    4  0.7204077E-005  0.3654247E+03  0.7546771E-02  0.1098998E+00
         21   -1    0    0  501  502  0.00000000000E+00  0.00000000000E+00  0.65852986740E+03  0.65852986740E+03  0.00000000000E+00 0. -1.
          2   -1    0    0  503    0 -0.00000000000E+00 -0.00000000000E+00 -0.35881858303E+03  0.35881858303E+03  0.00000000000E+00 0. -1.
         24    2    1    2    0    0  0.40569605246E+02 -0.71718656885E+02  0.21323518309E+02  0.11679880037E+03  0.79986303327E+02 0.  0.
         23    2    1    2    0    0 -0.23485691178E+03 -0.23676200686E+03  0.24158137875E+03  0.42166152973E+03  0.90680020908E+02 0.  0.
        -11    1    3    3    0    0  0.37731161720E+02 -0.53397813475E+02  0.50235398540E+02  0.82453394807E+02  0.00000000000E+00 0.  1.
         12    1    3    3    0    0  0.28384435258E+01 -0.18320843411E+02 -0.28911880231E+02  0.34345405565E+02  0.00000000000E+00 0. -1.
        -13    1    4    4    0    0 -0.10911388187E+03 -0.57797006519E+02  0.11617484977E+03  0.16953739675E+03  0.00000000000E+00 0.  1.
         13    1    4    4    0    0 -0.12574302991E+03 -0.17896500034E+03  0.12540652898E+03  0.25212413297E+03  0.00000000000E+00 0. -1.
         21    1    1    2  503  502 -0.12440721633E+02 -0.16139628875E+02  0.88282577508E+02  0.90603932952E+02  0.00000000000E+00 0.  1.
          1    1    1    2  501    0  0.20672802817E+03  0.32462029262E+03 -0.51476190193E+02  0.38828418738E+03  0.00000000000E+00 0. -1.
<scales pt_clust_5="13000.00000" pt_clust_6="13000.00000" pt_clust_7="13000.00000" pt_clust_8="13000.00000" pt_clust_9="20.37791" pt_clust_10="353.99498"></scales>
<clustering>
<clus scale="   20.378">  1  9  2 -1</clus>
<clus scale="   79.986">  5  6 -1 -1</clus>
<clus scale="   90.680">  7  8 -1 -1</clus>
<clus scale="  115.550">  2  5  1 -1</clus>
<clus scale="  353.995">  1 10  2 -1</clus>
<clus scale="   20.378">  1  5  2 -1</clus>
</clustering>
</event>
<event>
10    4  0.7204077E-005  0.1481321E+03  0.7546771E-02  0.1205073E+00
         21   -1    0    0  501  502  0.00000000000E+00  0.00000000000E+00  0.11016052834E+03  0.11016052834E+03  0.00000000000E+00 0. -1.
          2   -1    0    0  503    0 -0.00000000000E+00 -0.00000000000E+00 -0.67913814100E+03  0.67913814100E+03  0.00000000000E+00 0. -1.
         23    2    1    2    0    0  0.33271717294E+02  0.87037468531E+02 -0.29974563087E+03  0.32730476978E+03  0.92727778974E+02 0.  0.
         24    2    1    2    0    0 -0.10951329284E+03 -0.12717511662E+03 -0.27081862355E+03  0.32870523504E+03  0.80856249539E+02 0.  0.
        -11    1    4    4    0    0 -0.18918210999E+02 -0.57488806434E+02 -0.44359937200E+02  0.75037761167E+02  0.00000000000E+00 0.  1.
         12    1    4    4    0    0 -0.90595081843E+02 -0.69686310185E+02 -0.22645868635E+03  0.25366747388E+03  0.00000000000E+00 0. -1.
        -11    1    3    3    0    0  0.36978654901E+02 -0.56414643796E+01 -0.66590829516E+02  0.76377913131E+02  0.00000000000E+00 0.  1.
         11    1    3    3    0    0 -0.37069376077E+01  0.92678932911E+02 -0.23315480136E+03  0.25092685665E+03  0.00000000000E+00 0. -1.
         21    1    1    2  503  502  0.28082716337E+02  0.19766700479E+02  0.50907685603E+02  0.61408092775E+02  0.00000000000E+00 0. -1.
          1    1    1    2  501    0  0.48158859211E+02  0.20370947609E+02 -0.49321043851E+02  0.71880571739E+02  0.00000000000E+00 0. -1.
<scales pt_clust_5="13000.00000" pt_clust_6="13000.00000" pt_clust_7="13000.00000" pt_clust_8="13000.00000" pt_clust_9="34.34183" pt_clust_10="59.32027"></scales>
<clustering>
<clus scale="   34.342">  1  9  2 -1</clus>
<clus scale="   59.320">  1 10  2 -1</clus>
<clus scale="   80.856">  5  6 -1 -1</clus>
<clus scale="   92.728">  7  8 -1 -1</clus>
<clus scale="  141.005">  1  5  2 -1</clus>
<clus scale="   34.342">  1  5  2 -1</clus>
</clustering>
</event>
<event>
10    4  0.7204077E-005  0.2077598E+03  0.7546771E-02  0.1146944E+00
         21   -1    0    0  501  502  0.00000000000E+00  0.00000000000E+00  0.23082194402E+03  0.23082194402E+03  0.00000000000E+00 0. -1.
          4   -1    0    0  503    0 -0.00000000000E+00 -0.00000000000E+00 -0.58213716666E+03  0.58213716666E+03  0.00000000000E+00 0. -1.
         23    2    1    2    0    0  0.15801220696E+03  0.45547239142E+02 -0.23288084173E+03  0.29967437720E+03  0.92351704718E+02 0.  0.
         24    2    1    2    0    0 -0.16582936411E+01 -0.18694398950E+03  0.45303135835E+01  0.20489273014E+03  0.83723962969E+02 0.  0.
        -11    1    4    4    0    0 -0.64317913967E+01 -0.26295745012E+02 -0.30102468063E+02  0.40484475170E+02  0.00000000000E+00 0.  1.
         12    1    4    4    0    0  0.47734977556E+01 -0.16064824449E+03  0.34632781646E+02  0.16440825497E+03  0.00000000000E+00 0. -1.
        -11    1    3    3    0    0  0.13741598624E+03  0.44839711323E+02 -0.12890421390E+03  0.19367511287E+03  0.00000000000E+00 0. -1.
         11    1    3    3    0    0  0.20596220726E+02  0.70752781918E+00 -0.10397662783E+03  0.10599926433E+03  0.00000000000E+00 0.  1.
         21    1    1    2  503  502  0.18729687822E+02 -0.13658982434E+02  0.23041858436E+02  0.32684801471E+02  0.00000000000E+00 0.  1.
          3    1    1    2  501    0 -0.17508360114E+03  0.15505573279E+03 -0.14600655293E+03  0.27570720186E+03  0.00000000000E+00 0. -1.
<scales pt_clust_5="13000.00000" pt_clust_6="13000.00000" pt_clust_7="13000.00000" pt_clust_8="13000.00000" pt_clust_9="23.18122" pt_clust_10="190.14324"></scales>
<clustering>
<clus scale="   23.181">  1  9  2 -1</clus>
<clus scale="   83.724">  5  6 -1 -1</clus>
<clus scale="   92.352">  7  8 -1 -1</clus>
<clus scale="  190.670">  2  7  1 -1</clus>
<clus scale="  190.143">  1 10  2 -1</clus>
<clus scale="   23.181">  1  5  2 -1</clus>
</clustering>
</event>
<event>
10    4  0.7204077E-005  0.4093467E+03  0.7546771E-02  0.1091104E+00
         21   -1    0    0  503  502  0.00000000000E+00  0.00000000000E+00  0.29755084697E+03  0.29755084697E+03  0.00000000000E+00 0. -1.
          2   -1    0    0  502    0 -0.00000000000E+00 -0.00000000000E+00 -0.16838029075E+04  0.16838029075E+04  0.00000000000E+00 0. -1.
         24    2    1    2    0    0 -0.35732830659E+02  0.48134417306E+02 -0.14402702770E+03  0.17595736103E+03  0.81384586226E+02 0.  0.
         23    2    1    2    0    0  0.14053763238E+03 -0.39130152480E+03 -0.32226748949E+03  0.53443322048E+03  0.94312368992E+02 0.  0.
        -11    1    3    3    0    0 -0.57527415520E+01  0.24477109777E+02  0.18040108629E+01  0.25208676951E+02  0.00000000000E+00 0.  1.
         12    1    3    3    0    0 -0.29980089107E+02  0.23657307529E+02 -0.14583103856E+03  0.15074868408E+03  0.00000000000E+00 0. -1.
        -13    1    4    4    0    0  0.62384548839E+02 -0.13715514302E+03 -0.17334327641E+03  0.22967641731E+03  0.00000000000E+00 0.  1.
         13    1    4    4    0    0  0.78153083540E+02 -0.25414638177E+03 -0.14892421308E+03  0.30475680317E+03  0.00000000000E+00 0. -1.
         21    1    1    2  503  501  0.28571737891E+03  0.29003729367E+03 -0.20797426709E+03  0.45717540190E+03  0.00000000000E+00 0.  1.
          1    1    1    2  501    0 -0.39052218063E+03  0.53129813816E+02 -0.71198327628E+03  0.81378777109E+03  0.00000000000E+00 0. -1.
<scales pt_clust_5="13000.00000" pt_clust_6="13000.00000" pt_clust_7="13000.00000" pt_clust_8="13000.00000" pt_clust_9="409.34666" pt_clust_10="358.15126"></scales>
<clustering>
<clus scale="   81.385">  5  6 -1 -1</clus>
<clus scale="   94.312">  7  8 -1 -1</clus>
<clus scale="  101.080">  2  5  1 -1</clus>
<clus scale="  409.347">  1  9  2 -1</clus>
<clus scale="  358.151">  1 10  2 -1</clus>
<clus scale="  409.347">  1  5  2 -1</clus>
</clustering>
</event>
<event>
10    4  0.7204077E-005  0.1866892E+03  0.7546771E-02  0.1194395E+00
          2   -1    0    0  503    0 -0.00000000000E+00  0.00000000000E+00  0.67925637994E+03  0.67925637994E+03  0.00000000000E+00 0. -1.
         21   -1    0    0  501  502  0.00000000000E+00 -0.00000000000E+00 -0.46338634792E+03  0.46338634792E+03  0.00000000000E+00 0. -1.
         24    2    1    2    0    0 -0.76476909640E+00 -0.34409491282E+02  0.15901955674E+02  0.89087097933E+02  0.80616628941E+02 0.  0.
         23    2    1    2    0    0 -0.83743609306E+01 -0.11724524683E+03  0.58643076777E+03  0.60731518517E+03  0.10542348375E+03 0.  0.
        -13    1    3    3    0    0 -0.17914465953E+02  0.20110695596E+02  0.17132378161E+02  0.31920002336E+02  0.00000000000E+00 0.  1.
         14    1    3    3    0    0  0.17149696856E+02 -0.54520186878E+02 -0.12304224870E+01  0.57167095596E+02  0.00000000000E+00 0. -1.
        -13    1    4    4    0    0  0.28649969591E+02  0.41375426672E+01  0.15185305408E+03  0.15458748348E+03  0.00000000000E+00 0.  1.
         13    1    4    4    0    0 -0.37024330522E+02 -0.12138278950E+03  0.43457771369E+03  0.45272770169E+03  0.00000000000E+00 0. -1.
         21    1    1    2  503  502  0.20702004542E+02 -0.26233876528E+02 -0.12781798856E+03  0.13211444837E+03  0.00000000000E+00 0. -1.
          1    1    1    2  501    0 -0.11562874515E+02  0.17788861464E+03 -0.25864470287E+03  0.31412599639E+03  0.00000000000E+00 0. -1.
<scales pt_clust_5="13000.00000" pt_clust_6="13000.00000" pt_clust_7="13000.00000" pt_clust_8="13000.00000" pt_clust_9="33.41840" pt_clust_10="154.07381"></scales>
<clustering>
<clus scale="   33.418">  2  9  1 -1</clus>
<clus scale="   80.617">  5  6 -1 -1</clus>
<clus scale="   88.836">  1  5  2 -1</clus>
<clus scale="  105.423">  7  8 -1 -1</clus>
<clus scale="  154.074">  2 10  1 -1</clus>
<clus scale="   33.418">  2  5  1 -1</clus>
</clustering>
</event>
<event>
10    4  0.7204077E-005  0.2962487E+03  0.7546771E-02  0.1111743E+00
          2   -1    0    0  502    0 -0.00000000000E+00  0.00000000000E+00  0.10587977501E+04  0.10587977501E+04  0.00000000000E+00 0. -1.
         21   -1    0    0  503  502  0.00000000000E+00 -0.00000000000E+00 -0.22826005669E+03  0.22826005669E+03  0.00000000000E+00 0.  1.
         24    2    1    2    0    0  0.70105865629E+02 -0.12113743062E+03  0.56711798226E+02  0.17117541001E+03  0.80595802866E+02 0.  0.
         23    2    1    2    0    0 -0.28359030476E+03  0.51378527184E+02  0.33930713664E+02  0.30385851013E+03  0.90085996915E+02 0.  0.
        -11    1    3    3    0    0  0.52289661643E+02 -0.12241745231E+03  0.25978860430E+02  0.13562869362E+03  0.00000000000E+00 0.  1.
         12    1    3    3    0    0  0.17816203986E+02  0.12800216888E+01  0.30732937796E+02  0.35546716383E+02  0.00000000000E+00 0. -1.
        -11    1    4    4    0    0 -0.10112788561E+03  0.62376709145E+02  0.20487031133E+02  0.12057123014E+03  0.00000000000E+00 0. -1.
         11    1    4    4    0    0 -0.18246241915E+03 -0.10998181960E+02  0.13443682531E+02  0.18328728000E+03  0.00000000000E+00 0.  1.
         21    1    1    2  503  501 -0.13496269545E+02  0.17737428112E+02 -0.11705944162E+02  0.25175281059E+02  0.00000000000E+00 0.  1.
          1    1    1    2  501    0  0.22698070868E+03  0.52021475324E+02  0.75160112564E+03  0.78684860556E+03  0.00000000000E+00 0. -1.
<scales pt_clust_5="13000.00000" pt_clust_6="13000.00000" pt_clust_7="13000.00000" pt_clust_8="13000.00000" pt_clust_9="22.28824" pt_clust_10="282.21961"></scales>
<clustering>
<clus scale="   22.288">  2  9  1 -1</clus>
<clus scale="   80.596">  5  6 -1 -1</clus>
<clus scale="   90.086">  7  8 -1 -1</clus>
<clus scale="  156.312">  1  5  2 -1</clus>
<clus scale="  282.220">  2 10  1 -1</clus>
<clus scale="   22.288">  2  5  1 -1</clus>
</clustering>
</event>
<event>
10    4  0.7204077E-005  0.1417134E+03  0.7546771E-02  0.1215382E+00
         -1   -1    0    0    0  501 -0.00000000000E+00  0.00000000000E+00  0.87796271681E+03  0.87796271681E+03  0.00000000000E+00 0.  1.
         21   -1    0    0  501  502  0.00000000000E+00 -0.00000000000E+00 -0.16883790127E+03  0.16883790127E+03  0.00000000000E+00 0. -1.
         23    2    1    2    0    0 -0.29337786221E+02  0.10417501552E+03  0.16289402552E+03  0.21883000153E+03  0.98178238222E+02 0.  0.
         24    2    1    2    0    0 -0.10659644280E+03 -0.94400802555E+02  0.64064670794E+02  0.17503292784E+03  0.79107083397E+02 0.  0.
        -11    1    4    4    0    0 -0.35394051108E+02 -0.20905346275E+02  0.59861958445E+02  0.72616984416E+02  0.00000000000E+00 0.  1.
         12    1    4    4    0    0 -0.71202391689E+02 -0.73495456280E+02  0.42027123485E+01  0.10241594342E+03  0.00000000000E+00 0. -1.
        -11    1    3    3    0    0 -0.31394945120E+01  0.46080555166E+02  0.25179614193E+01  0.46255963074E+02  0.00000000000E+00 0.  1.
         11    1    3    3    0    0 -0.26198291709E+02  0.58094460350E+02  0.16037606410E+03  0.17257403845E+03  0.00000000000E+00 0. -1.
         21    1    1    2  503  502  0.28123712609E+02 -0.15579229462E+02 -0.77000545169E+02  0.83443031812E+02  0.00000000000E+00 0. -1.
         -2    1    1    2    0  503  0.10781051641E+03  0.58050165014E+01  0.55916666439E+03  0.56949465690E+03  0.00000000000E+00 0.  1.
<scales pt_clust_5="13000.00000" pt_clust_6="13000.00000" pt_clust_7="13000.00000" pt_clust_8="13000.00000" pt_clust_9="32.15051" pt_clust_10="109.55895"></scales>
<clustering>
<clus scale="   32.151">  2  9  1 -1</clus>
<clus scale="   79.107">  5  6 -1 -1</clus>
<clus scale="   98.178">  7  8 -1 -1</clus>
<clus scale="  109.559">  2 10  1 -1</clus>
<clus scale="  129.235">  2  5  1 -1</clus>
<clus scale="   32.151">  2  5  1 -1</clus>
</clustering>
</event>
<event>
10    4  0.7204077E-005  0.1370799E+03  0.7546771E-02  0.1240158E+00
         21   -1    0    0  501  502  0.00000000000E+00  0.00000000000E+00  0.16976680715E+03  0.16976680715E+03  0.00000000000E+00 0.  1.
          2   -1    0    0  503    0 -0.00000000000E+00 -0.00000000000E+00 -0.62702038854E+03  0.62702038854E+03  0.00000000000E+00 0. -1.
         24    2    1    2    0    0 -0.32595599827E+02  0.16701422310E+01 -0.10983089824E+03  0.13958911910E+03  0.79731006880E+02 0.  0.
         23    2    1    2    0    0 -0.76192633338E+02 -0.30150276124E+02 -0.36394628680E+03  0.38455106906E+03  0.93318103917E+02 0.  0.
        -11    1    3    3    0    0 -0.47954089421E+02 -0.16783861235E+02 -0.10264015934E+03  0.11452639433E+03  0.00000000000E+00 0.  1.
         12    1    3    3    0    0  0.15358489594E+02  0.18454003466E+02 -0.71907389049E+01  0.25062724763E+02  0.00000000000E+00 0. -1.
        -13    1    4    4    0    0 -0.10431435576E+02  0.23673144943E+02 -0.28421056618E+02  0.38431615877E+02  0.00000000000E+00 0.  1.
         13    1    4    4    0    0 -0.65761197763E+02 -0.53823421067E+02 -0.33552523018E+03  0.34611945319E+03  0.00000000000E+00 0. -1.
         21    1    1    2  503  502  0.82990068121E+02 -0.10169896182E+02  0.12742300783E+03  0.15240538416E+03  0.00000000000E+00 0.  1.
          1    1    1    2  501    0  0.25798165044E+02  0.38650030075E+02 -0.11089940418E+03  0.12024162337E+03  0.00000000000E+00 0. -1.
<scales pt_clust_5="13000.00000" pt_clust_6="13000.00000" pt_clust_7="13000.00000" pt_clust_8="13000.00000" pt_clust_9="100.41228" pt_clust_10="46.46905"></scales>
<clustering>
<clus scale="   46.469">  1 10  2 -1</clus>
<clus scale="   79.731">  5  6 -1 -1</clus>
<clus scale="   85.439">  2  5  1 -1</clus>
<clus scale="   93.318">  7  8 -1 -1</clus>
<clus scale="  100.412">  1  9  2 -1</clus>
<clus scale="   46.469">  1  5  2 -1</clus>
</clustering>
</event>
<event>
10    4  0.7204077E-005  0.2416187E+03  0.7546771E-02  0.1147166E+00
          2   -1    0    0  502    0 -0.00000000000E+00  0.00000000000E+00  0.16142236660E+04  0.16142236660E+04  0.00000000000E+00 0. -1.
         21   -1    0    0  503  502  0.00000000000E+00 -0.00000000000E+00 -0.28385417280E+03  0.28385417280E+03  0.00000000000E+00 0.  1.
         23    2    1    2    0    0 -0.79175791832E+02  0.50859794807E+02 -0.21359510106E+03  0.25099603161E+03  0.92307182538E+02 0.  0.
         24    2    1    2    0    0  0.10957356889E+03 -0.23399924047E+03  0.99961108682E+03  0.10355506053E+04  0.79879407184E+02 0.  0.
        -13    1    4    4    0    0  0.51944969959E+02 -0.83598413264E+02  0.53069240578E+03  0.53974197924E+03  0.00000000000E+00 0.  1.
         14    1    4    4    0    0  0.57628598933E+02 -0.15040082721E+03  0.46891868105E+03  0.49580862606E+03  0.00000000000E+00 0. -1.
        -11    1    3    3    0    0 -0.37650152057E+01  0.45895460054E+02 -0.13189194440E+03  0.13969986969E+03  0.00000000000E+00 0.  1.
         11    1    3    3    0    0 -0.75410776626E+02  0.49643347527E+01 -0.81703156657E+02  0.11129616192E+03  0.00000000000E+00 0. -1.
         21    1    1    2  503  501  0.68448213019E+01 -0.29728243193E+02  0.55503666664E+01  0.31006879755E+02  0.00000000000E+00 0. -1.
          1    1    1    2  501    0 -0.37242598363E+02  0.21286768886E+03  0.53880314078E+03  0.58052432214E+03  0.00000000000E+00 0. -1.
<scales pt_clust_5="13000.00000" pt_clust_6="13000.00000" pt_clust_7="13000.00000" pt_clust_8="13000.00000" pt_clust_9="30.50607" pt_clust_10="228.03262"></scales>
<clustering>
<clus scale="   30.506">  2  9  1 -1</clus>
<clus scale="   79.879">  5  6 -1 -1</clus>
<clus scale="   92.307">  7  8 -1 -1</clus>
<clus scale="  120.581">  1  7  2 -1</clus>
<clus scale="  228.033">  2 10  1 -1</clus>
<clus scale="   30.506">  2  5  1 -1</clus>
</clustering>
</event>
<event>
10    4  0.7204077E-005  0.3186147E+03  0.7546771E-02  0.1110470E+00
          2   -1    0    0  502    0 -0.00000000000E+00  0.00000000000E+00  0.10081917215E+04  0.10081917215E+04  0.00000000000E+00 0. -1.
         21   -1    0    0  503  502  0.00000000000E+00 -0.00000000000E+00 -0.22533920211E+03  0.22533920211E+03  0.00000000000E+00 0.  1.
         24    2    1    2    0    0  0.30843312892E+01 -0.10652892798E+03  0.14520256784E+02  0.13415034924E+03  0.80172019742E+02 0.  0.
         23    2    1    2    0    0 -0.20878254907E+03 -0.15597289495E+03  0.17035588714E+03  0.32454057440E+03  0.91584711558E+02 0.  0.
        -11    1    3    3    0    0  0.51951420046E+01 -0.87225628886E+02 -0.24341423744E+02  0.90707247477E+02  0.00000000000E+00 0.  1.
         12    1    3    3    0    0 -0.21108107155E+01 -0.19303299092E+02  0.38861680527E+02  0.43443101767E+02  0.00000000000E+00 0. -1.
        -11    1    4    4    0    0 -0.21178509811E+03 -0.12713419355E+03  0.14832385739E+03  0.28812496876E+03  0.00000000000E+00 0.  1.
         11    1    4    4    0    0  0.30025490385E+01 -0.28838701398E+02  0.22032029754E+02  0.36415605640E+02  0.00000000000E+00 0. -1.
         21    1    1    2  503  501 -0.74583867852E+02  0.20750824539E+02  0.72808199617E+01  0.77758346190E+02  0.00000000000E+00 0.  1.
          1    1    1    2  501    0  0.28028208564E+03  0.24175099839E+03  0.59069555553E+03  0.69708165381E+03  0.00000000000E+00 0. -1.
<scales pt_clust_5="13000.00000" pt_clust_6="13000.00000" pt_clust_7="13000.00000" pt_clust_8="13000.00000" pt_clust_9="77.41673" pt_clust_10="305.16828"></scales>
<clustering>
<clus scale="   77.417">  2  9  1 -1</clus>
<clus scale="   80.172">  5  6 -1 -1</clus>
<clus scale="   91.585">  7  8 -1 -1</clus>
<clus scale="  129.781">  1  5  2 -1</clus>
<clus scale="  305.168">  2 10  1 -1</clus>
<clus scale="   77.417">  2  5  1 -1</clus>
</clustering>
</event>
<event>
10    4  0.7204077E-005  0.3176879E+03  0.7546771E-02  0.1100470E+00
         21   -1    0    0  503  502  0.00000000000E+00  0.00000000000E+00  0.27299235524E+03  0.27299235524E+03  0.00000000000E+00 0. -1.
          2   -1    0    0  502    0 -0.00000000000E+00 -0.00000000000E+00 -0.10071335318E+04  0.10071335318E+04  0.00000000000E+00 0. -1.
         23    2    1    2    0    0 -0.87710761062E+02 -0.99314602987E+02 -0.11767466331E+02  0.16065973679E+03  0.90091674369E+02 0.  0.
         24    2    1    2    0    0  0.13442301933E+03  0.38179608177E+03 -0.54658128140E+03  0.68475244171E+03  0.79353721152E+02 0.  0.
        -11    1    4    4    0    0  0.45715592326E+02  0.88445666839E+02 -0.86197058594E+02  0.13169086633E+03  0.00000000000E+00 0.  1.
         12    1    4    4    0    0  0.88707427003E+02  0.29335041493E+03 -0.46038422281E+03  0.55306157538E+03  0.00000000000E+00 0. -1.
        -11    1    3    3    0    0 -0.33650927677E+02  0.98141970344E+01 -0.16587519055E+02  0.38779494393E+02  0.00000000000E+00 0. -1.
         11    1    3    3    0    0 -0.54059833385E+02 -0.10912880002E+03  0.48200527238E+01  0.12188024240E+03  0.00000000000E+00 0.  1.
         21    1    1    2  503  501 -0.46562359289E+01 -0.33288881451E+02  0.72823305884E+02  0.80206384043E+02  0.00000000000E+00 0. -1.
          1    1    1    2  501    0 -0.42056022339E+02 -0.24919259733E+03 -0.24861573472E+03  0.35450732451E+03  0.00000000000E+00 0. -1.
<scales pt_clust_5="13000.00000" pt_clust_6="13000.00000" pt_clust_7="13000.00000" pt_clust_8="13000.00000" pt_clust_9="33.61295" pt_clust_10="307.61761"></scales>
<clustering>
<clus scale="   33.613">  1  9  2 -1</clus>
<clus scale="   79.354">  5  6 -1 -1</clus>
<clus scale="   90.092">  7  8 -1 -1</clus>
<clus scale="  169.264">  2  7  1 -1</clus>
<clus scale="  307.618">  1 10  2 -1</clus>
<clus scale="   33.613">  1  5  2 -1</clus>
</clustering>
</event>
<event>
10    4  0.7204077E-005  0.2574170E+03  0.7546771E-02  0.1131393E+00
          2   -1    0    0  502    0 -0.00000000000E+00  0.00000000000E+00  0.15925675128E+04  0.15925675128E+04  0.00000000000E+00 0. -1.
         21   -1    0    0  503  502  0.00000000000E+00 -0.00000000000E+00 -0.30971203942E+03  0.30971203942E+03  0.00000000000E+00 0.  1.
         24    2    1    2    0    0  0.11738797312E+03 -0.15299740063E+02  0.23028603333E+03  0.27479782150E+03  0.92022645459E+02 0.  0.
         23    2    1    2    0    0  0.19145901955E+03  0.16550516437E+03  0.13646461284E+03  0.30150269976E+03  0.90734622966E+02 0.  0.
        -13    1    3    3    0    0  0.12334211468E+03 -0.30245049016E+02  0.16877625062E+03  0.21121899303E+03  0.00000000000E+00 0.  1.
         14    1    3    3    0    0 -0.59541415552E+01  0.14945308953E+02  0.61509782707E+02  0.63578828473E+02  0.00000000000E+00 0. -1.
        -13    1    4    4    0    0  0.15068621044E+03  0.17073535289E+03  0.11414498643E+03  0.25472725153E+03  0.00000000000E+00 0.  1.
         13    1    4    4    0    0  0.40772809109E+02 -0.52301885156E+01  0.22319626404E+02  0.46775448233E+02  0.00000000000E+00 0. -1.
         21    1    1    2  503  501 -0.31473729107E+02 -0.15989287479E+02 -0.18203478636E+03  0.18542630985E+03  0.00000000000E+00 0.  1.
          1    1    1    2  501    0 -0.27737326357E+03 -0.13421613683E+03  0.10981396136E+04  0.11405527211E+04  0.00000000000E+00 0. -1.
<scales pt_clust_5="13000.00000" pt_clust_6="13000.00000" pt_clust_7="13000.00000" pt_clust_8="13000.00000" pt_clust_9="35.30231" pt_clust_10="240.89582"></scales>
<clustering>
<clus scale="   35.302">  2  9  1 -1</clus>
<clus scale="   90.735">  7  8 -1 -1</clus>
<clus scale="   92.023">  5  6 -1 -1</clus>
<clus scale="  145.953">  1  5  2 -1</clus>
<clus scale="  240.896">  2 10  1 -1</clus>
<clus scale="   35.302">  2  5  1 -1</clus>
</clustering>
</event>
<event>
10    4  0.7204077E-005  0.1167979E+03  0.7546771E-02  0.1265042E+00
         21   -1    0    0  501  502  0.00000000000E+00  0.00000000000E+00  0.19209567326E+03  0.19209567326E+03  0.00000000000E+00 0. -1.
          2   -1    0    0  503    0 -0.00000000000E+00 -0.00000000000E+00 -0.50355836171E+03  0.50355836171E+03  0.00000000000E+00 0. -1.
         24    2    1    2    0    0  0.30490809969E+02 -0.95355597093E+01 -0.38649119659E+03  0.39553860716E+03  0.77812134754E+02 0.  0.
         23    2    1    2    0    0  0.25232154751E+02 -0.38829239693E+02  0.11773372050E+03  0.15660766600E+03  0.92305799486E+02 0.  0.
        -11    1    3    3    0    0  0.23541141792E+02 -0.41498099821E+02 -0.28324061017E+03  0.28723077986E+03  0.00000000000E+00 0.  1.
         12    1    3    3    0    0  0.69496681764E+01  0.31962540112E+02 -0.10325058642E+03  0.10830782730E+03  0.00000000000E+00 0. -1.
        -13    1    4    4    0    0  0.22752253065E+02 -0.66118047731E+02  0.10557317771E+03  0.12662921112E+03  0.00000000000E+00 0. -1.
         13    1    4    4    0    0  0.24799016863E+01  0.27288808038E+02  0.12160542790E+02  0.29978454887E+02  0.00000000000E+00 0.  1.
         21    1    1    2  503  502 -0.95728892689E+00 -0.26756308394E+02  0.18195439784E+02  0.32371136370E+02  0.00000000000E+00 0. -1.
          1    1    1    2  501    0 -0.54765675793E+02  0.75121107797E+02 -0.60900652143E+02  0.11113662544E+03  0.00000000000E+00 0. -1.
<scales pt_clust_5="13000.00000" pt_clust_6="13000.00000" pt_clust_7="13000.00000" pt_clust_8="13000.00000" pt_clust_9="26.77343" pt_clust_10="71.56387"></scales>
<clustering>
<clus scale="   26.773">  1  9  2 -1</clus>
<clus scale="   77.812">  5  6 -1 -1</clus>
<clus scale="   84.191">  2  5  1 -1</clus>
<clus scale="   71.564">  1 10  2 -1</clus>
<clus scale="   92.306">  7  8 -1 -1</clus>
<clus scale="   26.773">  1  5  2 -1</clus>
</clustering>
</event>
<event>
10    4  0.7204077E-005  0.3034399E+03  0.7546771E-02  0.1128234E+00
         21   -1    0    0  503  502  0.00000000000E+00  0.00000000000E+00  0.23846379902E+03  0.23846379902E+03  0.00000000000E+00 0.  1.
          2   -1    0    0  502    0 -0.00000000000E+00 -0.00000000000E+00 -0.10145926864E+04  0.10145926864E+04  0.00000000000E+00 0. -1.
         24    2    1    2    0    0 -0.55778110950E+02 -0.50093803672E+01 -0.25362810128E+03  0.27171584107E+03  0.79787173011E+02 0.  0.
         23    2    1    2    0    0  0.16253655811E+03 -0.25262550086E+03 -0.32320177340E+03  0.45048355154E+03  0.90764902197E+02 0.  0.
        -11    1    3    3    0    0 -0.49199632681E+02 -0.35201262116E+02 -0.20792623712E+03  0.21654803807E+03  0.00000000000E+00 0.  1.
         12    1    3    3    0    0 -0.65784782691E+01  0.30191881749E+02 -0.45701864160E+02  0.55167802997E+02  0.00000000000E+00 0. -1.
        -11    1    4    4    0    0  0.11856192463E+03 -0.21435480027E+03 -0.30105527753E+03  0.38812264878E+03  0.00000000000E+00 0.  1.
         11    1    4    4    0    0  0.43974633477E+02 -0.38270700592E+02 -0.22146495875E+02  0.62360902758E+02  0.00000000000E+00 0. -1.
         21    1    1    2  503  501  0.28280317038E+02  0.12598971280E+02  0.10971676502E+03  0.11400122340E+03  0.00000000000E+00 0.  1.
          1    1    1    2  501    0 -0.13503876419E+03  0.24503590995E+03 -0.30901577775E+03  0.41685586945E+03  0.00000000000E+00 0. -1.
<scales pt_clust_5="13000.00000" pt_clust_6="13000.00000" pt_clust_7="13000.00000" pt_clust_8="13000.00000" pt_clust_9="30.95982" pt_clust_10="289.54709"></scales>
<clustering>
<clus scale="   30.960">  1  9  2 -1</clus>
<clus scale="   79.787">  5  6 -1 -1</clus>
<clus scale="   90.765">  7  8 -1 -1</clus>
<clus scale="   96.295">  2  5  1 -1</clus>
<clus scale="  289.547">  1 10  2 -1</clus>
<clus scale="   30.960">  1  5  2 -1</clus>
</clustering>
</event>
<event>
10    4  0.7204077E-005  0.1711498E+03  0.7546771E-02  0.1178323E+00
         21   -1    0    0  501  502  0.00000000000E+00  0.00000000000E+00  0.49863155612E+02  0.49863155612E+02  0.00000000000E+00 0. -1.
          2   -1    0    0  503    0 -0.00000000000E+00 -0.00000000000E+00 -0.14827894608E+04  0.14827894608E+04  0.00000000000E+00 0. -1.
         24    2    1    2    0    0 -0.12517216169E+03  0.49220386035E+02 -0.66249133309E+03  0.68068223503E+03  0.79641837070E+02 0.  0.
         23    2    1    2    0    0  0.17946766769E+03 -0.11144740337E+03 -0.40077808638E+03  0.46230015883E+03  0.92028228682E+02 0.  0.
        -13    1    3    3    0    0 -0.12643030458E+03  0.24683363568E+02 -0.49918919667E+03  0.51554218491E+03  0.00000000000E+00 0.  1.
         14    1    3    3    0    0  0.12581428950E+01  0.24537022467E+02 -0.16330213642E+03  0.16514005012E+03  0.00000000000E+00 0. -1.
        -11    1    4    4    0    0  0.93379563142E+02 -0.14951305219E+02 -0.11695263224E+03  0.15040346582E+03  0.00000000000E+00 0.  1.
         11    1    4    4    0    0  0.86088104549E+02 -0.96496098149E+02 -0.28382545413E+03  0.31189669302E+03  0.00000000000E+00 0. -1.
         21    1    1    2  503  502  0.19110262563E+02 -0.88279443773E+01 -0.67903208817E+02  0.71091353235E+02  0.00000000000E+00 0.  1.
          1    1    1    2  501    0 -0.73405768564E+02  0.71054961711E+02 -0.30175367690E+03  0.31857886930E+03  0.00000000000E+00 0. -1.
<scales pt_clust_5="13000.00000" pt_clust_6="13000.00000" pt_clust_7="13000.00000" pt_clust_8="13000.00000" pt_clust_9="21.05077" pt_clust_10="97.81366"></scales>
<clustering>
<clus scale="   21.051">  2  9  1 -1</clus>
<clus scale="   79.642">  5  6 -1 -1</clus>
<clus scale="   92.028">  7  8 -1 -1</clus>
<clus scale="   97.814">  1 10  2 -1</clus>
<clus scale="  164.821">  2  5  1 -1</clus>
<clus scale="   97.814">  1  5  2 -1</clus>
</clustering>
</event>
<event>
10    4  0.7204077E-005  0.1935847E+03  0.7546771E-02  0.1188767E+00
         21   -1    0    0  501  502  0.00000000000E+00  0.00000000000E+00  0.12805957629E+03  0.12805957629E+03  0.00000000000E+00 0.  1.
          2   -1    0    0  503    0 -0.00000000000E+00 -0.00000000000E+00 -0.16082408758E+04  0.16082408758E+04  0.00000000000E+00 0. -1.
         24    2    1    2    0    0  0.12606698512E+02  0.45371661453E+02 -0.51188291778E+03  0.51996534144E+03  0.78245244374E+02 0.  0.
         23    2    1    2    0    0 -0.16735808809E+03 -0.43932297998E+01 -0.16849307225E+03  0.25428512555E+03  0.90790856146E+02 0.  0.
        -13    1    3    3    0    0  0.45229278021E+02  0.33036307213E+02 -0.29019519656E+03  0.29555090474E+03  0.00000000000E+00 0.  1.
         14    1    3    3    0    0 -0.32622579509E+02  0.12335354239E+02 -0.22168772123E+03  0.22441443670E+03  0.00000000000E+00 0. -1.
        -11    1    4    4    0    0 -0.11759439431E+03 -0.66557858609E+01 -0.16711510280E+03  0.20445096880E+03  0.00000000000E+00 0. -1.
         11    1    4    4    0    0 -0.49763693784E+02  0.22625560610E+01 -0.13779694486E+01  0.49834156748E+02  0.00000000000E+00 0.  1.
         21    1    1    2  503  502 -0.65455459125E+01 -0.29224294980E+02  0.70630586679E+02  0.76717555768E+02  0.00000000000E+00 0.  1.
          1    1    1    2  501    0  0.16129693549E+03 -0.11754136673E+02 -0.87043589612E+03  0.88533242930E+03  0.00000000000E+00 0. -1.
<scales pt_clust_5="13000.00000" pt_clust_6="13000.00000" pt_clust_7="13000.00000" pt_clust_8="13000.00000" pt_clust_9="29.94835" pt_clust_10="170.97398"></scales>
<clustering>
<clus scale="   29.948">  1  9  2 -1</clus>
<clus scale="   78.245">  5  6 -1 -1</clus>
<clus scale="   90.197">  2  5  1 -1</clus>
<clus scale="   90.791">  7  8 -1 -1</clus>
<clus scale="  170.974">  1 10  2 -1</clus>
<clus scale="   29.948">  1  5  2 -1</clus>
</clustering>
</event>
<event>
10    4  0.7204077E-005  0.1118020E+03  0.7546771E-02  0.1260638E+00
          2   -1    0    0  503    0 -0.00000000000E+00  0.00000000000E+00  0.11030219710E+04  0.11030219710E+04  0.00000000000E+00 0. -1.
         21   -1    0    0  501  502  0.00000000000E+00 -0.00000000000E+00 -0.12543722478E+03  0.12543722478E+03  0.00000000000E+00 0. -1.
         23    2    1    2    0    0 -0.99171903888E+02  0.12438616346E+02  0.36028561891E+03  0.38355262914E+03  0.85540086685E+02 0.  0.
         24    2    1    2    0    0 -0.29337997135E+02 -0.87635591777E+02  0.85203282816E+02  0.14684836169E+03  0.75921847369E+02 0.  0.
        -11    1    4    4    0    0 -0.17131093066E+02 -0.24855265272E+02  0.76578241762E+02  0.82313338365E+02  0.00000000000E+00 0.  1.
         12    1    4    4    0    0 -0.12206904068E+02 -0.62780326505E+02  0.86250410537E+01  0.64535023330E+02  0.00000000000E+00 0. -1.
        -13    1    3    3    0    0 -0.16757507010E+02  0.41031006972E+02  0.12216839224E+03  0.12995950768E+03  0.00000000000E+00 0.  1.
         13    1    3    3    0    0 -0.82414396878E+02 -0.28592390626E+02  0.23811722667E+03  0.25359312146E+03  0.00000000000E+00 0. -1.
         21    1    1    2  503  502  0.51481435429E+02 -0.10374740117E+02 -0.68619158029E+02  0.86409271927E+02  0.00000000000E+00 0. -1.
          1    1    1    2  501    0  0.77028465593E+02  0.85571715548E+02  0.60071500252E+03  0.61164893302E+03  0.00000000000E+00 0. -1.
<scales pt_clust_5="13000.00000" pt_clust_6="13000.00000" pt_clust_7="13000.00000" pt_clust_8="13000.00000" pt_clust_9="52.51641" pt_clust_10="118.29631"></scales>
<clustering>
<clus scale="   52.516">  2  9  1 -1</clus>
<clus scale="   75.922">  5  6 -1 -1</clus>
<clus scale="   85.540">  7  8 -1 -1</clus>
<clus scale="  118.296">  2 10  1 -1</clus>
<clus scale="  104.626">  2  5  1 -1</clus>
<clus scale="   52.516">  2  5  1 -1</clus>
</clustering>
</event>
<event>
10    4  0.7204077E-005  0.1685947E+03  0.7546771E-02  0.1193404E+00
          2   -1    0    0  502    0 -0.00000000000E+00  0.00000000000E+00  0.94269478019E+03  0.94269478019E+03  0.00000000000E+00 0. -1.
         21   -1    0    0  503  502  0.00000000000E+00 -0.00000000000E+00 -0.14918687171E+03  0.14918687171E+03  0.00000000000E+00 0. -1.
         24    2    1    2    0    0  0.57529598967E+02  0.76459231969E+02  0.60662956225E+03  0.61954458802E+03  0.81733725236E+02 0.  0.
         23    2    1    2    0    0  0.95311020574E+02 -0.83593421858E+02  0.80386625448E+02  0.17481249035E+03  0.89584297799E+02 0.  0.
        -11    1    3    3    0    0  0.32049215975E+02  0.89120726098E+02  0.40554222835E+03  0.41645426525E+03  0.00000000000E+00 0.  1.
         12    1    3    3    0    0  0.25480382993E+02 -0.12661494129E+02  0.20108733389E+03  0.20309032277E+03  0.00000000000E+00 0. -1.
        -13    1    4    4    0    0  0.99293155316E+02 -0.51498610307E+02  0.31514259274E+02  0.11620837360E+03  0.00000000000E+00 0. -1.
         13    1    4    4    0    0 -0.39821347426E+01 -0.32094811551E+02  0.48872366174E+02  0.58604116758E+02  0.00000000000E+00 0.  1.
         21    1    1    2  503  501 -0.54752221032E+01 -0.53756481541E+02 -0.50355840898E+02  0.73861005119E+02  0.00000000000E+00 0. -1.
          1    1    1    2  501    0 -0.14736539744E+03  0.60890671430E+02  0.15684756169E+03  0.22366356841E+03  0.00000000000E+00 0. -1.
<scales pt_clust_5="13000.00000" pt_clust_6="13000.00000" pt_clust_7="13000.00000" pt_clust_8="13000.00000" pt_clust_9="54.03459" pt_clust_10="142.82456"></scales>
<clustering>
<clus scale="   54.035">  2  9  1 -1</clus>
<clus scale="   81.734">  5  6 -1 -1</clus>
<clus scale="   89.584">  7  8 -1 -1</clus>
<clus scale="  123.271">  1  5  2 -1</clus>
<clus scale="  142.825">  2 10  1 -1</clus>
<clus scale="   54.035">  2  5  1 -1</clus>
</clustering>
</event>
<event>
10    4  0.7204077E-005  0.1310795E+03  0.7546771E-02  0.1228287E+00
          2   -1    0    0  503    0 -0.00000000000E+00  0.00000000000E+00  0.48935826111E+03  0.48935826111E+03  0.00000000000E+00 0. -1.
         21   -1    0    0  501  502  0.00000000000E+00 -0.00000000000E+00 -0.69059320014E+02  0.69059320014E+02  0.00000000000E+00 0. -1.
         23    2    1    2    0    0 -0.45064289657E+02 -0.10060727634E+03  0.24587787327E+03  0.28402637448E+03  0.89791082973E+02 0.  0.
         24    2    1    2    0    0  0.50588003714E+02  0.53346658379E+02  0.59168355328E+02  0.12378846365E+03  0.80110407438E+02 0.  0.
        -11    1    4    4    0    0 -0.17137852212E+02  0.28316693444E+02  0.33671948879E+02  0.47215900366E+02  0.00000000000E+00 0.  1.
         12    1    4    4    0    0  0.67725855926E+02  0.25029964935E+02  0.25496406448E+02  0.76572563281E+02  0.00000000000E+00 0. -1.
        -13    1    3    3    0    0 -0.63604505012E+02 -0.60708065451E+02  0.10781339935E+03  0.13912128288E+03  0.00000000000E+00 0. -1.
         13    1    3    3    0    0  0.18540215356E+02 -0.39899210886E+02  0.13806447391E+03  0.14490509160E+03  0.00000000000E+00 0.  1.
         21    1    1    2  503  502  0.14810710438E+02  0.43593642324E+02  0.15269643130E+02  0.48506956162E+02  0.00000000000E+00 0. -1.
          1    1    1    2  501    0 -0.20334424495E+02  0.36669756345E+01  0.99983069371E+02  0.10209578684E+03  0.00000000000E+00 0. -1.
<scales pt_clust_5="13000.00000" pt_clust_6="13000.00000" pt_clust_7="13000.00000" pt_clust_8="13000.00000" pt_clust_9="45.56526" pt_clust_10="20.66243"></scales>
<clustering>
<clus scale="   20.662">  2 10  1 -1</clus>
<clus scale="   45.565">  2  9  1 -1</clus>
<clus scale="   80.110">  5  6 -1 -1</clus>
<clus scale="   89.791">  7  8 -1 -1</clus>
<clus scale="  124.648">  2  5  1 -1</clus>
<clus scale="   20.662">  2  5  1 -1</clus>
</clustering>
</event>
<event>
10    4  0.7204077E-005  0.4567396E+03  0.7546771E-02  0.1063855E+00
         21   -1    0    0  503  502  0.00000000000E+00  0.00000000000E+00  0.18005463624E+03  0.18005463624E+03  0.00000000000E+00 0. -1.
          2   -1    0    0  502    0 -0.00000000000E+00 -0.00000000000E+00 -0.26008146719E+04  0.26008146719E+04  0.00000000000E+00 0. -1.
         23    2    1    2    0    0 -0.11205806089E+03 -0.45270053032E+01 -0.18979929873E+03  0.24101127772E+03  0.97391783030E+02 0.  0.
         24    2    1    2    0    0  0.30058282018E+03  0.40794888594E+03 -0.18796858363E+04  0.19485778432E+04  0.83453233516E+02 0.  0.
        -11    1    4    4    0    0  0.85404611784E+02  0.59777479955E+02 -0.37704812654E+03  0.39119379411E+03  0.00000000000E+00 0.  1.
         12    1    4    4    0    0  0.21517820839E+03  0.34817140599E+03 -0.15026377098E+04  0.15573840491E+04  0.00000000000E+00 0. -1.
        -11    1    3    3    0    0 -0.69725643113E+02  0.24975206237E+02 -0.17055286028E+03  0.18594005589E+03  0.00000000000E+00 0.  1.
         11    1    3    3    0    0 -0.42332417782E+02 -0.29502211540E+02 -0.19246438448E+02  0.55071221831E+02  0.00000000000E+00 0. -1.
         21    1    1    2  503  501 -0.28934849504E+02 -0.94856696698E+01  0.11428484411E+02  0.32524048039E+02  0.00000000000E+00 0.  1.
          1    1    1    2  501    0 -0.15958990978E+03 -0.39393621097E+03 -0.36270338501E+03  0.55875613922E+03  0.00000000000E+00 0. -1.
<scales pt_clust_5="13000.00000" pt_clust_6="13000.00000" pt_clust_7="13000.00000" pt_clust_8="13000.00000" pt_clust_9="30.45002" pt_clust_10="449.05080"></scales>
<clustering>
<clus scale="   30.450">  1  9  2 -1</clus>
<clus scale="   83.453">  5  6 -1 -1</clus>
<clus scale="   97.392">  7  8 -1 -1</clus>
<clus scale="  152.156">  2  7  1 -1</clus>
<clus scale="  449.051">  1 10  2 -1</clus>
<clus scale="   30.450">  1  5  2 -1</clus>
</clustering>
</event>
<event>
10    4  0.7204077E-005  0.4867197E+03  0.7546771E-02  0.1034370E+00
         21   -1    0    0  501  502  0.00000000000E+00  0.00000000000E+00  0.23883075334E+03  0.23883075334E+03  0.00000000000E+00 0. -1.
          2   -1    0    0  503    0 -0.00000000000E+00 -0.00000000000E+00 -0.32036489995E+04  0.32036489995E+04  0.00000000000E+00 0. -1.
         24    2    1    2    0    0  0.27388989823E+03 -0.60679651572E+02 -0.13546923680E+01  0.29197800625E+03  0.80942105703E+02 0.  0.
         23    2    1    2    0    0  0.87203958113E+02 -0.37261402846E+03 -0.13730837465E+04  0.14284079325E+04  0.92436476563E+02 0.  0.
        -11    1    3    3    0    0  0.13717506499E+03  0.93815366712E+01 -0.11806888790E+02  0.13800150111E+03  0.00000000000E+00 0.  1.
         12    1    3    3    0    0  0.13671483324E+03 -0.70061188243E+02  0.10452196422E+02  0.15397650514E+03  0.00000000000E+00 0. -1.
        -11    1    4    4    0    0  0.63893724337E+01 -0.11703408814E+03 -0.56488543400E+03  0.57691711313E+03  0.00000000000E+00 0.  1.
         11    1    4    4    0    0  0.80814585679E+02 -0.25557994032E+03 -0.80819831252E+03  0.85149081940E+03  0.00000000000E+00 0. -1.
         21    1    1    2  503  502 -0.99617232527E+01 -0.55685811724E+02 -0.10307200416E+03  0.11757543791E+03  0.00000000000E+00 0. -1.
          1    1    1    2  501    0 -0.35113213309E+03  0.48897949176E+03 -0.14873078031E+04  0.16045183761E+04  0.00000000000E+00 0. -1.
<scales pt_clust_5="13000.00000" pt_clust_6="13000.00000" pt_clust_7="13000.00000" pt_clust_8="13000.00000" pt_clust_9="56.56983" pt_clust_10="477.86172"></scales>
<clustering>
<clus scale="   56.570">  2  9  1 -1</clus>
<clus scale="   80.942">  5  6 -1 -1</clus>
<clus scale="   92.436">  7  8 -1 -1</clus>
<clus scale="  292.093">  2  5  1 -1</clus>
<clus scale="  477.862">  1 10  2 -1</clus>
<clus scale="  477.862">  1  5  2 -1</clus>
</clustering>
</event>
<event>
10    4  0.7204077E-005  0.2004929E+03  0.7546771E-02  0.1185811E+00
         21   -1    0    0  501  502  0.00000000000E+00  0.00000000000E+00  0.69016659383E+02  0.69016659383E+02  0.00000000000E+00 0.  1.
          2   -1    0    0  503    0 -0.00000000000E+00 -0.00000000000E+00 -0.13172346096E+04  0.13172346096E+04  0.00000000000E+00 0. -1.
         24    2    1    2    0    0 -0.96073058841E+01  0.28351271588E+02 -0.13354937788E+03  0.15922242937E+03  0.81364923366E+02 0.  0.
         23    2    1    2    0    0  0.13850476954E+03 -0.10578667349E+03 -0.28902809254E+03  0.34934270391E+03  0.90159275858E+02 0.  0.
        -13    1    3    3    0    0 -0.44708514616E+02  0.25016511996E+02 -0.73656594507E+02  0.89721630982E+02  0.00000000000E+00 0.  1.
         14    1    3    3    0    0  0.35101208732E+02  0.33347595917E+01 -0.59892783371E+02  0.69500798384E+02  0.00000000000E+00 0. -1.
        -11    1    4    4    0    0  0.57382732997E+02 -0.85105700604E+02 -0.10333057767E+03  0.14564671848E+03  0.00000000000E+00 0. -1.
         11    1    4    4    0    0  0.81122036546E+02 -0.20680972886E+02 -0.18569751486E+03  0.20369598543E+03  0.00000000000E+00 0.  1.
         21    1    1    2  503  502  0.75225113049E+02  0.50829567689E+02 -0.21903324760E+03  0.23710340812E+03  0.00000000000E+00 0.  1.
          1    1    1    2  501    0 -0.20412257671E+03  0.26605834214E+02 -0.60660723220E+03  0.64058272759E+03  0.00000000000E+00 0. -1.
<scales pt_clust_5="13000.00000" pt_clust_6="13000.00000" pt_clust_7="13000.00000" pt_clust_8="13000.00000" pt_clust_9="92.50040" pt_clust_10="179.07750"></scales>
<clustering>
<clus scale="   81.365">  5  6 -1 -1</clus>
<clus scale="   86.697">  2  5  1 -1</clus>
<clus scale="   90.159">  7  8 -1 -1</clus>
<clus scale="   92.500">  2  9  1 -1</clus>
<clus scale="  179.078">  1 10  2 -1</clus>
<clus scale="  179.078">  1  5  2 -1</clus>
</clustering>
</event>
<event>
10    4  0.7204077E-005  0.1339509E+03  0.7546771E-02  0.1240586E+00
         21   -1    0    0  503  502  0.00000000000E+00  0.00000000000E+00  0.51049738289E+02  0.51049738289E+02  0.00000000000E+00 0. -1.
          2   -1    0    0  502    0 -0.00000000000E+00 -0.00000000000E+00 -0.13870925452E+04  0.13870925452E+04  0.00000000000E+00 0. -1.
         24    2    1    2    0    0  0.49068596742E+02 -0.98796987472E+01 -0.25860616859E+03  0.27565074793E+03  0.81245607674E+02 0.  0.
         23    2    1    2    0    0  0.84613242038E+02  0.46951473203E+02 -0.13986579702E+03  0.19440498309E+03  0.94164827360E+02 0.  0.
        -11    1    3    3    0    0  0.14741305945E+01 -0.38728445047E+02 -0.86919112913E+02  0.95168259973E+02  0.00000000000E+00 0.  1.
         12    1    3    3    0    0  0.47594466148E+02  0.28848746300E+02 -0.17168705568E+03  0.18048248796E+03  0.00000000000E+00 0. -1.
        -11    1    4    4    0    0  0.18769128883E+02  0.52158216766E+02 -0.22691543307E+02  0.59897127752E+02  0.00000000000E+00 0. -1.
         11    1    4    4    0    0  0.65844113155E+02 -0.52067435637E+01 -0.11717425371E+03  0.13450785534E+03  0.00000000000E+00 0.  1.
         21    1    1    2  503  501 -0.40291886370E+02  0.34312099834E+02 -0.50133318311E+02  0.72897914286E+02  0.00000000000E+00 0. -1.
          1    1    1    2  501    0 -0.93389952410E+02 -0.71383874289E+02 -0.88743752299E+03  0.89518863818E+03  0.00000000000E+00 0. -1.
<scales pt_clust_5="13000.00000" pt_clust_6="13000.00000" pt_clust_7="13000.00000" pt_clust_8="13000.00000" pt_clust_9="52.92217" pt_clust_10="95.26720"></scales>
<clustering>
<clus scale="   52.922">  1  9  2 -1</clus>
<clus scale="   81.246">  5  6 -1 -1</clus>
<clus scale="   90.776">  2  5  1 -1</clus>
<clus scale="   94.165">  7  8 -1 -1</clus>
<clus scale="   95.267">  1 10  2 -1</clus>
<clus scale="   52.922">  1  5  2 -1</clus>
</clustering>
</event>
<event>
10    4  0.7204077E-005  0.2900968E+03  0.7546771E-02  0.1100646E+00
          2   -1    0    0  502    0 -0.00000000000E+00  0.00000000000E+00  0.21663522125E+03  0.21663522125E+03  0.00000000000E+00 0. -1.
         21   -1    0    0  503  502  0.00000000000E+00 -0.00000000000E+00 -0.88376228392E+03  0.88376228392E+03  0.00000000000E+00 0. -1.
         24    2    1    2    0    0  0.82510365167E+02 -0.18135118602E+03 -0.16484028522E+03  0.27125408656E+03  0.81916096209E+02 0.  0.
         23    2    1    2    0    0  0.10779066711E+03  0.30644401551E+03 -0.42116244628E+03  0.53962941213E+03  0.91078722651E+02 0.  0.
        -13    1    3    3    0    0  0.32005428277E+02 -0.32435232249E+02 -0.30989704481E+01  0.45672698060E+02  0.00000000000E+00 0.  1.
         14    1    3    3    0    0  0.50504936891E+02 -0.14891595377E+03 -0.16174131477E+03  0.22558138850E+03  0.00000000000E+00 0. -1.
        -13    1    4    4    0    0  0.13620031914E+02  0.16809473294E+03 -0.18707439101E+03  0.25186935558E+03  0.00000000000E+00 0. -1.
         13    1    4    4    0    0  0.94170635197E+02  0.13834928257E+03 -0.23408805527E+03  0.28776005654E+03  0.00000000000E+00 0.  1.
         21    1    1    2  503  501  0.26185234714E+02 -0.14966794547E+02 -0.27417519049E+02  0.40760174274E+02  0.00000000000E+00 0.  1.
          1    1    1    2  501    0 -0.21648626699E+03 -0.11012603495E+03 -0.53706812123E+02  0.24875383221E+03  0.00000000000E+00 0. -1.
<scales pt_clust_5="13000.00000" pt_clust_6="13000.00000" pt_clust_7="13000.00000" pt_clust_8="13000.00000" pt_clust_9="30.16076" pt_clust_10="275.42859"></scales>
<clustering>
<clus scale="   30.161">  2  9  1 -1</clus>
<clus scale="   81.916">  5  6 -1 -1</clus>
<clus scale="   91.079">  7  8 -1 -1</clus>
<clus scale="  221.288">  1  5  2 -1</clus>
<clus scale="  275.429">  2 10  1 -1</clus>
<clus scale="   30.161">  2  5  1 -1</clus>
</clustering>
</event>
<event>
10    4  0.7204077E-005  0.2546458E+03  0.7546771E-02  0.1110940E+00
         21   -1    0    0  501  502  0.00000000000E+00  0.00000000000E+00  0.23643900727E+03  0.23643900727E+03  0.00000000000E+00 0. -1.
         -1   -1    0    0    0  501 -0.00000000000E+00 -0.00000000000E+00 -0.94040446565E+03  0.94040446565E+03  0.00000000000E+00 0.  1.
         24    2    1    2    0    0 -0.12398744797E+03 -0.19105173223E+03 -0.35925701667E+03  0.43371503874E+03  0.84672776950E+02 0.  0.
         23    2    1    2    0    0  0.11538026748E+02  0.30290779837E+03 -0.26472757697E+02  0.31859469204E+03  0.94421981157E+02 0.  0.
        -13    1    3    3    0    0 -0.12731473431E+03 -0.18789822687E+03 -0.30979644433E+03  0.38404247441E+03  0.00000000000E+00 0.  1.
         14    1    3    3    0    0  0.33272863378E+01 -0.31535053641E+01 -0.49460572342E+02  0.49672564327E+02  0.00000000000E+00 0. -1.
        -13    1    4    4    0    0 -0.38035627486E+02  0.10249508117E+03 -0.24951377917E+02  0.11213617562E+03  0.00000000000E+00 0.  1.
         13    1    4    4    0    0  0.49573654233E+02  0.20041271720E+03 -0.15213797804E+01  0.20645851642E+03  0.00000000000E+00 0. -1.
         21    1    1    2  503  502 -0.54614156841E+02 -0.48076171616E+02 -0.17799882274E+02  0.74905675444E+02  0.00000000000E+00 0.  1.
         -2    1    1    2    0  503  0.16706357806E+03 -0.63779894520E+02 -0.30043580174E+03  0.34962806670E+03  0.00000000000E+00 0.  1.
<scales pt_clust_5="13000.00000" pt_clust_6="13000.00000" pt_clust_7="13000.00000" pt_clust_8="13000.00000" pt_clust_9="72.76005" pt_clust_10="174.98230"></scales>
<clustering>
<clus scale="   72.760">  1  9  2 -1</clus>
<clus scale="   84.673">  5  6 -1 -1</clus>
<clus scale="   94.422">  7  8 -1 -1</clus>
<clus scale="  174.982">  1 10  2 -1</clus>
<clus scale="  251.194">  2  5  1 -1</clus>
<clus scale="   72.760">  1  5  2 -1</clus>
</clustering>
</event>
<event>
10    4  0.7204077E-005  0.2627826E+03  0.7546771E-02  0.1129242E+00
         21   -1    0    0  501  502  0.00000000000E+00  0.00000000000E+00  0.15530851394E+03  0.15530851394E+03  0.00000000000E+00 0.  1.
         -1   -1    0    0    0  501 -0.00000000000E+00 -0.00000000000E+00 -0.17109793552E+04  0.17109793552E+04  0.00000000000E+00 0.  1.
         24    2    1    2    0    0 -0.71077057433E+02 -0.84534094002E+02 -0.83712956746E+01  0.13804618921E+03  0.82393632170E+02 0.  0.
         23    2    1    2    0    0 -0.13912868293E+03  0.23178657648E+03 -0.13675874403E+04  0.13975863103E+04  0.99349283976E+02 0.  0.
        -11    1    3    3    0    0 -0.51154999161E+02 -0.20048224616E+02  0.27686744822E+02  0.61524963131E+02  0.00000000000E+00 0.  1.
         12    1    3    3    0    0 -0.19922058272E+02 -0.64485869387E+02 -0.36058040497E+02  0.76521226080E+02  0.00000000000E+00 0. -1.
        -11    1    4    4    0    0  0.68491928660E+00  0.23732484305E+02 -0.39791887097E+02  0.46336747884E+02  0.00000000000E+00 0. -1.
         11    1    4    4    0    0 -0.13981360221E+03  0.20805409217E+03 -0.13277955532E+04  0.13512495624E+04  0.00000000000E+00 0.  1.
         21    1    1    2  503  502  0.85759995460E+01 -0.28652499933E+02  0.77366757090E+01  0.30892874124E+02  0.00000000000E+00 0. -1.
         -2    1    1    2    0  503  0.20162974081E+03 -0.11859998254E+03 -0.18744878093E+03  0.29976249551E+03  0.00000000000E+00 0.  1.
<scales pt_clust_5="13000.00000" pt_clust_6="13000.00000" pt_clust_7="13000.00000" pt_clust_8="13000.00000" pt_clust_9="29.90842" pt_clust_10="243.27851"></scales>
<clustering>
<clus scale="   29.908">  1  9  2 -1</clus>
<clus scale="   82.394">  5  6 -1 -1</clus>
<clus scale="   99.349">  7  8 -1 -1</clus>
<clus scale="  144.632">  2  5  1 -1</clus>
<clus scale="  243.279">  1 10  2 -1</clus>
<clus scale="   29.908">  1  5  2 -1</clus>
</clustering>
</event>
<event>
10    4  0.7204077E-005  0.1788864E+03  0.7546771E-02  0.1169898E+00
          2   -1    0    0  503    0 -0.00000000000E+00  0.00000000000E+00  0.43363524232E+03  0.43363524232E+03  0.00000000000E+00 0. -1.
         21   -1    0    0  501  502  0.00000000000E+00 -0.00000000000E+00 -0.55830271073E+03  0.55830271073E+03  0.00000000000E+00 0. -1.
         24    2    1    2    0    0  0.43654669608E+02 -0.13791230912E+03  0.28394839950E+03  0.32935735724E+03  0.83210816629E+02 0.  0.
         23    2    1    2    0    0 -0.14267504988E+03  0.25581468053E+03 -0.26588156200E+03  0.40603475935E+03  0.91509016804E+02 0.  0.
        -11    1    3    3    0    0 -0.11582430324E+02 -0.19476077740E+02  0.10705316301E+03  0.10942508857E+03  0.00000000000E+00 0.  1.
         12    1    3    3    0    0  0.55237099932E+02 -0.11843623138E+03  0.17689523648E+03  0.21993226867E+03  0.00000000000E+00 0. -1.
        -11    1    4    4    0    0 -0.65231470996E+02  0.19650264634E+03 -0.20309720350E+03  0.29002915180E+03  0.00000000000E+00 0.  1.
         11    1    4    4    0    0 -0.77443578883E+02  0.59312034190E+02 -0.62784358503E+02  0.11600560755E+03  0.00000000000E+00 0. -1.
         21    1    1    2  503  502 -0.28607030452E+02 -0.71242073799E+02 -0.60162612502E+02  0.97536327661E+02  0.00000000000E+00 0.  1.
          1    1    1    2  501    0  0.12762741072E+03 -0.46660297605E+02 -0.82571693405E+02  0.15900950881E+03  0.00000000000E+00 0. -1.
<scales pt_clust_5="13000.00000" pt_clust_6="13000.00000" pt_clust_7="13000.00000" pt_clust_8="13000.00000" pt_clust_9="76.77106" pt_clust_10="136.65770"></scales>
<clustering>
<clus scale="   76.771">  2  9  1 -1</clus>
<clus scale="   83.211">  5  6 -1 -1</clus>
<clus scale="   91.509">  7  8 -1 -1</clus>
<clus scale="  136.658">  2 10  1 -1</clus>
<clus scale="  174.787">  1  5  2 -1</clus>
<clus scale="   76.771">  2  5  1 -1</clus>
</clustering>
</event>
<event>
10    4  0.7204077E-005  0.1008364E+03  0.7546771E-02  0.1284715E+00
          2   -1    0    0  502    0 -0.00000000000E+00  0.00000000000E+00  0.20167212140E+03  0.20167212140E+03  0.00000000000E+00 0. -1.
         21   -1    0    0  503  502  0.00000000000E+00 -0.00000000000E+00 -0.12703827853E+03  0.12703827853E+03  0.00000000000E+00 0. -1.
         24    2    1    2    0    0 -0.30610969808E+02 -0.74670627306E+01  0.64531736024E+02  0.10721963878E+03  0.79617319019E+02 0.  0.
         23    2    1    2    0    0  0.69242528376E+02  0.27393255577E+02 -0.22209216503E+02  0.12041480720E+03  0.91986728983E+02 0.  0.
        -11    1    3    3    0    0 -0.12561177397E+02 -0.37764925630E+02  0.80089993364E+01  0.40597005503E+02  0.00000000000E+00 0.  1.
         12    1    3    3    0    0 -0.18049792411E+02  0.30297862899E+02  0.56522736688E+02  0.66622633279E+02  0.00000000000E+00 0. -1.
        -13    1    4    4    0    0 -0.15157992324E+02  0.26060692466E+02  0.72553051346E+01  0.31009093436E+02  0.00000000000E+00 0.  1.
         13    1    4    4    0    0  0.84400520700E+02  0.13325631104E+01 -0.29464521637E+02  0.89405713767E+02  0.00000000000E+00 0. -1.
         21    1    1    2  503  501  0.31172362632E+01 -0.24282281094E+02 -0.21670464911E+02  0.32694883186E+02  0.00000000000E+00 0. -1.
          1    1    1    2  501    0 -0.41748794831E+02  0.43560882483E+01  0.53981788262E+02  0.68381070762E+02  0.00000000000E+00 0. -1.
<scales pt_clust_5="13000.00000" pt_clust_6="13000.00000" pt_clust_7="13000.00000" pt_clust_8="13000.00000" pt_clust_9="24.48155" pt_clust_10="41.60571"></scales>
<clustering>
<clus scale="   24.482">  2  9  1 -1</clus>
<clus scale="   41.606">  2 10  1 -1</clus>
<clus scale="   79.617">  5  6 -1 -1</clus>
<clus scale="   89.696">  1  5  2 -1</clus>
<clus scale="   91.987">  7  8 -1 -1</clus>
<clus scale="   24.482">  2  5  1 -1</clus>
</clustering>
</event>
<event>
10    4  0.7204077E-005  0.5087382E+03  0.7546771E-02  0.1011523E+00
         21   -1    0    0  501  502  0.00000000000E+00  0.00000000000E+00  0.15739910886E+03  0.15739910886E+03  0.00000000000E+00 0.  1.
          2   -1    0    0  503    0 -0.00000000000E+00 -0.00000000000E+00 -0.18590673279E+04  0.18590673279E+04  0.00000000000E+00 0. -1.
         24    2    1    2    0    0 -0.23611715685E+03  0.99239591039E+02 -0.59669157898E+03  0.65487460221E+03  0.84971148075E+02 0.  0.
         23    2    1    2    0    0 -0.11111740245E+03  0.19957532871E+03 -0.52449628590E+03  0.57905790273E+03  0.89634322810E+02 0.  0.
        -11    1    3    3    0    0 -0.19384734635E+03  0.42710986085E+02 -0.46112405801E+03  0.50203228870E+03  0.00000000000E+00 0.  1.
         12    1    3    3    0    0 -0.42269810499E+02  0.56528604954E+02 -0.13556752097E+03  0.15284231351E+03  0.00000000000E+00 0. -1.
        -13    1    4    4    0    0  0.62883957809E+00  0.52599803910E+02 -0.63471502290E+02  0.82436438627E+02  0.00000000000E+00 0. -1.
         13    1    4    4    0    0 -0.11174624203E+03  0.14697552480E+03 -0.46102478361E+03  0.49662146410E+03  0.00000000000E+00 0.  1.
         21    1    1    2  503  502 -0.37515538309E+01 -0.30728205089E+02  0.20197970603E+02  0.36962883554E+02  0.00000000000E+00 0.  1.
          1    1    1    2  501    0  0.35098611314E+03 -0.26808671466E+03 -0.60067832478E+03  0.74557104830E+03  0.00000000000E+00 0. -1.
<scales pt_clust_5="13000.00000" pt_clust_6="13000.00000" pt_clust_7="13000.00000" pt_clust_8="13000.00000" pt_clust_9="30.95637" pt_clust_10="450.72112"></scales>
<clustering>
<clus scale="   30.956">  1  9  2 -1</clus>
<clus scale="   84.971">  5  6 -1 -1</clus>
<clus scale="   89.634">  7  8 -1 -1</clus>
<clus scale="  172.945">  5  7 -1 -1</clus>
<clus scale="  450.721">  1 10  2 -1</clus>
<clus scale="   30.956">  1  5  2 -1</clus>
</clustering>
</event>
<event>
10    4  0.7204077E-005  0.1628315E+03  0.7546771E-02  0.1217133E+00
         21   -1    0    0  501  502  0.00000000000E+00  0.00000000000E+00  0.10568814015E+03  0.10568814015E+03  0.00000000000E+00 0.  1.
         -1   -1    0    0    0  501 -0.00000000000E+00 -0.00000000000E+00 -0.94325443794E+03  0.94325443794E+03  0.00000000000E+00 0.  1.
         24    2    1    2    0    0  0.10497706682E+02  0.99939074653E+01 -0.40918310955E+02  0.91111638332E+02  0.80105820239E+02 0.  0.
         23    2    1    2    0    0  0.96087120459E+02 -0.75894010481E+02 -0.73888373378E+03  0.75425986753E+03  0.89253236245E+02 0.  0.
        -11    1    3    3    0    0 -0.34962941142E+02  0.10756192874E+01 -0.19844662340E+02  0.40216598981E+02  0.00000000000E+00 0.  1.
         12    1    3    3    0    0  0.45460647825E+02  0.89182881780E+01 -0.21073648615E+02  0.50895039351E+02  0.00000000000E+00 0. -1.
        -11    1    4    4    0    0  0.31701674092E+02  0.18309326209E+02 -0.14807148487E+03  0.15252997148E+03  0.00000000000E+00 0. -1.
         11    1    4    4    0    0  0.64385446367E+02 -0.94203336690E+02 -0.59081224891E+03  0.60172989606E+03  0.00000000000E+00 0.  1.
         21    1    1    2  503  502  0.24367805736E+02 -0.22009958117E+02  0.61178983357E+01  0.33401450459E+02  0.00000000000E+00 0.  1.
         -2    1    1    2    0  503 -0.13095263288E+03  0.87910061133E+02 -0.63882151388E+02  0.17016962177E+03  0.00000000000E+00 0.  1.
<scales pt_clust_5="13000.00000" pt_clust_6="13000.00000" pt_clust_7="13000.00000" pt_clust_8="13000.00000" pt_clust_9="32.83639" pt_clust_10="136.19093"></scales>
<clustering>
<clus scale="   32.836">  1  9  2 -1</clus>
<clus scale="   80.106">  5  6 -1 -1</clus>
<clus scale="   82.097">  2  5  1 -1</clus>
<clus scale="   89.253">  7  8 -1 -1</clus>
<clus scale="  136.191">  1 10  2 -1</clus>
<clus scale="   32.836">  1  5  2 -1</clus>
</clustering>
</event>
<event>
10    4  0.7204077E-005  0.1493081E+03  0.7546771E-02  0.1203447E+00
         -1   -1    0    0    0  501 -0.00000000000E+00  0.00000000000E+00  0.49184955060E+03  0.49184955060E+03  0.00000000000E+00 0.  1.
         21   -1    0    0  503  502  0.00000000000E+00 -0.00000000000E+00 -0.18804422100E+03  0.18804422100E+03  0.00000000000E+00 0.  1.
         24    2    1    2    0    0  0.82842939370E+02  0.82328634322E+02  0.25696384819E+03  0.29332064982E+03  0.79784883943E+02 0.  0.
         23    2    1    2    0    0 -0.64210770127E+02 -0.11820554700E+03 -0.10108886781E+03  0.19140192505E+03  0.91214929580E+02 0.  0.
        -11    1    3    3    0    0  0.33472105349E+02  0.71381491815E+00  0.13161357966E+03  0.13580510197E+03  0.00000000000E+00 0.  1.
         12    1    3    3    0    0  0.49370834021E+02  0.81614819404E+02  0.12535026852E+03  0.15751554786E+03  0.00000000000E+00 0. -1.
        -11    1    4    4    0    0 -0.17189954665E+02 -0.11109731053E+03 -0.85896612244E+02  0.14147909719E+03  0.00000000000E+00 0.  1.
         11    1    4    4    0    0 -0.47020815463E+02 -0.71082364702E+01 -0.15192255568E+02  0.49922827862E+02  0.00000000000E+00 0. -1.
         21    1    1    2  503  501 -0.29111887500E+02 -0.20652406547E+02 -0.81372132298E+00  0.35702745446E+02  0.00000000000E+00 0. -1.
         -2    1    1    2    0  502  0.10479718258E+02  0.56529319222E+02  0.14874407055E+03  0.15946845127E+03  0.00000000000E+00 0.  1.
<scales pt_clust_5="13000.00000" pt_clust_6="13000.00000" pt_clust_7="13000.00000" pt_clust_8="13000.00000" pt_clust_9="35.69347" pt_clust_10="56.68906"></scales>
<clustering>
<clus scale="   35.693">  2  9  1 -1</clus>
<clus scale="   56.689">  2 10  1 -1</clus>
<clus scale="   79.785">  5  6 -1 -1</clus>
<clus scale="   91.215">  7  8 -1 -1</clus>
<clus scale="  142.613">  1  5  2 -1</clus>
<clus scale="   35.693">  2  5  1 -1</clus>
</clustering>
</event>
<event>
10    4  0.7204077E-005  0.1728648E+03  0.7546771E-02  0.1200914E+00
          2   -1    0    0  503    0 -0.00000000000E+00  0.00000000000E+00  0.41164136588E+03  0.41164136588E+03  0.00000000000E+00 0. -1.
         21   -1    0    0  501  502  0.00000000000E+00 -0.00000000000E+00 -0.18178639114E+03  0.18178639114E+03  0.00000000000E+00 0.  1.
         23    2    1    2    0    0 -0.26335339534E+02  0.23946335605E+02  0.14160246390E+03  0.17176223073E+03  0.90465623453E+02 0.  0.
         24    2    1    2    0    0 -0.12873099115E+03 -0.11097624987E+03  0.51699282460E+00  0.18828417252E+03  0.81013987813E+02 0.  0.
        -11    1    4    4    0    0 -0.64672750131E+02 -0.51585181311E+02 -0.40118905304E+02  0.91940861988E+02  0.00000000000E+00 0.  1.
         12    1    4    4    0    0 -0.64058241022E+02 -0.59391068557E+02  0.40635898128E+02  0.96343310530E+02  0.00000000000E+00 0. -1.
        -11    1    3    3    0    0  0.17849658015E+02  0.44891268024E+02  0.69230997866E+02  0.84420183023E+02  0.00000000000E+00 0.  1.
         11    1    3    3    0    0 -0.44184997549E+02 -0.20944932419E+02  0.72371466033E+02  0.87342047710E+02  0.00000000000E+00 0. -1.
         21    1    1    2  503  502  0.22214726992E+02  0.17075953031E+02 -0.31129280418E+02  0.41882148543E+02  0.00000000000E+00 0.  1.
          1    1    1    2  501    0  0.13285160369E+03  0.69953961232E+02  0.11886479844E+03  0.19149920523E+03  0.00000000000E+00 0. -1.
<scales pt_clust_5="13000.00000" pt_clust_6="13000.00000" pt_clust_7="13000.00000" pt_clust_8="13000.00000" pt_clust_9="28.01932" pt_clust_10="152.70553"></scales>
<clustering>
<clus scale="   28.019">  2  9  1 -1</clus>
<clus scale="   81.014">  5  6 -1 -1</clus>
<clus scale="   90.466">  7  8 -1 -1</clus>
<clus scale="   97.072">  1  7  2 -1</clus>
<clus scale="  152.706">  2 10  1 -1</clus>
<clus scale="   28.019">  2  5  1 -1</clus>
</clustering>
</event>
<event>
10    4  0.2287291E-004  0.1951372E+03  0.7546771E-02  0.1171832E+00
          2   -1    0    0  502    0 -0.00000000000E+00  0.00000000000E+00  0.28741882437E+04  0.28741882437E+04  0.00000000000E+00 0. -1.
         21   -1    0    0  503  502  0.00000000000E+00 -0.00000000000E+00 -0.11208173195E+03  0.11208173195E+03  0.00000000000E+00 0.  1.
         24    2    1    2    0    0  0.24307966645E+02  0.99493502208E+02  0.72312027567E+03  0.73474569158E+03  0.80364569172E+02 0.  0.
         23    2    1    2    0    0  0.66203268909E+02  0.18206254781E+03  0.29003154640E+02  0.21580222123E+03  0.90552590140E+02 0.  0.
        -11    1    3    3    0    0  0.27013167517E+02  0.11217652034E+03  0.60404997527E+03  0.61497126401E+03  0.00000000000E+00 0.  1.
         12    1    3    3    0    0 -0.27052008722E+01 -0.12683018136E+02  0.11907030040E+03  0.11977442757E+03  0.00000000000E+00 0. -1.
        -13    1    4    4    0    0  0.45463062683E+02  0.16762262221E+03 -0.46207002873E+01  0.17373999084E+03  0.00000000000E+00 0.  1.
         13    1    4    4    0    0  0.20740206226E+02  0.14439925598E+02  0.33623854928E+02  0.42062230395E+02  0.00000000000E+00 0. -1.
         21    1    1    2  503  501 -0.15793079120E+02 -0.29148316535E+02  0.64596620949E+02  0.72606949688E+02  0.00000000000E+00 0. -1.
          1    1    1    2  501    0 -0.74718156434E+02 -0.25240773348E+03  0.19453864605E+04  0.19631151131E+04  0.00000000000E+00 0. -1.
<scales pt_clust_5="13000.00000" pt_clust_6="13000.00000" pt_clust_7="13000.00000" pt_clust_8="13000.00000" pt_clust_9="33.15186" pt_clust_10="172.85484"></scales>
<clustering>
<clus scale="   33.152">  2  9  1 -1</clus>
<clus scale="   80.365">  5  6 -1 -1</clus>
<clus scale="   90.553">  7  8 -1 -1</clus>
<clus scale="  128.834">  1  5  2 -1</clus>
<clus scale="  172.855">  2 10  1 -1</clus>
<clus scale="   33.152">  2  5  1 -1</clus>
</clustering>
</event>
<event>
10    4  0.7204077E-005  0.1493205E+03  0.7546771E-02  0.1226251E+00
         -1   -1    0    0    0  501 -0.00000000000E+00  0.00000000000E+00  0.18464422668E+03  0.18464422668E+03  0.00000000000E+00 0.  1.
         21   -1    0    0  501  502  0.00000000000E+00 -0.00000000000E+00 -0.37931858666E+03  0.37931858666E+03  0.00000000000E+00 0.  1.
         24    2    1    2    0    0  0.27766047160E+02 -0.49116928061E+02  0.36380127610E+02  0.95185520469E+02  0.67478467862E+02 0.  0.
         23    2    1    2    0    0 -0.11004512623E+03 -0.60954982711E+02 -0.95975938957E+02  0.18434919261E+03  0.94592833940E+02 0.  0.
        -11    1    3    3    0    0 -0.89375450983E+00 -0.41501337278E+02  0.47889149492E+02  0.63376103005E+02  0.00000000000E+00 0.  1.
         12    1    3    3    0    0  0.28659801670E+02 -0.76155907828E+01 -0.11509021883E+02  0.31809417464E+02  0.00000000000E+00 0. -1.
        -11    1    4    4    0    0 -0.13023399780E+02  0.24418321354E+02 -0.22644911454E+02  0.35758290987E+02  0.00000000000E+00 0. -1.
         11    1    4    4    0    0 -0.97021726449E+02 -0.85373304065E+02 -0.73331027503E+02  0.14859090162E+03  0.00000000000E+00 0.  1.
         21    1    1    2  503  502  0.81034195252E+02 -0.35269930096E+02 -0.10275030374E+03  0.13552908797E+03  0.00000000000E+00 0.  1.
         -2    1    1    2    0  503  0.12448838163E+01  0.14534184087E+03 -0.32328244899E+02  0.14889901229E+03  0.00000000000E+00 0.  1.
<scales pt_clust_5="13000.00000" pt_clust_6="13000.00000" pt_clust_7="13000.00000" pt_clust_8="13000.00000" pt_clust_9="94.70617" pt_clust_10="115.53709"></scales>
<clustering>
<clus scale="   67.478">  5  6 -1 -1</clus>
<clus scale="   87.959">  1  5  2 -1</clus>
<clus scale="   94.593">  7  8 -1 -1</clus>
<clus scale="   94.706">  2  9  1 -1</clus>
<clus scale="  115.537">  2 10  1 -1</clus>
<clus scale="   94.706">  2  5  1 -1</clus>
</clustering>
</event>
<event>
10    4  0.7204077E-005  0.2559367E+03  0.7546771E-02  0.1109609E+00
          2   -1    0    0  503    0 -0.00000000000E+00  0.00000000000E+00  0.88011066303E+03  0.88011066303E+03  0.00000000000E+00 0. -1.
         21   -1    0    0  501  502  0.00000000000E+00 -0.00000000000E+00 -0.11571884229E+03  0.11571884229E+03  0.00000000000E+00 0. -1.
         24    2    1    2    0    0  0.27449818331E+02 -0.22979935559E+02  0.13418390418E+03  0.16079688610E+03  0.81047815960E+02 0.  0.
         23    2    1    2    0    0  0.11599754913E+03 -0.16148916549E+03  0.39144556834E+03  0.44629599411E+03  0.80101806552E+02 0.  0.
        -11    1    3    3    0    0 -0.15197262176E+02 -0.39753142772E+02  0.70230259070E+02  0.82119172104E+02  0.00000000000E+00 0.  1.
         12    1    3    3    0    0  0.42647080507E+02  0.16773207213E+02  0.63953645112E+02  0.78677713992E+02  0.00000000000E+00 0. -1.
        -13    1    4    4    0    0  0.96811393349E+02 -0.15555941340E+03  0.29111509847E+03  0.34397554787E+03  0.00000000000E+00 0. -1.
         13    1    4    4    0    0  0.19186155777E+02 -0.59297520903E+01  0.10033046987E+03  0.10232044624E+03  0.00000000000E+00 0.  1.
         21    1    1    2  503  502 -0.34425998561E+02  0.98508280015E+02 -0.89892799342E+01  0.10473699328E+03  0.00000000000E+00 0. -1.
          1    1    1    2  501    0 -0.10902136890E+03  0.85960821034E+02  0.24775162815E+03  0.28399963183E+03  0.00000000000E+00 0. -1.
<scales pt_clust_5="13000.00000" pt_clust_6="13000.00000" pt_clust_7="13000.00000" pt_clust_8="13000.00000" pt_clust_9="104.35052" pt_clust_10="166.83583"></scales>
<clustering>
<clus scale="   80.102">  7  8 -1 -1</clus>
<clus scale="   81.048">  5  6 -1 -1</clus>
<clus scale="   81.590">  5  7 -1 -1</clus>
<clus scale="  104.351">  2  9  1 -1</clus>
<clus scale="  166.836">  2 10  1 -1</clus>
<clus scale="  104.351">  2  5  1 -1</clus>
</clustering>
</event>
<event>
10    4  0.7204077E-005  0.1194078E+03  0.7546771E-02  0.1247737E+00
          2   -1    0    0  502    0 -0.00000000000E+00  0.00000000000E+00  0.12353836274E+03  0.12353836274E+03  0.00000000000E+00 0. -1.
         21   -1    0    0  503  502  0.00000000000E+00 -0.00000000000E+00 -0.64077072072E+03  0.64077072072E+03  0.00000000000E+00 0. -1.
         23    2    1    2    0    0 -0.25163321900E+02 -0.41286076511E+02 -0.63385017619E+02  0.12083457214E+03  0.90805288847E+02 0.  0.
         24    2    1    2    0    0  0.95310112242E+02  0.13435814862E+03 -0.24408813648E+03  0.30497339760E+03  0.79332372190E+02 0.  0.
        -11    1    4    4    0    0  0.70058895585E+02  0.42402067759E+02 -0.15063329059E+03  0.17145428672E+03  0.00000000000E+00 0.  1.
         12    1    4    4    0    0  0.25251216657E+02  0.91956080860E+02 -0.93454845895E+02  0.13351911088E+03  0.00000000000E+00 0. -1.
        -11    1    3    3    0    0 -0.25295988052E+02  0.36547608294E+01  0.15611414510E+02  0.29949299678E+02  0.00000000000E+00 0. -1.
         11    1    3    3    0    0  0.13266615137E+00 -0.44940837340E+02 -0.78996432128E+02  0.90885272460E+02  0.00000000000E+00 0.  1.
         21    1    1    2  503  501 -0.15707958474E+02 -0.30909476787E+02 -0.24588595943E+03  0.24831842614E+03  0.00000000000E+00 0. -1.
          1    1    1    2  501    0 -0.54438831868E+02 -0.62162595322E+02  0.36126755556E+02  0.90182687581E+02  0.00000000000E+00 0. -1.
<scales pt_clust_5="13000.00000" pt_clust_6="13000.00000" pt_clust_7="13000.00000" pt_clust_8="13000.00000" pt_clust_9="34.67183" pt_clust_10="84.93941"></scales>
<clustering>
<clus scale="   34.672">  2  9  1 -1</clus>
<clus scale="   79.332">  5  6 -1 -1</clus>
<clus scale="   84.939">  2 10  1 -1</clus>
<clus scale="   90.805">  7  8 -1 -1</clus>
<clus scale="  110.934">  2  5  1 -1</clus>
<clus scale="   34.672">  2  5  1 -1</clus>
</clustering>
</event>
<event>
10    4  0.7204077E-005  0.2239461E+03  0.7546771E-02  0.1131688E+00
          2   -1    0    0  503    0 -0.00000000000E+00  0.00000000000E+00  0.11637453205E+04  0.11637453205E+04  0.00000000000E+00 0. -1.
         21   -1    0    0  501  502  0.00000000000E+00 -0.00000000000E+00 -0.13057725282E+03  0.13057725282E+03  0.00000000000E+00 0.  1.
         24    2    1    2    0    0 -0.23028074475E+03  0.75380525393E+02  0.68826703160E+03  0.73406540272E+03  0.80181442151E+02 0.  0.
         23    2    1    2    0    0  0.87247212493E+02 -0.15246466815E+03  0.22018783153E+03  0.29578880990E+03  0.90281713471E+02 0.  0.
        -13    1    3    3    0    0 -0.19628707294E+03  0.41417006729E+02  0.61084749601E+03  0.64294529070E+03  0.00000000000E+00 0.  1.
         14    1    3    3    0    0 -0.33993671807E+02  0.33963518664E+02  0.77419535595E+02  0.91120112021E+02  0.00000000000E+00 0. -1.
        -13    1    4    4    0    0  0.99540564271E+02 -0.11830588427E+03  0.14350325898E+03  0.21094499645E+03  0.00000000000E+00 0.  1.
         13    1    4    4    0    0 -0.12293351779E+02 -0.34158783877E+02  0.76684572552E+02  0.84843813454E+02  0.00000000000E+00 0. -1.
         21    1    1    2  503  502  0.52414086820E+02 -0.37870377109E+02 -0.10124658699E+02  0.65451590304E+02  0.00000000000E+00 0.  1.
          1    1    1    2  501    0  0.90619445437E+02  0.11495451986E+03  0.13483786320E+03  0.19901677035E+03  0.00000000000E+00 0. -1.
<scales pt_clust_5="13000.00000" pt_clust_6="13000.00000" pt_clust_7="13000.00000" pt_clust_8="13000.00000" pt_clust_9="64.66376" pt_clust_10="148.99890"></scales>
<clustering>
<clus scale="   64.664">  2  9  1 -1</clus>
<clus scale="   80.181">  5  6 -1 -1</clus>
<clus scale="   90.282">  7  8 -1 -1</clus>
<clus scale="  148.999">  2 10  1 -1</clus>
<clus scale="  220.069">  1  5  2 -1</clus>
<clus scale="   64.664">  2  5  1 -1</clus>
</clustering>
</event>
<event>
10    4  0.7204077E-005  0.1927294E+03  0.7546771E-02  0.1179183E+00
          2   -1    0    0  503    0 -0.00000000000E+00  0.00000000000E+00  0.36593867629E+03  0.36593867629E+03  0.00000000000E+00 0. -1.
         21   -1    0    0  501  502  0.00000000000E+00 -0.00000000000E+00 -0.60017089644E+03  0.60017089644E+03  0.00000000000E+00 0. -1.
         24    2    1    2    0    0  0.39108374647E+02  0.70091947786E+02  0.28151467602E+03  0.30357097005E+03  0.80389520060E+02 0.  0.
         23    2    1    2    0    0  0.14496698095E+03 -0.18138175836E+02 -0.26080523310E+03  0.31294208997E+03  0.92568693807E+02 0.  0.
        -13    1    3    3    0    0  0.46623108867E+02  0.54724914024E+01  0.14370240047E+03  0.15117553487E+03  0.00000000000E+00 0.  1.
         14    1    3    3    0    0 -0.75147342203E+01  0.64619456384E+02  0.13781227555E+03  0.15239543519E+03  0.00000000000E+00 0. -1.
        -11    1    4    4    0    0  0.30220347454E+02 -0.25153605154E+02 -0.14312974926E+03  0.14843213391E+03  0.00000000000E+00 0.  1.
         11    1    4    4    0    0  0.11474663349E+03  0.70154293181E+01 -0.11767548384E+03  0.16450995606E+03  0.00000000000E+00 0. -1.
         21    1    1    2  503  502  0.12471916665E+02 -0.37593827494E+02 -0.63547222426E+02  0.74880531843E+02  0.00000000000E+00 0.  1.
          1    1    1    2  501    0 -0.19654727226E+03 -0.14359944456E+02 -0.19139444064E+03  0.27471598087E+03  0.00000000000E+00 0. -1.
<scales pt_clust_5="13000.00000" pt_clust_6="13000.00000" pt_clust_7="13000.00000" pt_clust_8="13000.00000" pt_clust_9="39.60864" pt_clust_10="169.04341"></scales>
<clustering>
<clus scale="   39.609">  2  9  1 -1</clus>
<clus scale="   80.390">  5  6 -1 -1</clus>
<clus scale="   92.569">  7  8 -1 -1</clus>
<clus scale="  113.209">  1  5  2 -1</clus>
<clus scale="  169.043">  2 10  1 -1</clus>
<clus scale="   39.609">  2  5  1 -1</clus>
</clustering>
</event>
<event>
10    4  0.7204077E-005  0.2937412E+03  0.7546771E-02  0.1123908E+00
          2   -1    0    0  503    0 -0.00000000000E+00  0.00000000000E+00  0.18853197868E+04  0.18853197868E+04  0.00000000000E+00 0. -1.
         21   -1    0    0  501  502  0.00000000000E+00 -0.00000000000E+00 -0.80663200396E+02  0.80663200396E+02  0.00000000000E+00 0.  1.
         24    2    1    2    0    0  0.19267312442E+02 -0.66102742741E+02  0.24578950272E+03  0.27216670803E+03  0.94453350329E+02 0.  0.
         23    2    1    2    0    0  0.18352078882E+03  0.19510202107E+03  0.55171229103E+03  0.62032355394E+03  0.93113806379E+02 0.  0.
        -13    1    3    3    0    0 -0.23541704660E+02  0.11368378868E+02  0.80947752543E+02  0.85064625657E+02  0.00000000000E+00 0.  1.
         14    1    3    3    0    0  0.42809017103E+02 -0.77471121609E+02  0.16484175018E+03  0.18710208238E+03  0.00000000000E+00 0. -1.
        -11    1    4    4    0    0  0.16723344399E+03  0.12286958142E+03  0.37224524669E+03  0.42618127894E+03  0.00000000000E+00 0.  1.
         11    1    4    4    0    0  0.16287344824E+02  0.72232439650E+02  0.17946704434E+03  0.19414227500E+03  0.00000000000E+00 0. -1.
         21    1    1    2  503  502  0.66829217140E+02  0.10363474655E+02  0.20306093312E+03  0.21402637321E+03  0.00000000000E+00 0.  1.
          1    1    1    2  501    0 -0.26961731840E+03 -0.13936275298E+03  0.80409385949E+03  0.85946635197E+03  0.00000000000E+00 0. -1.
<scales pt_clust_5="13000.00000" pt_clust_6="13000.00000" pt_clust_7="13000.00000" pt_clust_8="13000.00000" pt_clust_9="67.62800" pt_clust_10="278.59246"></scales>
<clustering>
<clus scale="   67.628">  1  9  2 -1</clus>
<clus scale="   93.114">  7  8 -1 -1</clus>
<clus scale="   94.453">  5  6 -1 -1</clus>
<clus scale="  118.142">  1  5  2 -1</clus>
<clus scale="  278.592">  2 10  1 -1</clus>
<clus scale="  278.592">  2  5  1 -1</clus>
</clustering>
</event>
<event>
10    4  0.7204077E-005  0.1075498E+03  0.7546771E-02  0.1270465E+00
          2   -1    0    0  502    0 -0.00000000000E+00  0.00000000000E+00  0.28411439610E+03  0.28411439610E+03  0.00000000000E+00 0. -1.
         21   -1    0    0  503  502  0.00000000000E+00 -0.00000000000E+00 -0.13002224312E+03  0.13002224312E+03  0.00000000000E+00 0. -1.
         24    2    1    2    0    0  0.38458760717E+02  0.84554149251E+02  0.77138374021E+02  0.14427294654E+03  0.78967549823E+02 0.  0.
         23    2    1    2    0    0 -0.20901083710E+01  0.78459966765E+01 -0.21014532503E+02  0.94287893020E+02  0.91556911137E+02 0.  0.
        -13    1    3    3    0    0  0.37013011849E+02  0.26613641878E+02 -0.26394419871E+01  0.45664161376E+02  0.00000000000E+00 0.  1.
         14    1    3    3    0    0  0.14457488685E+01  0.57940507373E+02  0.79777816008E+02  0.98608785164E+02  0.00000000000E+00 0. -1.
        -11    1    4    4    0    0  0.58548434877E+01  0.49327103726E+02 -0.11968814243E+02  0.51094959328E+02  0.00000000000E+00 0.  1.
         11    1    4    4    0    0 -0.79449518588E+01 -0.41481107050E+02 -0.90457182594E+01  0.43192933692E+02  0.00000000000E+00 0. -1.
         21    1    1    2  503  501 -0.35972582985E+01 -0.21135207391E+02 -0.22974356674E+02  0.31423849594E+02  0.00000000000E+00 0. -1.
          1    1    1    2  501    0 -0.32771394048E+02 -0.71264938537E+02  0.12094266814E+03  0.14415195007E+03  0.00000000000E+00 0. -1.
<scales pt_clust_5="13000.00000" pt_clust_6="13000.00000" pt_clust_7="13000.00000" pt_clust_8="13000.00000" pt_clust_9="21.43915" pt_clust_10="80.77813"></scales>
<clustering>
<clus scale="   21.439">  2  9  1 -1</clus>
<clus scale="   78.968">  5  6 -1 -1</clus>
<clus scale="   80.778">  2 10  1 -1</clus>
<clus scale="   91.557">  7  8 -1 -1</clus>
<clus scale="   97.058">  1  5  2 -1</clus>
<clus scale="   21.439">  2  5  1 -1</clus>
</clustering>
</event>
<event>
10    4  0.7204077E-005  0.1529437E+03  0.7546771E-02  0.1222663E+00
          2   -1    0    0  503    0 -0.00000000000E+00  0.00000000000E+00  0.11313930623E+04  0.11313930623E+04  0.00000000000E+00 0. -1.
         21   -1    0    0  501  502  0.00000000000E+00 -0.00000000000E+00 -0.50520460722E+02  0.50520460722E+02  0.00000000000E+00 0. -1.
         24    2    1    2    0    0  0.41131117071E+02  0.26076573344E+02  0.26002806254E+03  0.27624591671E+03  0.79532739941E+02 0.  0.
         23    2    1    2    0    0 -0.10179584766E+03  0.46731433352E+02  0.46751397713E+03  0.49066451462E+03  0.98163769446E+02 0.  0.
        -11    1    3    3    0    0  0.49238235111E+02 -0.72221805014E+01  0.90421640641E+02  0.10321161167E+03  0.00000000000E+00 0.  1.
         12    1    3    3    0    0 -0.81071180400E+01  0.33298753846E+02  0.16960642190E+03  0.17303430504E+03  0.00000000000E+00 0. -1.
        -11    1    4    4    0    0 -0.93032484283E+02 -0.45467777173E+01  0.34939580353E+03  0.36159804181E+03  0.00000000000E+00 0. -1.
         11    1    4    4    0    0 -0.87633633808E+01  0.51278211069E+02  0.11811817360E+03  0.12906647280E+03  0.00000000000E+00 0.  1.
         21    1    1    2  503  502 -0.46166069749E+02 -0.49882952337E+01  0.78707563475E+01  0.47097111280E+02  0.00000000000E+00 0. -1.
          1    1    1    2  501    0  0.10683080034E+03 -0.67819711463E+02  0.34545980559E+03  0.36790598044E+03  0.00000000000E+00 0. -1.
<scales pt_clust_5="13000.00000" pt_clust_6="13000.00000" pt_clust_7="13000.00000" pt_clust_8="13000.00000" pt_clust_9="46.43478" pt_clust_10="117.28453"></scales>
<clustering>
<clus scale="   46.435">  2  9  1 -1</clus>
<clus scale="   79.533">  5  6 -1 -1</clus>
<clus scale="   88.210">  1  5  2 -1</clus>
<clus scale="   98.164">  7  8 -1 -1</clus>
<clus scale="  117.285">  2 10  1 -1</clus>
<clus scale="   46.435">  2  5  1 -1</clus>
</clustering>
</event>
<event>
10    4  0.7204077E-005  0.1464677E+03  0.7546771E-02  0.1225828E+00
         21   -1    0    0  501  502  0.00000000000E+00  0.00000000000E+00  0.80198654485E+02  0.80198654485E+02  0.00000000000E+00 0.  1.
          2   -1    0    0  503    0 -0.00000000000E+00 -0.00000000000E+00 -0.72136712223E+03  0.72136712223E+03  0.00000000000E+00 0. -1.
         23    2    1    2    0    0  0.24889955740E+02  0.97738763732E+01 -0.29565368522E+03  0.30994687147E+03  0.89111856637E+02 0.  0.
         24    2    1    2    0    0 -0.13793061957E+03  0.25183967732E+02 -0.22259248021E+03  0.27526044014E+03  0.81004997458E+02 0.  0.
        -13    1    4    4    0    0 -0.12369561041E+03  0.40800635385E+02 -0.14531251604E+03  0.19514359636E+03  0.00000000000E+00 0.  1.
         14    1    4    4    0    0 -0.14235009156E+02 -0.15616667653E+02 -0.77279964174E+02  0.80116843778E+02  0.00000000000E+00 0. -1.
        -11    1    3    3    0    0  0.33842217269E+02 -0.33856596252E+02 -0.13512355126E+03  0.14335249871E+03  0.00000000000E+00 0.  1.
         11    1    3    3    0    0 -0.89522615281E+01  0.43630472625E+02 -0.16053013395E+03  0.16659437276E+03  0.00000000000E+00 0. -1.
         21    1    1    2  503  502  0.16487646071E+02  0.22300189376E+02  0.20313071845E+02  0.34376762602E+02  0.00000000000E+00 0.  1.
          1    1    1    2  501    0  0.96553017759E+02 -0.57258033481E+02 -0.14323537416E+03  0.18198170251E+03  0.00000000000E+00 0. -1.
<scales pt_clust_5="13000.00000" pt_clust_6="13000.00000" pt_clust_7="13000.00000" pt_clust_8="13000.00000" pt_clust_9="27.73339" pt_clust_10="122.02864"></scales>
<clustering>
<clus scale="   27.733">  1  9  2 -1</clus>
<clus scale="   81.005">  5  6 -1 -1</clus>
<clus scale="   89.112">  7  8 -1 -1</clus>
<clus scale="   94.021">  2  7  1 -1</clus>
<clus scale="  122.029">  1 10  2 -1</clus>
<clus scale="   27.733">  1  5  2 -1</clus>
</clustering>
</event>
<event>
10    4  0.7204077E-005  0.1830938E+03  0.7546771E-02  0.1196509E+00
         21   -1    0    0  503  502  0.00000000000E+00  0.00000000000E+00  0.65043283544E+03  0.65043283544E+03  0.00000000000E+00 0. -1.
          2   -1    0    0  502    0 -0.00000000000E+00 -0.00000000000E+00 -0.39569666194E+03  0.39569666194E+03  0.00000000000E+00 0. -1.
         24    2    1    2    0    0  0.33617913238E+02  0.62768525513E+02  0.17542682207E+03  0.20546689713E+03  0.79824958678E+02 0.  0.
         23    2    1    2    0    0 -0.25547427289E+02 -0.15752381287E+03 -0.89387773663E+02  0.20606582009E+03  0.94902715795E+02 0.  0.
        -13    1    3    3    0    0  0.19951852001E+02  0.23820869218E+02  0.67289446168E+01  0.31792906507E+02  0.00000000000E+00 0.  1.
         14    1    3    3    0    0  0.13666061237E+02  0.38947656296E+02  0.16869787745E+03  0.17367399062E+03  0.00000000000E+00 0. -1.
        -13    1    4    4    0    0  0.95805005265E+01 -0.25251734259E+02 -0.60412766060E+02  0.66175058568E+02  0.00000000000E+00 0.  1.
         13    1    4    4    0    0 -0.35127927816E+02 -0.13227207861E+03 -0.28975007604E+02  0.13989076152E+03  0.00000000000E+00 0. -1.
         21    1    1    2  503  501 -0.48933065219E+01 -0.49055506552E+02  0.37768513337E+03  0.38088902208E+03  0.00000000000E+00 0. -1.
          1    1    1    2  501    0 -0.31771794267E+01  0.14381079391E+03 -0.20898800828E+03  0.25370775809E+03  0.00000000000E+00 0. -1.
<scales pt_clust_5="13000.00000" pt_clust_6="13000.00000" pt_clust_7="13000.00000" pt_clust_8="13000.00000" pt_clust_9="49.29896" pt_clust_10="156.57856"></scales>
<clustering>
<clus scale="   49.299">  1  9  2 -1</clus>
<clus scale="   79.825">  5  6 -1 -1</clus>
<clus scale="   89.914">  2  5  1 -1</clus>
<clus scale="   94.903">  7  8 -1 -1</clus>
<clus scale="  156.579">  1 10  2 -1</clus>
<clus scale="   49.299">  1  5  2 -1</clus>
</clustering>
</event>
<event>
10    4  0.7204077E-005  0.1136484E+03  0.7546771E-02  0.1256797E+00
         -1   -1    0    0    0  501 -0.00000000000E+00  0.00000000000E+00  0.10391309829E+03  0.10391309829E+03  0.00000000000E+00 0.  1.
         21   -1    0    0  503  502  0.00000000000E+00 -0.00000000000E+00 -0.33146119682E+03  0.33146119682E+03  0.00000000000E+00 0. -1.
         23    2    1    2    0    0 -0.75835639238E+02  0.37754945714E+01  0.31614537168E+02  0.12121434420E+03  0.89040101867E+02 0.  0.
         24    2    1    2    0    0  0.46626135814E+02  0.15617974122E+02 -0.19540519750E+03  0.21715391949E+03  0.80961199873E+02 0.  0.
        -11    1    4    4    0    0  0.12698545910E+02 -0.22496326947E+02 -0.15442103118E+02  0.30096450672E+02  0.00000000000E+00 0.  1.
         12    1    4    4    0    0  0.33927589904E+02  0.38114301068E+02 -0.17996309438E+03  0.18705746882E+03  0.00000000000E+00 0. -1.
        -13    1    3    3    0    0 -0.85489425136E+02  0.28384943594E+02  0.19646450221E+02  0.92196148723E+02  0.00000000000E+00 0.  1.
         13    1    3    3    0    0  0.96537858980E+01 -0.24609449022E+02  0.11968086947E+02  0.29018195473E+02  0.00000000000E+00 0. -1.
         21    1    1    2  503  501 -0.94697904496E+00  0.20916884240E+02 -0.29252240935E+02  0.35973690600E+02  0.00000000000E+00 0. -1.
         -2    1    1    2    0  502  0.30156482469E+02 -0.40310352933E+02 -0.34505197270E+02  0.61032340830E+02  0.00000000000E+00 0.  1.
<scales pt_clust_5="13000.00000" pt_clust_6="13000.00000" pt_clust_7="13000.00000" pt_clust_8="13000.00000" pt_clust_9="20.93831" pt_clust_10="47.61157"></scales>
<clustering>
<clus scale="   20.938">  2  9  1 -1</clus>
<clus scale="   47.612">  2 10  1 -1</clus>
<clus scale="   80.961">  5  6 -1 -1</clus>
<clus scale="   89.040">  7  8 -1 -1</clus>
<clus scale="  107.436">  2  5  1 -1</clus>
<clus scale="   20.938">  2  5  1 -1</clus>
</clustering>
</event>
<event>
10    4  0.7204077E-005  0.1751042E+03  0.7546771E-02  0.1185315E+00
          2   -1    0    0  502    0 -0.00000000000E+00  0.00000000000E+00  0.92624827596E+03  0.92624827596E+03  0.00000000000E+00 0. -1.
         21   -1    0    0  503  502  0.00000000000E+00 -0.00000000000E+00 -0.70530282566E+02  0.70530282566E+02  0.00000000000E+00 0. -1.
         24    2    1    2    0    0 -0.92802233711E+02  0.45329915995E+02  0.41205207916E+03  0.43255201693E+03  0.81530825746E+02 0.  0.
         23    2    1    2    0    0  0.93020852142E+01  0.11479973498E+03  0.25035561832E+03  0.29252144260E+03  0.98108872257E+02 0.  0.
        -11    1    3    3    0    0 -0.97273083683E+02  0.36522220087E+02  0.25733243239E+03  0.27751739789E+03  0.00000000000E+00 0.  1.
         12    1    3    3    0    0  0.44708499722E+01  0.88076959079E+01  0.15471964676E+03  0.15503461904E+03  0.00000000000E+00 0. -1.
        -13    1    4    4    0    0 -0.41235611870E+02  0.68488081699E+02  0.16238763691E+03  0.18099927526E+03  0.00000000000E+00 0.  1.
         13    1    4    4    0    0  0.50537697084E+02  0.46311653285E+02  0.87967981405E+02  0.11152216734E+03  0.00000000000E+00 0. -1.
         21    1    1    2  503  501  0.19295092508E+02 -0.28890959218E+02  0.78652917616E+01  0.35620933929E+02  0.00000000000E+00 0. -1.
          1    1    1    2  501    0  0.64205055988E+02 -0.13123869176E+03  0.18544500416E+03  0.23608416507E+03  0.00000000000E+00 0. -1.
<scales pt_clust_5="13000.00000" pt_clust_6="13000.00000" pt_clust_7="13000.00000" pt_clust_8="13000.00000" pt_clust_9="30.22177" pt_clust_10="157.72492"></scales>
<clustering>
<clus scale="   30.222">  9 10 -1 -1</clus>
<clus scale="   81.531">  5  6 -1 -1</clus>
<clus scale="   98.109">  7  8 -1 -1</clus>
<clus scale="  131.584">  1  5  2 -1</clus>
<clus scale="  157.725">  2  9  1 -1</clus>
<clus scale="  157.725">  2  5  1 -1</clus>
</clustering>
</event>
<event>
10    4  0.7204077E-005  0.1207093E+03  0.7546771E-02  0.1254943E+00
         21   -1    0    0  501  502  0.00000000000E+00  0.00000000000E+00  0.18669818591E+03  0.18669818591E+03  0.00000000000E+00 0. -1.
         -3   -1    0    0    0  501 -0.00000000000E+00 -0.00000000000E+00 -0.20914327508E+03  0.20914327508E+03  0.00000000000E+00 0.  1.
         24    2    1    2    0    0 -0.35275597611E+02 -0.15752036530E+02  0.14267713083E+02  0.90435790442E+02  0.80514409360E+02 0.  0.
         23    2    1    2    0    0 -0.35010949767E+02  0.41677720526E+02 -0.52300648908E+02  0.11838873872E+03  0.91201626014E+02 0.  0.
        -11    1    3    3    0    0 -0.56137948969E+02 -0.30287992846E+02  0.83743013734E+01  0.64334755370E+02  0.00000000000E+00 0.  1.
         12    1    3    3    0    0  0.20862351358E+02  0.14535956316E+02  0.58934117099E+01  0.26101035071E+02  0.00000000000E+00 0. -1.
        -11    1    4    4    0    0  0.20151403230E+02  0.45136831092E+02 -0.14807489025E+02  0.51601107589E+02  0.00000000000E+00 0.  1.
         11    1    4    4    0    0 -0.55162352996E+02 -0.34591105658E+01 -0.37493159884E+02  0.66787631131E+02  0.00000000000E+00 0. -1.
         21    1    1    2  503  502 -0.23448647772E+02  0.15757963645E+02  0.66675788308E+02  0.72414178494E+02  0.00000000000E+00 0. -1.
         -4    1    1    2    0  503  0.93735195149E+02 -0.41683647641E+02 -0.51087941657E+02  0.11460275334E+03  0.00000000000E+00 0.  1.
<scales pt_clust_5="13000.00000" pt_clust_6="13000.00000" pt_clust_7="13000.00000" pt_clust_8="13000.00000" pt_clust_9="28.25159" pt_clust_10="79.07588"></scales>
<clustering>
<clus scale="   28.252">  1  9  2 -1</clus>
<clus scale="   80.514">  5  6 -1 -1</clus>
<clus scale="   91.202">  7  8 -1 -1</clus>
<clus scale="   93.015">  2  5  1 -1</clus>
<clus scale="   79.076">  1 10  2 -1</clus>
<clus scale="   28.252">  1  5  2 -1</clus>
</clustering>
</event>
<event>
10    4  0.7204077E-005  0.2363707E+03  0.7546771E-02  0.1161205E+00
         21   -1    0    0  503  502  0.00000000000E+00  0.00000000000E+00  0.51866480925E+03  0.51866480925E+03  0.00000000000E+00 0.  1.
          2   -1    0    0  502    0 -0.00000000000E+00 -0.00000000000E+00 -0.75901924953E+03  0.75901924953E+03  0.00000000000E+00 0. -1.
         23    2    1    2    0    0 -0.12904786908E+02 -0.10334047996E+02  0.67640757625E+02  0.11528302074E+03  0.91878053450E+02 0.  0.
         24    2    1    2    0    0  0.20768595636E+03  0.21961155759E+02  0.34224087087E+03  0.40852469035E+03  0.78408291021E+02 0.  0.
        -11    1    4    4    0    0  0.18169716328E+03  0.51878933244E+01  0.23608682695E+03  0.29795597533E+03  0.00000000000E+00 0.  1.
         12    1    4    4    0    0  0.25988793079E+02  0.16773262434E+02  0.10615404393E+03  0.11056871502E+03  0.00000000000E+00 0. -1.
        -11    1    3    3    0    0 -0.14129407612E+02 -0.50845604309E+02  0.36359257765E+02  0.64085187541E+02  0.00000000000E+00 0.  1.
         11    1    3    3    0    0  0.12246207045E+01  0.40511556313E+02  0.31281499860E+02  0.51197833198E+02  0.00000000000E+00 0. -1.
         21    1    1    2  503  501  0.15182620564E+02  0.26878085523E+02  0.28713999716E+02  0.42159663522E+02  0.00000000000E+00 0.  1.
          1    1    1    2  501    0 -0.20996379001E+03 -0.38505193285E+02 -0.67895006849E+03  0.71171668417E+03  0.00000000000E+00 0. -1.
<scales pt_clust_5="13000.00000" pt_clust_6="13000.00000" pt_clust_7="13000.00000" pt_clust_8="13000.00000" pt_clust_9="30.86978" pt_clust_10="222.98720"></scales>
<clustering>
<clus scale="   30.870">  1  9  2 -1</clus>
<clus scale="   78.408">  5  6 -1 -1</clus>
<clus scale="   91.878">  7  8 -1 -1</clus>
<clus scale="   92.573">  2  7  1 -1</clus>
<clus scale="  222.987">  1 10  2 -1</clus>
<clus scale="   30.870">  1  5  2 -1</clus>
</clustering>
</event>
<event>
10    4  0.7204077E-005  0.1072369E+03  0.7546771E-02  0.1271002E+00
         21   -1    0    0  501  502  0.00000000000E+00  0.00000000000E+00  0.11461740059E+03  0.11461740059E+03  0.00000000000E+00 0.  1.
          2   -1    0    0  503    0 -0.00000000000E+00 -0.00000000000E+00 -0.40261834649E+03  0.40261834649E+03  0.00000000000E+00 0. -1.
         24    2    1    2    0    0 -0.46742167367E+02  0.88099049850E+00 -0.15297566314E+03  0.17896708305E+03  0.80262425504E+02 0.  0.
         23    2    1    2    0    0  0.10521098763E+03 -0.54923445475E+01  0.32107554884E+02  0.14381553422E+03  0.92479700673E+02 0.  0.
        -13    1    3    3    0    0 -0.43637939792E+02 -0.27215000666E+02 -0.13736335244E+03  0.14667520801E+03  0.00000000000E+00 0.  1.
         14    1    3    3    0    0 -0.31042275751E+01  0.28095991164E+02 -0.15612310700E+02  0.32291875042E+02  0.00000000000E+00 0. -1.
        -11    1    4    4    0    0  0.58765151921E+02 -0.80772756199E+01  0.64117977711E+02  0.87348156978E+02  0.00000000000E+00 0.  1.
         11    1    4    4    0    0  0.46445835711E+02  0.25849310724E+01 -0.32010422827E+02  0.56467377246E+02  0.00000000000E+00 0. -1.
         21    1    1    2  503  502 -0.24338687826E+02 -0.17837938348E+02 -0.95341179991E+01  0.31645902983E+02  0.00000000000E+00 0. -1.
          1    1    1    2  501    0 -0.34130132439E+02  0.22449292397E+02 -0.15759871964E+03  0.16280722681E+03  0.00000000000E+00 0. -1.
<scales pt_clust_5="13000.00000" pt_clust_6="13000.00000" pt_clust_7="13000.00000" pt_clust_8="13000.00000" pt_clust_9="30.17555" pt_clust_10="41.12241"></scales>
<clustering>
<clus scale="   30.176">  1  9  2 -1</clus>
<clus scale="   41.122">  1 10  2 -1</clus>
<clus scale="   80.262">  5  6 -1 -1</clus>
<clus scale="   92.480">  7  8 -1 -1</clus>
<clus scale="   96.898">  2  5  1 -1</clus>
<clus scale="   30.176">  1  5  2 -1</clus>
</clustering>
</event>
<event>
10    4  0.7204077E-005  0.2364024E+03  0.7546771E-02  0.1122504E+00
         -1   -1    0    0    0  501 -0.00000000000E+00  0.00000000000E+00  0.59632554103E+03  0.59632554103E+03  0.00000000000E+00 0.  1.
         21   -1    0    0  501  502  0.00000000000E+00 -0.00000000000E+00 -0.20896254637E+03  0.20896254637E+03  0.00000000000E+00 0.  1.
         23    2    1    2    0    0  0.10918640752E+03 -0.20857627988E+03  0.42417830546E+03  0.49308608036E+03  0.88209476328E+02 0.  0.
         24    2    1    2    0    0 -0.79734061621E+02  0.14642899554E+03 -0.35417585706E+02  0.18981350519E+03  0.83521195261E+02 0.  0.
        -13    1    4    4    0    0 -0.53519771490E+02  0.29291720247E+02 -0.33841792103E+02  0.69768457831E+02  0.00000000000E+00 0.  1.
         14    1    4    4    0    0 -0.26214290131E+02  0.11713727529E+03 -0.15757936026E+01  0.12004504736E+03  0.00000000000E+00 0. -1.
        -11    1    3    3    0    0  0.15880695662E+02 -0.89702737274E+02  0.22745641808E+03  0.24502081482E+03  0.00000000000E+00 0.  1.
         11    1    3    3    0    0  0.93305711857E+02 -0.11887354261E+03  0.19672188737E+03  0.24806526554E+03  0.00000000000E+00 0. -1.
         21    1    1    2  503  502 -0.11101356346E+02 -0.22759120553E+02 -0.21508571874E+02  0.33224032644E+02  0.00000000000E+00 0. -1.
         -2    1    1    2    0  503 -0.18350989553E+02  0.84906404897E+02  0.20110846787E+02  0.89164469205E+02  0.00000000000E+00 0.  1.
<scales pt_clust_5="13000.00000" pt_clust_6="13000.00000" pt_clust_7="13000.00000" pt_clust_8="13000.00000" pt_clust_9="25.32228" pt_clust_10="83.13659"></scales>
<clustering>
<clus scale="   25.322">  2  9  1 -1</clus>
<clus scale="   83.137">  2 10  1 -1</clus>
<clus scale="   83.521">  5  6 -1 -1</clus>
<clus scale="   88.209">  7  8 -1 -1</clus>
<clus scale="  234.693">  2  5  1 -1</clus>
<clus scale="   25.322">  2  5  1 -1</clus>
</clustering>
</event>
<event>
10    4  0.7204077E-005  0.1689492E+03  0.7546771E-02  0.1190994E+00
         -3   -1    0    0    0  501 -0.00000000000E+00  0.00000000000E+00  0.26839645237E+03  0.26839645237E+03  0.00000000000E+00 0.  1.
         21   -1    0    0  503  502  0.00000000000E+00 -0.00000000000E+00 -0.47183474605E+03  0.47183474605E+03  0.00000000000E+00 0.  1.
         24    2    1    2    0    0  0.45733343481E+02  0.93771715687E+02  0.48779703354E+02  0.13999181310E+03  0.79583760328E+02 0.  0.
         23    2    1    2    0    0 -0.59988611970E+02  0.56794332444E+02  0.86602068925E+02  0.15268603956E+03  0.94809696600E+02 0.  0.
        -11    1    3    3    0    0 -0.57696225649E+01  0.36885735889E+02 -0.14975348670E+02  0.40225702286E+02  0.00000000000E+00 0.  1.
         12    1    3    3    0    0  0.51502966046E+02  0.56885979798E+02  0.63755052024E+02  0.99766110818E+02  0.00000000000E+00 0. -1.
        -11    1    4    4    0    0 -0.16087126410E+02  0.21402809934E+02 -0.19095733675E+02  0.32886516292E+02  0.00000000000E+00 0. -1.
         11    1    4    4    0    0 -0.43901485559E+02  0.35391522510E+02  0.10569780260E+03  0.11979952326E+03  0.00000000000E+00 0.  1.
         21    1    1    2  503  501 -0.79183463503E+02  0.15668799194E+02 -0.18742450798E+03  0.20406733779E+03  0.00000000000E+00 0.  1.
         -4    1    1    2    0  502  0.93438731992E+02 -0.16623484732E+03 -0.15139555799E+03  0.24348600797E+03  0.00000000000E+00 0.  1.
<scales pt_clust_5="13000.00000" pt_clust_6="13000.00000" pt_clust_7="13000.00000" pt_clust_8="13000.00000" pt_clust_9="80.71885" pt_clust_10="139.83907"></scales>
<clustering>
<clus scale="   79.584">  5  6 -1 -1</clus>
<clus scale="   80.719">  2  9  1 -1</clus>
<clus scale="   94.810">  7  8 -1 -1</clus>
<clus scale="  129.171">  1  5  2 -1</clus>
<clus scale="  139.839">  2 10  1 -1</clus>
<clus scale="   80.719">  2  5  1 -1</clus>
</clustering>
</event>
<event>
10    4  0.7204077E-005  0.1793360E+03  0.7546771E-02  0.1169791E+00
         21   -1    0    0  501  502  0.00000000000E+00  0.00000000000E+00  0.92191405930E+02  0.92191405930E+02  0.00000000000E+00 0. -1.
          2   -1    0    0  503    0 -0.00000000000E+00 -0.00000000000E+00 -0.94623249742E+03  0.94623249742E+03  0.00000000000E+00 0. -1.
         24    2    1    2    0    0  0.34407182812E+02 -0.14245695538E+03 -0.34718588999E+03  0.38496914470E+03  0.78647071145E+02 0.  0.
         23    2    1    2    0    0 -0.18688173479E+02  0.17147347837E+03 -0.22292458886E+03  0.29589395710E+03  0.90030327765E+02 0.  0.
        -13    1    3    3    0    0  0.35436877629E+02 -0.28102544905E+02 -0.15368026347E+03  0.16019721816E+03  0.00000000000E+00 0.  1.
         14    1    3    3    0    0 -0.10296948171E+01 -0.11435441047E+03 -0.19350562652E+03  0.22477192654E+03  0.00000000000E+00 0. -1.
        -11    1    4    4    0    0 -0.17329531936E+01  0.44847755072E+02 -0.13107934537E+03  0.13855005970E+03  0.00000000000E+00 0.  1.
         11    1    4    4    0    0 -0.16955220286E+02  0.12662572330E+03 -0.91845243491E+02  0.15734389740E+03  0.00000000000E+00 0. -1.
         21    1    1    2  503  502 -0.58739634539E+02 -0.16778479445E+02  0.85460949903E+01  0.61683853462E+02  0.00000000000E+00 0.  1.
          1    1    1    2  501    0  0.43020625207E+02 -0.12238043547E+02 -0.29247670764E+03  0.29587694809E+03  0.00000000000E+00 0. -1.
<scales pt_clust_5="13000.00000" pt_clust_6="13000.00000" pt_clust_7="13000.00000" pt_clust_8="13000.00000" pt_clust_9="47.23621" pt_clust_10="44.72746"></scales>
<clustering>
<clus scale="   44.727">  1 10  2 -1</clus>
<clus scale="   47.236">  1  9  2 -1</clus>
<clus scale="   78.647">  5  6 -1 -1</clus>
<clus scale="   90.030">  7  8 -1 -1</clus>
<clus scale="  173.900">  2  5  1 -1</clus>
<clus scale="   44.727">  1  5  2 -1</clus>
</clustering>
</event>
<event>
10    4  0.7204077E-005  0.1376733E+03  0.7546771E-02  0.1219336E+00
         21   -1    0    0  503  502  0.00000000000E+00  0.00000000000E+00  0.13652304381E+03  0.13652304381E+03  0.00000000000E+00 0.  1.
          2   -1    0    0  502    0 -0.00000000000E+00 -0.00000000000E+00 -0.36771224019E+03  0.36771224019E+03  0.00000000000E+00 0. -1.
         24    2    1    2    0    0 -0.77014596088E+02  0.89184973191E+02 -0.15300343130E+03  0.20874450299E+03  0.79240204998E+02 0.  0.
         23    2    1    2    0    0  0.74218499251E+02 -0.40238149650E+02 -0.56583911829E+02  0.13692102867E+03  0.91750393436E+02 0.  0.
        -11    1    3    3    0    0 -0.77063771759E+02  0.10271167887E+03 -0.13648849692E+03  0.18739696819E+03  0.00000000000E+00 0.  1.
         12    1    3    3    0    0  0.49175670276E-01 -0.13526705682E+02 -0.16514934378E+02  0.21347534808E+02  0.00000000000E+00 0. -1.
        -13    1    4    4    0    0  0.31434852528E+02 -0.61682157835E+02 -0.96660991390E+01  0.69901874232E+02  0.00000000000E+00 0.  1.
         13    1    4    4    0    0  0.42783646724E+02  0.21444008184E+02 -0.46917812690E+02  0.67019154438E+02  0.00000000000E+00 0. -1.
         21    1    1    2  503  501 -0.20413749647E+02  0.28591093532E+01  0.57570200057E+02  0.61149191455E+02  0.00000000000E+00 0.  1.
          1    1    1    2  501    0  0.23209846483E+02 -0.51805932894E+02 -0.79172053310E+02  0.97420560880E+02  0.00000000000E+00 0. -1.
<scales pt_clust_5="13000.00000" pt_clust_6="13000.00000" pt_clust_7="13000.00000" pt_clust_8="13000.00000" pt_clust_9="20.61300" pt_clust_10="55.51051"></scales>
<clustering>
<clus scale="   20.613">  1  9  2 -1</clus>
<clus scale="   55.511">  1 10  2 -1</clus>
<clus scale="   79.240">  5  6 -1 -1</clus>
<clus scale="   91.750">  7  8 -1 -1</clus>
<clus scale="  129.672">  2  5  1 -1</clus>
<clus scale="   20.613">  1  5  2 -1</clus>
</clustering>
</event>
<event>
10    4  0.7204077E-005  0.1069764E+03  0.7546771E-02  0.1269571E+00
         21   -1    0    0  501  502  0.00000000000E+00  0.00000000000E+00  0.62812067001E+02  0.62812067001E+02  0.00000000000E+00 0.  1.
          2   -1    0    0  503    0 -0.00000000000E+00 -0.00000000000E+00 -0.96889998189E+03  0.96889998189E+03  0.00000000000E+00 0. -1.
         23    2    1    2    0    0 -0.74241956401E+02 -0.17029765450E+02 -0.52167682659E+03  0.53435029783E+03  0.87072661583E+02 0.  0.
         24    2    1    2    0    0  0.12646398109E+02  0.13542666048E+02 -0.56725746113E+02  0.98835538117E+02  0.78786535233E+02 0.  0.
        -13    1    4    4    0    0  0.34044100957E+02 -0.63995695335E+01  0.41569956901E+00  0.34642865157E+02  0.00000000000E+00 0.  1.
         14    1    4    4    0    0 -0.21397702848E+02  0.19942235582E+02 -0.57141445682E+02  0.64192672960E+02  0.00000000000E+00 0. -1.
        -11    1    3    3    0    0 -0.49777642464E+02 -0.52464185063E+02 -0.34546058301E+03  0.35294945647E+03  0.00000000000E+00 0. -1.
         11    1    3    3    0    0 -0.24464313937E+02  0.35434419612E+02 -0.17621624357E+03  0.18140084137E+03  0.00000000000E+00 0.  1.
         21    1    1    2  503  502  0.45939866540E+02 -0.45534177290E+02  0.21326915974E+01  0.64717702467E+02  0.00000000000E+00 0.  1.
          1    1    1    2  501    0  0.15655691752E+02  0.49021276693E+02 -0.32981803379E+03  0.33380851048E+03  0.00000000000E+00 0. -1.
<scales pt_clust_5="13000.00000" pt_clust_6="13000.00000" pt_clust_7="13000.00000" pt_clust_8="13000.00000" pt_clust_9="57.62585" pt_clust_10="51.46056"></scales>
<clustering>
<clus scale="   51.461">  1 10  2 -1</clus>
<clus scale="   57.626">  1  9  2 -1</clus>
<clus scale="   78.787">  5  6 -1 -1</clus>
<clus scale="   87.073">  7  8 -1 -1</clus>
<clus scale="  100.347">  1  5  2 -1</clus>
<clus scale="   51.461">  1  5  2 -1</clus>
</clustering>
</event>
<event>
10    4  0.7204077E-005  0.1977101E+03  0.7546771E-02  0.1171347E+00
          2   -1    0    0  503    0 -0.00000000000E+00  0.00000000000E+00  0.10474165527E+04  0.10474165527E+04  0.00000000000E+00 0. -1.
         21   -1    0    0  501  502  0.00000000000E+00 -0.00000000000E+00 -0.32130546060E+03  0.32130546060E+03  0.00000000000E+00 0. -1.
         24    2    1    2    0    0  0.63154543702E+02 -0.75364586468E+02  0.54088600743E+03  0.55536248983E+03  0.78749633598E+02 0.  0.
         23    2    1    2    0    0 -0.22836669308E+02  0.19987183985E+03  0.22853800970E+03  0.31861759239E+03  0.93900385914E+02 0.  0.
        -13    1    3    3    0    0  0.58334047281E+02 -0.25036833046E+02  0.17819020855E+03  0.18915986494E+03  0.00000000000E+00 0.  1.
         14    1    3    3    0    0  0.48204964209E+01 -0.50327753422E+02  0.36269579888E+03  0.36620262489E+03  0.00000000000E+00 0. -1.
        -11    1    4    4    0    0  0.28043949306E+02  0.22340821661E+02  0.51780235483E+02  0.62982284746E+02  0.00000000000E+00 0. -1.
         11    1    4    4    0    0 -0.50880618614E+02  0.17753101818E+03  0.17675777422E+03  0.25563530764E+03  0.00000000000E+00 0.  1.
         21    1    1    2  503  502  0.19603778787E+02  0.31152848586E+02 -0.23659491330E+03  0.23944093451E+03  0.00000000000E+00 0. -1.
          1    1    1    2  501    0 -0.59921653181E+02 -0.15566010196E+03  0.19328198830E+03  0.25530099660E+03  0.00000000000E+00 0. -1.
<scales pt_clust_5="13000.00000" pt_clust_6="13000.00000" pt_clust_7="13000.00000" pt_clust_8="13000.00000" pt_clust_9="36.80772" pt_clust_10="173.98855"></scales>
<clustering>
<clus scale="   36.808">  2  9  1 -1</clus>
<clus scale="   78.750">  5  6 -1 -1</clus>
<clus scale="   93.900">  7  8 -1 -1</clus>
<clus scale="  125.248">  1  5  2 -1</clus>
<clus scale="  173.989">  2 10  1 -1</clus>
<clus scale="   36.808">  2  5  1 -1</clus>
</clustering>
</event>
<event>
10    4  0.7204077E-005  0.1069968E+03  0.7546771E-02  0.1272060E+00
         21   -1    0    0  501  502  0.00000000000E+00  0.00000000000E+00  0.75005958951E+02  0.75005958951E+02  0.00000000000E+00 0.  1.
          2   -1    0    0  503    0 -0.00000000000E+00 -0.00000000000E+00 -0.77042346874E+03  0.77042346874E+03  0.00000000000E+00 0. -1.
         23    2    1    2    0    0 -0.48965379303E+02  0.21534819829E+02 -0.10616703445E+03  0.15125856347E+03  0.93521959901E+02 0.  0.
         24    2    1    2    0    0  0.34777525653E+02 -0.39845310810E+02 -0.48192535497E+02  0.10748802288E+03  0.80212402418E+02 0.  0.
        -13    1    4    4    0    0  0.37838186540E+02 -0.34926938199E+02  0.70219819709E+01  0.51970449329E+02  0.00000000000E+00 0.  1.
         14    1    4    4    0    0 -0.30606608874E+01 -0.49183726110E+01 -0.55214517468E+02  0.55517573555E+02  0.00000000000E+00 0. -1.
        -11    1    3    3    0    0  0.86943185214E+01  0.42459651210E+02 -0.26824168690E+02  0.50970081237E+02  0.00000000000E+00 0. -1.
         11    1    3    3    0    0 -0.57659697824E+02 -0.20924831381E+02 -0.79342865763E+02  0.10028848223E+03  0.00000000000E+00 0.  1.
         21    1    1    2  503  502 -0.43475252227E+02 -0.62956246209E+02 -0.65254568175E+02  0.10055717359E+03  0.00000000000E+00 0.  1.
          1    1    1    2  501    0  0.57663105876E+02  0.81266737190E+02 -0.47580337167E+03  0.48612566775E+03  0.00000000000E+00 0. -1.
<scales pt_clust_5="13000.00000" pt_clust_6="13000.00000" pt_clust_7="13000.00000" pt_clust_8="13000.00000" pt_clust_9="76.50873" pt_clust_10="92.76184"></scales>
<clustering>
<clus scale="   76.509">  1  9  2 -1</clus>
<clus scale="   80.212">  5  6 -1 -1</clus>
<clus scale="   92.762">  1 10  2 -1</clus>
<clus scale="   93.522">  7  8 -1 -1</clus>
<clus scale="   95.582">  1  5  2 -1</clus>
<clus scale="   76.509">  1  5  2 -1</clus>
</clustering>
</event>
<event>
10    4  0.7204077E-005  0.2349180E+03  0.7546771E-02  0.1153531E+00
         21   -1    0    0  503  502  0.00000000000E+00  0.00000000000E+00  0.23344264161E+03  0.23344264161E+03  0.00000000000E+00 0.  1.
         -1   -1    0    0    0  501 -0.00000000000E+00 -0.00000000000E+00 -0.44301735728E+03  0.44301735728E+03  0.00000000000E+00 0.  1.
         24    2    1    2    0    0 -0.77898913602E+02 -0.61433040205E+01 -0.11202075414E+03  0.15826739719E+03  0.79962108086E+02 0.  0.
         23    2    1    2    0    0  0.15825552221E+03 -0.16260307088E+03 -0.63578933826E+02  0.25383311330E+03  0.94363126329E+02 0.  0.
        -13    1    3    3    0    0 -0.73444807019E+02 -0.35247066176E+02 -0.90712065476E+02  0.12192282057E+03  0.00000000000E+00 0.  1.
         14    1    3    3    0    0 -0.44541065829E+01  0.29103762156E+02 -0.21308688662E+02  0.36344576618E+02  0.00000000000E+00 0. -1.
        -11    1    4    4    0    0  0.10667841959E+03 -0.15998840179E+03 -0.62442597879E+02  0.20217727850E+03  0.00000000000E+00 0.  1.
         11    1    4    4    0    0  0.51577102616E+02 -0.26146690906E+01 -0.11363359475E+01  0.51655834792E+02  0.00000000000E+00 0. -1.
         21    1    1    2  503  501 -0.95029542688E+01 -0.40304523007E+02 -0.40179754034E+01  0.41604144517E+02  0.00000000000E+00 0.  1.
         -2    1    1    2    0  502 -0.70853654338E+02  0.20905089791E+03 -0.29957052308E+02  0.22275534389E+03  0.00000000000E+00 0.  1.
<scales pt_clust_5="13000.00000" pt_clust_6="13000.00000" pt_clust_7="13000.00000" pt_clust_8="13000.00000" pt_clust_9="41.40967" pt_clust_10="215.13272"></scales>
<clustering>
<clus scale="   41.410">  1  9  2 -1</clus>
<clus scale="   79.962">  5  6 -1 -1</clus>
<clus scale="   94.363">  7  8 -1 -1</clus>
<clus scale="  112.839">  2  5  1 -1</clus>
<clus scale="  215.133">  1 10  2 -1</clus>
<clus scale="   41.410">  1  5  2 -1</clus>
</clustering>
</event>
<event>
10    4  0.7204077E-005  0.7618629E+03  0.7546771E-02  0.9616921E-01
         21   -1    0    0  503  502  0.00000000000E+00  0.00000000000E+00  0.12982542794E+04  0.12982542794E+04  0.00000000000E+00 0.  1.
         -3   -1    0    0    0  501 -0.00000000000E+00 -0.00000000000E+00 -0.49878940639E+03  0.49878940639E+03  0.00000000000E+00 0.  1.
         24    2    1    2    0    0 -0.48235810633E+03  0.95482942284E+02  0.11077722313E+03  0.51032036629E+03  0.79805689493E+02 0.  0.
         23    2    1    2    0    0 -0.18090481404E+03 -0.62843733392E+01  0.21112943058E+03  0.29263558992E+03  0.91070889648E+02 0.  0.
        -13    1    3    3    0    0 -0.47556091988E+03  0.10440857060E+03  0.10724979558E+03  0.49855978256E+03  0.00000000000E+00 0.  1.
         14    1    3    3    0    0 -0.67971864483E+01 -0.89256283199E+01  0.35274275549E+01  0.11760583730E+02  0.00000000000E+00 0. -1.
        -11    1    4    4    0    0 -0.13673689816E+03 -0.26056146380E+02  0.99900538800E+02  0.17133598494E+03  0.00000000000E+00 0. -1.
         11    1    4    4    0    0 -0.44167915879E+02  0.19771773041E+02  0.11122889178E+03  0.12129960498E+03  0.00000000000E+00 0.  1.
         21    1    1    2  503  501 -0.53489661003E+02  0.15377933733E+02  0.21745063061E+03  0.22446024466E+03  0.00000000000E+00 0.  1.
         -4    1    1    2    0  502  0.71675258137E+03 -0.10457650268E+03  0.26010758867E+03  0.76962748489E+03  0.00000000000E+00 0.  1.
<scales pt_clust_5="13000.00000" pt_clust_6="13000.00000" pt_clust_7="13000.00000" pt_clust_8="13000.00000" pt_clust_9="55.65631" pt_clust_10="697.99370"></scales>
<clustering>
<clus scale="   55.656">  1  9  2 -1</clus>
<clus scale="   79.806">  5  6 -1 -1</clus>
<clus scale="   91.071">  7  8 -1 -1</clus>
<clus scale="  173.093">  5  7 -1 -1</clus>
<clus scale="  697.994">  1 10  2 -1</clus>
<clus scale="   55.656">  1  5  2 -1</clus>
</clustering>
</event>
<event>
10    4  0.7204077E-005  0.1336087E+03  0.7546771E-02  0.1245235E+00
         21   -1    0    0  503  502  0.00000000000E+00  0.00000000000E+00  0.54322948001E+02  0.54322948001E+02  0.00000000000E+00 0.  1.
          2   -1    0    0  502    0 -0.00000000000E+00 -0.00000000000E+00 -0.11164633559E+04  0.11164633559E+04  0.00000000000E+00 0. -1.
         24    2    1    2    0    0 -0.92613892760E+01  0.19279901313E+02 -0.37440899414E+03  0.38347756761E+03  0.80096579475E+02 0.  0.
         23    2    1    2    0    0  0.73077026078E+02 -0.53246271648E+02 -0.24581654922E+03  0.27792805571E+03  0.92966720363E+02 0.  0.
        -13    1    3    3    0    0 -0.14534515808E+02  0.47025670416E+02 -0.16537693349E+03  0.17254621398E+03  0.00000000000E+00 0.  1.
         14    1    3    3    0    0  0.52731265320E+01 -0.27745769103E+02 -0.20903206064E+03  0.21093135363E+03  0.00000000000E+00 0. -1.
        -13    1    4    4    0    0  0.68277700823E+01 -0.33189209220E+02 -0.17738724377E+03  0.18059450796E+03  0.00000000000E+00 0. -1.
         13    1    4    4    0    0  0.66249255996E+02 -0.20057062429E+02 -0.68429305453E+02  0.97333547752E+02  0.00000000000E+00 0.  1.
         21    1    1    2  503  501  0.29806070316E+02  0.17654289091E+02  0.18491777877E+02  0.39268582862E+02  0.00000000000E+00 0.  1.
          1    1    1    2  501    0 -0.93621707118E+02  0.16312081245E+02 -0.46040664243E+03  0.47011209773E+03  0.00000000000E+00 0. -1.
<scales pt_clust_5="13000.00000" pt_clust_6="13000.00000" pt_clust_7="13000.00000" pt_clust_8="13000.00000" pt_clust_9="34.64211" pt_clust_10="95.96091"></scales>
<clustering>
<clus scale="   34.642">  1  9  2 -1</clus>
<clus scale="   80.097">  5  6 -1 -1</clus>
<clus scale="   83.271">  2  5  1 -1</clus>
<clus scale="   92.967">  7  8 -1 -1</clus>
<clus scale="   95.961">  1 10  2 -1</clus>
<clus scale="   34.642">  1  5  2 -1</clus>
</clustering>
</event>
<event>
10    4  0.7204077E-005  0.1369231E+03  0.7546771E-02  0.1221425E+00
         21   -1    0    0  501  502  0.00000000000E+00  0.00000000000E+00  0.23329627303E+03  0.23329627303E+03  0.00000000000E+00 0.  1.
         -1   -1    0    0    0  501 -0.00000000000E+00 -0.00000000000E+00 -0.42171276886E+03  0.42171276886E+03  0.00000000000E+00 0.  1.
         23    2    1    2    0    0  0.83551915531E+02 -0.30614387997E+02 -0.59101502440E+02  0.14220115146E+03  0.93861688377E+02 0.  0.
         24    2    1    2    0    0 -0.10684904878E+03  0.67029789777E+02  0.39025118123E+02  0.15300857918E+03  0.77323693099E+02 0.  0.
        -11    1    4    4    0    0 -0.62406813622E+02  0.62988803999E+02  0.56437146835E+02  0.10510638115E+03  0.00000000000E+00 0.  1.
         12    1    4    4    0    0 -0.44442235158E+02  0.40409857780E+01 -0.17412028712E+02  0.47902198027E+02  0.00000000000E+00 0. -1.
        -13    1    3    3    0    0  0.56817412837E+02 -0.63283965271E+02 -0.27208808810E+02  0.89293885226E+02  0.00000000000E+00 0.  1.
         13    1    3    3    0    0  0.26734502694E+02  0.32669577274E+02 -0.31892693630E+02  0.52907266236E+02  0.00000000000E+00 0. -1.
         21    1    1    2  503  502  0.38293044933E+02  0.10243316359E+02  0.89213926197E+02  0.97623805743E+02  0.00000000000E+00 0.  1.
         -2    1    1    2    0  503 -0.14995911685E+02 -0.46658718139E+02 -0.25755403771E+03  0.26217550551E+03  0.00000000000E+00 0.  1.
<scales pt_clust_5="13000.00000" pt_clust_6="13000.00000" pt_clust_7="13000.00000" pt_clust_8="13000.00000" pt_clust_9="39.63941" pt_clust_10="48.65780"></scales>
<clustering>
<clus scale="   39.639">  1  9  2 -1</clus>
<clus scale="   48.658">  1 10  2 -1</clus>
<clus scale="   77.324">  5  6 -1 -1</clus>
<clus scale="   93.862">  7  8 -1 -1</clus>
<clus scale="  126.162">  1  5  2 -1</clus>
<clus scale="   39.639">  1  5  2 -1</clus>
</clustering>
</event>
<event>
10    4  0.7204077E-005  0.3195911E+03  0.7546771E-02  0.1110965E+00
         21   -1    0    0  503  502  0.00000000000E+00  0.00000000000E+00  0.50526142244E+03  0.50526142244E+03  0.00000000000E+00 0. -1.
          2   -1    0    0  502    0 -0.00000000000E+00 -0.00000000000E+00 -0.79705838420E+03  0.79705838420E+03  0.00000000000E+00 0. -1.
         24    2    1    2    0    0 -0.78884289119E+02  0.63308269583E+02 -0.18086997109E+02  0.13088627626E+03  0.81076567407E+02 0.  0.
         23    2    1    2    0    0  0.36309438801E+03 -0.67986686186E+01 -0.19803012301E+03  0.42335374761E+03  0.90159356118E+02 0.  0.
        -13    1    3    3    0    0 -0.45511284906E+02  0.49967662569E+02  0.27386010393E+02  0.72924878619E+02  0.00000000000E+00 0.  1.
         14    1    3    3    0    0 -0.33373004213E+02  0.13340607013E+02 -0.45473007502E+02  0.57961397645E+02  0.00000000000E+00 0. -1.
        -13    1    4    4    0    0  0.34114413502E+03 -0.17313809943E+01 -0.15484408738E+03  0.37464517871E+03  0.00000000000E+00 0. -1.
         13    1    4    4    0    0  0.21950252995E+02 -0.50672876244E+01 -0.43186035633E+02  0.48708568898E+02  0.00000000000E+00 0.  1.
         21    1    1    2  503  501 -0.41919302510E+02 -0.95184264150E+02  0.28978957186E+03  0.30788840190E+03  0.00000000000E+00 0. -1.
          1    1    1    2  501    0 -0.24229079638E+03  0.38674663186E+02 -0.36546941351E+03  0.44019138087E+03  0.00000000000E+00 0. -1.
<scales pt_clust_5="13000.00000" pt_clust_6="13000.00000" pt_clust_7="13000.00000" pt_clust_8="13000.00000" pt_clust_9="104.00612" pt_clust_10="306.61024"></scales>
<clustering>
<clus scale="   81.077">  5  6 -1 -1</clus>
<clus scale="   90.159">  7  8 -1 -1</clus>
<clus scale="  104.006">  1  9  2 -1</clus>
<clus scale="  126.987">  2  5  1 -1</clus>
<clus scale="  306.610">  1 10  2 -1</clus>
<clus scale="  104.006">  1  5  2 -1</clus>
</clustering>
</event>
<event>
10    4  0.7204077E-005  0.1012746E+03  0.7546771E-02  0.1282959E+00
         21   -1    0    0  503  502  0.00000000000E+00  0.00000000000E+00  0.14037015673E+03  0.14037015673E+03  0.00000000000E+00 0. -1.
          2   -1    0    0  502    0 -0.00000000000E+00 -0.00000000000E+00 -0.28676823590E+03  0.28676823590E+03  0.00000000000E+00 0. -1.
         24    2    1    2    0    0 -0.31227871070E+02 -0.16648856102E+02 -0.13500034400E+03  0.16098518094E+03  0.80241954491E+02 0.  0.
         23    2    1    2    0    0  0.85458811497E+02  0.14774116293E+02 -0.61462539705E+01  0.12600650101E+03  0.91205147250E+02 0.  0.
        -11    1    3    3    0    0 -0.47740036955E+02  0.16523368797E+02 -0.82107246119E+02  0.96404007749E+02  0.00000000000E+00 0.  1.
         12    1    3    3    0    0  0.16512165885E+02 -0.33172224900E+02 -0.52893097880E+02  0.64581173188E+02  0.00000000000E+00 0. -1.
        -11    1    4    4    0    0 -0.14555956656E+02  0.15018288430E+02 -0.14794248409E+02  0.25618248330E+02  0.00000000000E+00 0.  1.
         11    1    4    4    0    0  0.10001476815E+03 -0.24417213747E+00  0.86479944382E+01  0.10038825268E+03  0.00000000000E+00 0. -1.
         21    1    1    2  503  501  0.59271568329E+01  0.46749453171E+02  0.31396961957E+02  0.56625186799E+02  0.00000000000E+00 0.  1.
          1    1    1    2  501    0 -0.60158097261E+02 -0.44874713361E+02 -0.36648443159E+02  0.83521523880E+02  0.00000000000E+00 0. -1.
<scales pt_clust_5="13000.00000" pt_clust_6="13000.00000" pt_clust_7="13000.00000" pt_clust_8="13000.00000" pt_clust_9="47.12369" pt_clust_10="67.60297"></scales>
<clustering>
<clus scale="   47.124">  1  9  2 -1</clus>
<clus scale="   67.603">  1 10  2 -1</clus>
<clus scale="   80.242">  5  6 -1 -1</clus>
<clus scale="   91.205">  7  8 -1 -1</clus>
<clus scale="   91.526">  2  5  1 -1</clus>
<clus scale="   47.124">  1  5  2 -1</clus>
</clustering>
</event>
<event>
10    4  0.7204077E-005  0.9270377E+02  0.7546771E-02  0.1302864E+00
         21   -1    0    0  501  502  0.00000000000E+00  0.00000000000E+00  0.12897780186E+03  0.12897780186E+03  0.00000000000E+00 0. -1.
          2   -1    0    0  503    0 -0.00000000000E+00 -0.00000000000E+00 -0.10157352810E+04  0.10157352810E+04  0.00000000000E+00 0. -1.
         24    2    1    2    0    0 -0.24754322680E+02 -0.47420301332E+01 -0.88307677926E+03  0.88700332821E+03  0.79467243800E+02 0.  0.
         23    2    1    2    0    0 -0.78540649165E+01 -0.23338135997E+02 -0.10786895956E+03  0.14273121235E+03  0.90167242480E+02 0.  0.
        -11    1    3    3    0    0  0.98852373295E+01 -0.25106887622E+02 -0.12580058775E+03  0.12866181097E+03  0.00000000000E+00 0.  1.
         12    1    3    3    0    0 -0.34639560010E+02  0.20364857489E+02 -0.75727619151E+03  0.75834151724E+03  0.00000000000E+00 0. -1.
        -13    1    4    4    0    0 -0.30531280887E+02 -0.49355565330E+02 -0.57705266447E+02  0.81841485307E+02  0.00000000000E+00 0. -1.
         13    1    4    4    0    0  0.22677215971E+02  0.26017429333E+02 -0.50163693109E+02  0.60889727045E+02  0.00000000000E+00 0.  1.
         21    1    1    2  503  502  0.16224576876E+02  0.15680885408E+02  0.80588185264E+02  0.83687410440E+02  0.00000000000E+00 0. -1.
          1    1    1    2  501    0  0.16383810721E+02  0.12399280723E+02  0.23600074453E+02  0.31291131817E+02  0.00000000000E+00 0. -1.
<scales pt_clust_5="13000.00000" pt_clust_6="13000.00000" pt_clust_7="13000.00000" pt_clust_8="13000.00000" pt_clust_9="39.11637" pt_clust_10="20.54681"></scales>
<clustering>
<clus scale="   20.547">  1 10  2 -1</clus>
<clus scale="   39.116">  1  9  2 -1</clus>
<clus scale="   79.467">  5  6 -1 -1</clus>
<clus scale="   82.334">  2  5  1 -1</clus>
<clus scale="   90.167">  7  8 -1 -1</clus>
<clus scale="   20.547">  1  5  2 -1</clus>
</clustering>
</event>
<event>
10    4  0.7204077E-005  0.1049378E+03  0.7546771E-02  0.1276728E+00
         21   -1    0    0  501  502  0.00000000000E+00  0.00000000000E+00  0.37878287341E+03  0.37878287341E+03  0.00000000000E+00 0.  1.
          2   -1    0    0  503    0 -0.00000000000E+00 -0.00000000000E+00 -0.47201052729E+03  0.47201052729E+03  0.00000000000E+00 0. -1.
         24    2    1    2    0    0  0.60089655280E+02  0.37335271811E+02 -0.24148906579E+03  0.26375508058E+03  0.79025846677E+02 0.  0.
         23    2    1    2    0    0 -0.23659012127E+02 -0.37551504891E+01 -0.16740721272E+03  0.19306833014E+03  0.93146954989E+02 0.  0.
        -13    1    3    3    0    0  0.38103076074E+02  0.18197284036E+02 -0.22756798612E+03  0.23145231444E+03  0.00000000000E+00 0.  1.
         14    1    3    3    0    0  0.21986579206E+02  0.19137987775E+02 -0.13921079672E+02  0.32302766143E+02  0.00000000000E+00 0. -1.
        -13    1    4    4    0    0 -0.22093029465E+02 -0.47246369596E+02 -0.10099062359E+03  0.11366365929E+03  0.00000000000E+00 0. -1.
         13    1    4    4    0    0 -0.15659826622E+01  0.43491219107E+02 -0.66416589130E+02  0.79404670850E+02  0.00000000000E+00 0.  1.
         21    1    1    2  503  502 -0.88441830892E+02 -0.30706560793E+02  0.32744421788E+03  0.34056506889E+03  0.00000000000E+00 0.  1.
          1    1    1    2  501    0  0.52011187740E+02 -0.28735605283E+01 -0.11775593253E+02  0.53404921090E+02  0.00000000000E+00 0. -1.
<scales pt_clust_5="13000.00000" pt_clust_6="13000.00000" pt_clust_7="13000.00000" pt_clust_8="13000.00000" pt_clust_9="52.03600" pt_clust_10="52.09053"></scales>
<clustering>
<clus scale="   52.091">  1 10  2 -1</clus>
<clus scale="   52.036">  1  9  2 -1</clus>
<clus scale="   79.026">  5  6 -1 -1</clus>
<clus scale="   92.632">  2  5  1 -1</clus>
<clus scale="   93.147">  7  8 -1 -1</clus>
<clus scale="   52.091">  1  5  2 -1</clus>
</clustering>
</event>
<event>
10    4  0.7204077E-005  0.1198640E+03  0.7546771E-02  0.1247938E+00
         21   -1    0    0  501  502  0.00000000000E+00  0.00000000000E+00  0.10429024103E+03  0.10429024103E+03  0.00000000000E+00 0. -1.
          2   -1    0    0  503    0 -0.00000000000E+00 -0.00000000000E+00 -0.86494256236E+03  0.86494256236E+03  0.00000000000E+00 0. -1.
         23    2    1    2    0    0  0.29543001794E+02  0.70437073504E+02 -0.25873770685E+03  0.28393000682E+03  0.88526140484E+02 0.  0.
         24    2    1    2    0    0 -0.91171829748E+02 -0.67236086428E+02 -0.21785905958E+02  0.13677846844E+03  0.73489658262E+02 0.  0.
        -11    1    4    4    0    0 -0.41205784665E+02  0.47173661308E+01  0.11543585243E+02  0.43051418018E+02  0.00000000000E+00 0.  1.
         12    1    4    4    0    0 -0.49966045084E+02 -0.71953452559E+02 -0.33329491201E+02  0.93727050419E+02  0.00000000000E+00 0. -1.
        -13    1    3    3    0    0 -0.23090114718E+02  0.22171158721E+02 -0.15315190398E+03  0.15646155876E+03  0.00000000000E+00 0. -1.
         13    1    3    3    0    0  0.52633116512E+02  0.48265914783E+02 -0.10558580286E+03  0.12746844806E+03  0.00000000000E+00 0.  1.
         21    1    1    2  503  502 -0.14019230828E+02  0.37900626365E+02  0.17113034577E+02  0.43884533315E+02  0.00000000000E+00 0.  1.
          1    1    1    2  501    0  0.75648058782E+02 -0.41101613440E+02 -0.49724174311E+03  0.50463979482E+03  0.00000000000E+00 0. -1.
<scales pt_clust_5="13000.00000" pt_clust_6="13000.00000" pt_clust_7="13000.00000" pt_clust_8="13000.00000" pt_clust_9="40.41035" pt_clust_10="84.57884"></scales>
<clustering>
<clus scale="   40.410">  1  9  2 -1</clus>
<clus scale="   73.490">  5  6 -1 -1</clus>
<clus scale="   84.579">  1 10  2 -1</clus>
<clus scale="   88.526">  7  8 -1 -1</clus>
<clus scale="  109.230">  1  5  2 -1</clus>
<clus scale="   40.410">  1  5  2 -1</clus>
</clustering>
</event>
<event>
10    4  0.7204077E-005  0.1413611E+03  0.7546771E-02  0.1213814E+00
          2   -1    0    0  503    0 -0.00000000000E+00  0.00000000000E+00  0.85881661659E+03  0.85881661659E+03  0.00000000000E+00 0. -1.
         21   -1    0    0  501  502  0.00000000000E+00 -0.00000000000E+00 -0.80944170801E+02  0.80944170801E+02  0.00000000000E+00 0. -1.
         23    2    1    2    0    0  0.13751707781E+03 -0.17592942333E+02  0.55260787044E+03  0.57667633072E+03  0.89217002988E+02 0.  0.
         24    2    1    2    0    0 -0.46089299542E+02  0.15457523328E+02  0.56678245740E+02  0.10802614577E+03  0.78064499423E+02 0.  0.
        -13    1    4    4    0    0 -0.20470639311E+02 -0.46162703381E+01  0.69835947411E+02  0.72920618322E+02  0.00000000000E+00 0.  1.
         14    1    4    4    0    0 -0.25618660231E+02  0.20073793666E+02 -0.13157701672E+02  0.35105527449E+02  0.00000000000E+00 0. -1.
        -13    1    3    3    0    0  0.12045024641E+03 -0.45299572269E+02  0.48280575718E+03  0.49966159776E+03  0.00000000000E+00 0.  1.
         13    1    3    3    0    0  0.17066831397E+02  0.27706629937E+02  0.69802113265E+02  0.77014732958E+02  0.00000000000E+00 0. -1.
         21    1    1    2  503  502 -0.11506629775E+02  0.18190219260E+02 -0.31985768020E+02  0.38553546676E+02  0.00000000000E+00 0.  1.
          1    1    1    2  501    0 -0.79921148492E+02 -0.16054800255E+02  0.20057209763E+03  0.21650476423E+03  0.00000000000E+00 0. -1.
<scales pt_clust_5="13000.00000" pt_clust_6="13000.00000" pt_clust_7="13000.00000" pt_clust_8="13000.00000" pt_clust_9="21.52409" pt_clust_10="82.93472"></scales>
<clustering>
<clus scale="   21.524">  2  9  1 -1</clus>
<clus scale="   78.064">  5  6 -1 -1</clus>
<clus scale="   82.935">  2 10  1 -1</clus>
<clus scale="   89.217">  7  8 -1 -1</clus>
<clus scale="  134.601">  2  5  1 -1</clus>
<clus scale="   21.524">  2  5  1 -1</clus>
</clustering>
</event>
<event>
10    4  0.7204077E-005  0.1522415E+03  0.7546771E-02  0.1198963E+00
          2   -1    0    0  503    0 -0.00000000000E+00  0.00000000000E+00  0.34025109101E+03  0.34025109101E+03  0.00000000000E+00 0. -1.
         21   -1    0    0  501  502  0.00000000000E+00 -0.00000000000E+00 -0.28313622055E+03  0.28313622055E+03  0.00000000000E+00 0. -1.
         24    2    1    2    0    0  0.34798894150E+02 -0.14641991548E+03  0.10032822437E+03  0.19929120451E+03  0.83674828397E+02 0.  0.
         23    2    1    2    0    0  0.43888373857E+02  0.96752175996E+02  0.40051454541E+02  0.14522438431E+03  0.90547390169E+02 0.  0.
        -13    1    3    3    0    0  0.45773886933E+02 -0.61449983268E+02  0.80924547350E+02  0.11144564385E+03  0.00000000000E+00 0.  1.
         14    1    3    3    0    0 -0.10974992782E+02 -0.84969932211E+02  0.19403677019E+02  0.87845560664E+02  0.00000000000E+00 0. -1.
        -13    1    4    4    0    0 -0.13355311488E+02  0.19463427816E+02  0.42941912537E+02  0.49002012403E+02  0.00000000000E+00 0.  1.
         13    1    4    4    0    0  0.57243685345E+02  0.77288748180E+02 -0.28904579957E+01  0.96222371903E+02  0.00000000000E+00 0. -1.
         21    1    1    2  503  502 -0.10675007161E+03  0.96440387633E+02 -0.13959745583E+03  0.20045891307E+03  0.00000000000E+00 0. -1.
          1    1    1    2  501    0  0.28062803598E+02 -0.46772648150E+02  0.56332647374E+02  0.78412809674E+02  0.00000000000E+00 0. -1.
<scales pt_clust_5="13000.00000" pt_clust_6="13000.00000" pt_clust_7="13000.00000" pt_clust_8="13000.00000" pt_clust_9="111.69933" pt_clust_10="54.54544"></scales>
<clustering>
<clus scale="   54.545">  2 10  1 -1</clus>
<clus scale="   83.675">  5  6 -1 -1</clus>
<clus scale="   90.547">  7  8 -1 -1</clus>
<clus scale="  111.699">  2  9  1 -1</clus>
<clus scale="  148.257">  1  5  2 -1</clus>
<clus scale="   54.545">  2  5  1 -1</clus>
</clustering>
</event>
<event>
10    4  0.7204077E-005  0.3168986E+03  0.7546771E-02  0.1106192E+00
          2   -1    0    0  503    0 -0.00000000000E+00  0.00000000000E+00  0.44739280293E+03  0.44739280293E+03  0.00000000000E+00 0. -1.
         21   -1    0    0  501  502  0.00000000000E+00 -0.00000000000E+00 -0.45932726772E+03  0.45932726772E+03  0.00000000000E+00 0. -1.
         24    2    1    2    0    0 -0.87505116400E+02  0.81781411343E+02  0.81482728601E+02  0.16664575202E+03  0.82377344990E+02 0.  0.
         23    2    1    2    0    0  0.27162341947E+03  0.16340641387E+03 -0.12360731322E+03  0.35261843653E+03  0.92628590605E+02 0.  0.
        -13    1    3    3    0    0 -0.50674304491E+02  0.35401404281E+02 -0.47899274604E+01  0.62000709397E+02  0.00000000000E+00 0.  1.
         14    1    3    3    0    0 -0.36830811909E+02  0.46380007062E+02  0.86272656062E+02  0.10464504262E+03  0.00000000000E+00 0. -1.
        -13    1    4    4    0    0  0.11548169038E+03  0.62382997116E+02 -0.36326671913E+01  0.13130443791E+03  0.00000000000E+00 0.  1.
         13    1    4    4    0    0  0.15614172909E+03  0.10102341675E+03 -0.11997464603E+03  0.22131399862E+03  0.00000000000E+00 0. -1.
         21    1    1    2  503  502 -0.18134741474E+02  0.94434231090E+01 -0.65642468602E+02  0.68753041915E+02  0.00000000000E+00 0. -1.
          1    1    1    2  501    0 -0.16598356160E+03 -0.25463124832E+03  0.95832588428E+02  0.31870284019E+03  0.00000000000E+00 0. -1.
<scales pt_clust_5="13000.00000" pt_clust_6="13000.00000" pt_clust_7="13000.00000" pt_clust_8="13000.00000" pt_clust_9="20.44620" pt_clust_10="303.05905"></scales>
<clustering>
<clus scale="   20.446">  2  9  1 -1</clus>
<clus scale="   82.377">  5  6 -1 -1</clus>
<clus scale="   92.629">  7  8 -1 -1</clus>
<clus scale="  147.135">  1  5  2 -1</clus>
<clus scale="  303.059">  2 10  1 -1</clus>
<clus scale="   20.446">  2  5  1 -1</clus>
</clustering>
</event>
<event>
10    4  0.7204077E-005  0.2254039E+03  0.7546771E-02  0.1173422E+00
         21   -1    0    0  501  502  0.00000000000E+00  0.00000000000E+00  0.49365198021E+02  0.49365198021E+02  0.00000000000E+00 0. -1.
          2   -1    0    0  503    0 -0.00000000000E+00 -0.00000000000E+00 -0.22347455933E+04  0.22347455933E+04  0.00000000000E+00 0. -1.
         24    2    1    2    0    0 -0.14647810591E+02 -0.35853125611E+01 -0.51545355594E+03  0.52182515770E+03  0.79885631123E+02 0.  0.
         23    2    1    2    0    0 -0.15777382750E+03 -0.15240526170E+03 -0.80812933024E+03  0.84257666208E+03  0.93501190610E+02 0.  0.
        -11    1    3    3    0    0  0.29095215061E+02 -0.11516768618E+02 -0.12535256826E+03  0.12919920228E+03  0.00000000000E+00 0.  1.
         12    1    3    3    0    0 -0.43743025651E+02  0.79314560570E+01 -0.39010098767E+03  0.39262595542E+03  0.00000000000E+00 0. -1.
        -13    1    4    4    0    0 -0.60515234609E+02 -0.12223675116E+03 -0.44419154867E+03  0.46466121946E+03  0.00000000000E+00 0. -1.
         13    1    4    4    0    0 -0.97258592894E+02 -0.30168510540E+02 -0.36393778157E+03  0.37791544262E+03  0.00000000000E+00 0.  1.
         21    1    1    2  503  502  0.41918276015E+02  0.62279513753E+01 -0.80246214395E+01  0.43131471012E+02  0.00000000000E+00 0. -1.
          1    1    1    2  501    0  0.13050336208E+03  0.14976262289E+03 -0.85377288768E+03  0.87657750055E+03  0.00000000000E+00 0. -1.
<scales pt_clust_5="13000.00000" pt_clust_6="13000.00000" pt_clust_7="13000.00000" pt_clust_8="13000.00000" pt_clust_9="42.37841" pt_clust_10="205.09623"></scales>
<clustering>
<clus scale="   42.378">  1  9  2 -1</clus>
<clus scale="   79.886">  5  6 -1 -1</clus>
<clus scale="   80.621">  2  5  1 -1</clus>
<clus scale="   93.501">  7  8 -1 -1</clus>
<clus scale="  205.096">  1 10  2 -1</clus>
<clus scale="   42.378">  1  5  2 -1</clus>
</clustering>
</event>
<event>
10    4  0.7204077E-005  0.1597782E+03  0.7546771E-02  0.1211681E+00
         21   -1    0    0  503  502  0.00000000000E+00  0.00000000000E+00  0.65391792462E+02  0.65391792462E+02  0.00000000000E+00 0. -1.
          2   -1    0    0  502    0 -0.00000000000E+00 -0.00000000000E+00 -0.79129363320E+03  0.79129363320E+03  0.00000000000E+00 0. -1.
         23    2    1    2    0    0 -0.20627279955E+02  0.31681572966E+02 -0.14590959541E+03  0.17413515922E+03  0.87202275777E+02 0.  0.
         24    2    1    2    0    0  0.15802787622E+03 -0.69352284787E+02 -0.35762192419E+03  0.40519054823E+03  0.80643602662E+02 0.  0.
        -13    1    4    4    0    0  0.48451219612E+02 -0.35820356107E+02 -0.20905043520E+03  0.21756080311E+03  0.00000000000E+00 0.  1.
         14    1    4    4    0    0  0.10957665661E+03 -0.33531928680E+02 -0.14857148899E+03  0.18762974512E+03  0.00000000000E+00 0. -1.
        -11    1    3    3    0    0  0.15993207086E+02  0.36197360199E+02 -0.12629092655E+03  0.13234587144E+03  0.00000000000E+00 0.  1.
         11    1    3    3    0    0 -0.36620487041E+02 -0.45157872333E+01 -0.19618668859E+02  0.41789287781E+02  0.00000000000E+00 0. -1.
         21    1    1    2  503  501 -0.28300499331E+02  0.57359062650E+01 -0.14555992485E+01  0.28912586398E+02  0.00000000000E+00 0.  1.
          1    1    1    2  501    0 -0.10910009693E+03  0.31934805556E+02 -0.22091472189E+03  0.24844713181E+03  0.00000000000E+00 0. -1.
<scales pt_clust_5="13000.00000" pt_clust_6="13000.00000" pt_clust_7="13000.00000" pt_clust_8="13000.00000" pt_clust_9="28.87592" pt_clust_10="137.93358"></scales>
<clustering>
<clus scale="   28.876">  1  9  2 -1</clus>
<clus scale="   80.644">  5  6 -1 -1</clus>
<clus scale="   87.202">  7  8 -1 -1</clus>
<clus scale="   97.539">  2  7  1 -1</clus>
<clus scale="  137.934">  1 10  2 -1</clus>
<clus scale="   28.876">  1  5  2 -1</clus>
</clustering>
</event>
<event>
10    4  0.7204077E-005  0.1340401E+03  0.7546771E-02  0.1241064E+00
          2   -1    0    0  503    0 -0.00000000000E+00  0.00000000000E+00  0.56740090365E+03  0.56740090365E+03  0.00000000000E+00 0. -1.
         21   -1    0    0  501  502  0.00000000000E+00 -0.00000000000E+00 -0.10480678392E+03  0.10480678392E+03  0.00000000000E+00 0. -1.
         24    2    1    2    0    0 -0.29559680256E+01 -0.38306796044E+02  0.30726329066E+02  0.94835057525E+02  0.81076707307E+02 0.  0.
         23    2    1    2    0    0  0.15928559276E+02  0.61239999238E+02  0.12470151539E+03  0.16728063683E+03  0.91805702480E+02 0.  0.
        -13    1    3    3    0    0 -0.40704264712E+02 -0.18342300386E+02  0.26512917176E+02  0.51925060678E+02  0.00000000000E+00 0.  1.
         14    1    3    3    0    0  0.37748296687E+02 -0.19964495659E+02  0.42134118899E+01  0.42909996847E+02  0.00000000000E+00 0. -1.
        -13    1    4    4    0    0 -0.65243747868E+01  0.67608241629E+02  0.38710843642E+02  0.78179097065E+02  0.00000000000E+00 0.  1.
         13    1    4    4    0    0  0.22452934063E+02 -0.63682423907E+01  0.85990671752E+02  0.89101539760E+02  0.00000000000E+00 0. -1.
         21    1    1    2  503  502  0.76392839541E+02 -0.11597083113E+03  0.12479310622E+03  0.18670409466E+03  0.00000000000E+00 0. -1.
          1    1    1    2  501    0 -0.89365430791E+02  0.93037627933E+02  0.18237316905E+03  0.22338789856E+03  0.00000000000E+00 0. -1.
<scales pt_clust_5="13000.00000" pt_clust_6="13000.00000" pt_clust_7="13000.00000" pt_clust_8="13000.00000" pt_clust_9="134.04011" pt_clust_10="13000.00000"></scales>
<clustering>
<clus scale="   81.077">  5  6 -1 -1</clus>
<clus scale="   89.720">  1  5  2 -1</clus>
<clus scale="   91.806">  7  8 -1 -1</clus>
<clus scale="  105.694">  1  7  2 -1</clus>
<clus scale="  134.040">  2  9  1 -1</clus>
<clus scale="  134.040">  2  5  1 -1</clus>
</clustering>
</event>
<event>
10    4  0.7204077E-005  0.1035531E+03  0.7546771E-02  0.1279471E+00
          2   -1    0    0  502    0 -0.00000000000E+00  0.00000000000E+00  0.36974758803E+03  0.36974758803E+03  0.00000000000E+00 0. -1.
         21   -1    0    0  503  502  0.00000000000E+00 -0.00000000000E+00 -0.11251631036E+03  0.11251631036E+03  0.00000000000E+00 0.  1.
         23    2    1    2    0    0  0.14875359730E+02 -0.54701833391E+02  0.15205303375E+03  0.18594853973E+03  0.90791890889E+02 0.  0.
         24    2    1    2    0    0  0.33428336607E+02  0.24071621247E+02 -0.57000220415E+02  0.10408904683E+03  0.76737265429E+02 0.  0.
        -11    1    4    4    0    0  0.41353054275E+02  0.39506514178E+02 -0.63593949379E+02  0.85527949572E+02  0.00000000000E+00 0.  1.
         12    1    4    4    0    0 -0.79247176685E+01 -0.15434892930E+02  0.65937289639E+01  0.18561097261E+02  0.00000000000E+00 0. -1.
        -11    1    3    3    0    0  0.37768019462E+02  0.94145313673E+01  0.57499967333E+02  0.69435602814E+02  0.00000000000E+00 0. -1.
         11    1    3    3    0    0 -0.22892659732E+02 -0.64116364758E+02  0.94553066416E+02  0.11651293691E+03  0.00000000000E+00 0.  1.
         21    1    1    2  503  501 -0.21689802807E+02 -0.64106257607E+00 -0.31032108933E+01  0.21920046188E+02  0.00000000000E+00 0.  1.
          1    1    1    2  501    0 -0.26613893529E+02  0.31271274720E+02  0.16528167522E+03  0.17030626564E+03  0.00000000000E+00 0. -1.
<scales pt_clust_5="13000.00000" pt_clust_6="13000.00000" pt_clust_7="13000.00000" pt_clust_8="13000.00000" pt_clust_9="21.69927" pt_clust_10="41.40636"></scales>
<clustering>
<clus scale="   21.699">  2  9  1 -1</clus>
<clus scale="   41.406">  2 10  1 -1</clus>
<clus scale="   76.737">  5  6 -1 -1</clus>
<clus scale="   90.792">  7  8 -1 -1</clus>
<clus scale="   91.481">  2  5  1 -1</clus>
<clus scale="   21.699">  2  5  1 -1</clus>
</clustering>
</event>
<event>
10    4  0.7204077E-005  0.3738607E+03  0.7546771E-02  0.1100305E+00
          2   -1    0    0  503    0 -0.00000000000E+00  0.00000000000E+00  0.48997378727E+03  0.48997378727E+03  0.00000000000E+00 0. -1.
         21   -1    0    0  501  502  0.00000000000E+00 -0.00000000000E+00 -0.74383330707E+03  0.74383330707E+03  0.00000000000E+00 0. -1.
         23    2    1    2    0    0  0.18795886561E+02  0.47387103629E+02  0.67412424989E+02  0.12543295521E+03  0.92683160650E+02 0.  0.
         24    2    1    2    0    0 -0.23315093405E+03 -0.25680393062E+03 -0.16242035148E+03  0.39217364561E+03  0.84333747114E+02 0.  0.
        -13    1    4    4    0    0 -0.84957225269E+02 -0.15625382648E+03 -0.82828235902E+02  0.19619761741E+03  0.00000000000E+00 0.  1.
         14    1    4    4    0    0 -0.14819370878E+03 -0.10055010414E+03 -0.79592115576E+02  0.19597602819E+03  0.00000000000E+00 0. -1.
        -11    1    3    3    0    0 -0.12041045446E+02 -0.16577092431E+02  0.47429042799E+02  0.51665277215E+02  0.00000000000E+00 0. -1.
         11    1    3    3    0    0  0.30836932007E+02  0.63964196060E+02  0.19983382190E+02  0.73767677996E+02  0.00000000000E+00 0.  1.
         21    1    1    2  503  502 -0.34573235222E+02 -0.35044213831E+02 -0.32574577222E+03  0.32944455321E+03  0.00000000000E+00 0.  1.
          1    1    1    2  501    0  0.24892828271E+03  0.24446104083E+03  0.16689417891E+03  0.38675594031E+03  0.00000000000E+00 0. -1.
<scales pt_clust_5="13000.00000" pt_clust_6="13000.00000" pt_clust_7="13000.00000" pt_clust_8="13000.00000" pt_clust_9="49.22810" pt_clust_10="364.22494"></scales>
<clustering>
<clus scale="   49.228">  2  9  1 -1</clus>
<clus scale="   84.334">  5  6 -1 -1</clus>
<clus scale="   92.683">  7  8 -1 -1</clus>
<clus scale="  104.301">  1  7  2 -1</clus>
<clus scale="  364.225">  2 10  1 -1</clus>
<clus scale="   49.228">  2  5  1 -1</clus>
</clustering>
</event>
<event>
10    4  0.7204077E-005  0.2057136E+03  0.7546771E-02  0.1150688E+00
          2   -1    0    0  502    0 -0.00000000000E+00  0.00000000000E+00  0.15573226887E+04  0.15573226887E+04  0.00000000000E+00 0. -1.
         21   -1    0    0  503  502  0.00000000000E+00 -0.00000000000E+00 -0.25995162667E+03  0.25995162667E+03  0.00000000000E+00 0. -1.
         23    2    1    2    0    0  0.92631915848E+02  0.10790453594E+03  0.33980327617E+03  0.37961955166E+03  0.91764245739E+02 0.  0.
         24    2    1    2    0    0 -0.84672100452E+02  0.18195954920E+03  0.46839172511E+03  0.51628031025E+03  0.82921097835E+02 0.  0.
        -11    1    4    4    0    0 -0.29664425754E+02  0.33899137259E+02  0.42055468069E+02  0.61626228643E+02  0.00000000000E+00 0.  1.
         12    1    4    4    0    0 -0.55007674698E+02  0.14806041194E+03  0.42633625704E+03  0.45465408161E+03  0.00000000000E+00 0. -1.
        -11    1    3    3    0    0  0.29008953974E+01  0.32869336459E+02  0.17159736501E+03  0.17474113468E+03  0.00000000000E+00 0.  1.
         11    1    3    3    0    0  0.89731020451E+02  0.75035199477E+02  0.16820591116E+03  0.20487841698E+03  0.00000000000E+00 0. -1.
         21    1    1    2  503  501  0.11751465189E+03 -0.68780575018E+02 -0.16828918561E+03  0.21647565891E+03  0.00000000000E+00 0. -1.
          1    1    1    2  501    0 -0.12547446728E+03 -0.22108351011E+03  0.65746524633E+03  0.70489879452E+03  0.00000000000E+00 0. -1.
<scales pt_clust_5="13000.00000" pt_clust_6="13000.00000" pt_clust_7="13000.00000" pt_clust_8="13000.00000" pt_clust_9="136.16336" pt_clust_10="188.26108"></scales>
<clustering>
<clus scale="   82.921">  5  6 -1 -1</clus>
<clus scale="   91.764">  7  8 -1 -1</clus>
<clus scale="  136.163">  2  9  1 -1</clus>
<clus scale="  179.709">  1  7  2 -1</clus>
<clus scale="  188.261">  2 10  1 -1</clus>
<clus scale="  136.163">  2  5  1 -1</clus>
</clustering>
</event>
<event>
10    4  0.7204077E-005  0.2964780E+03  0.7546771E-02  0.1087506E+00
         21   -1    0    0  501  502  0.00000000000E+00  0.00000000000E+00  0.29675421930E+03  0.29675421930E+03  0.00000000000E+00 0. -1.
          2   -1    0    0  503    0 -0.00000000000E+00 -0.00000000000E+00 -0.59939659805E+03  0.59939659805E+03  0.00000000000E+00 0. -1.
         24    2    1    2    0    0 -0.15594190103E+03  0.28176897399E+03 -0.35420649260E+03  0.48540214390E+03  0.80258150365E+02 0.  0.
         23    2    1    2    0    0  0.80875089537E+02 -0.17143405871E+03  0.73806210298E+02  0.22379763552E+03  0.93314566874E+02 0.  0.
        -11    1    3    3    0    0  0.67858727657E+01  0.37381039070E+02 -0.34321176032E+02  0.51198957756E+02  0.00000000000E+00 0.  1.
         12    1    3    3    0    0 -0.16272777380E+03  0.24438793493E+03 -0.31988531656E+03  0.43420318614E+03  0.00000000000E+00 0. -1.
        -11    1    4    4    0    0  0.60768627395E+02 -0.90634367727E+02 -0.48879079677E+01  0.10923051924E+03  0.00000000000E+00 0.  1.
         11    1    4    4    0    0  0.20106462142E+02 -0.80799690986E+02  0.78694118266E+02  0.11456711628E+03  0.00000000000E+00 0. -1.
         21    1    1    2  503  502 -0.18266037830E+02  0.17508865039E+02  0.63844899759E+01  0.26095405826E+02  0.00000000000E+00 0.  1.
          1    1    1    2  501    0  0.93332849328E+02 -0.12784378032E+03 -0.28626586430E+02  0.16085563211E+03  0.00000000000E+00 0. -1.
<scales pt_clust_5="13000.00000" pt_clust_6="13000.00000" pt_clust_7="13000.00000" pt_clust_8="13000.00000" pt_clust_9="25.30234" pt_clust_10="152.42000"></scales>
<clustering>
<clus scale="   25.302">  1  9  2 -1</clus>
<clus scale="   80.258">  5  6 -1 -1</clus>
<clus scale="   93.315">  7  8 -1 -1</clus>
<clus scale="  152.420">  1 10  2 -1</clus>
<clus scale="  292.631">  2  5  1 -1</clus>
<clus scale="   25.302">  1  5  2 -1</clus>
</clustering>
</event>
<event>
10    4  0.7204077E-005  0.1331624E+03  0.7546771E-02  0.1245896E+00
         -1   -1    0    0    0  501 -0.00000000000E+00  0.00000000000E+00  0.31355181547E+03  0.31355181547E+03  0.00000000000E+00 0.  1.
         21   -1    0    0  503  502  0.00000000000E+00 -0.00000000000E+00 -0.13526505501E+03  0.13526505501E+03  0.00000000000E+00 0.  1.
         24    2    1    2    0    0  0.78911158584E+01 -0.42569850104E+02  0.10206603757E+03  0.13199269122E+03  0.71624944410E+02 0.  0.
         23    2    1    2    0    0 -0.10951501299E+03  0.41704644437E+01 -0.97190068603E+01  0.14400913725E+03  0.92915239199E+02 0.  0.
        -13    1    3    3    0    0 -0.25961991693E+02 -0.53055634461E+01  0.62746686048E+02  0.68112558506E+02  0.00000000000E+00 0.  1.
         14    1    3    3    0    0  0.33853107551E+02 -0.37264286658E+02  0.39319351526E+02  0.63880132713E+02  0.00000000000E+00 0. -1.
        -13    1    4    4    0    0 -0.43381405737E+02 -0.25223314916E+02 -0.41353965319E+02  0.65025475213E+02  0.00000000000E+00 0.  1.
         13    1    4    4    0    0 -0.66133607249E+02  0.29393779360E+02  0.31634958459E+02  0.78983662041E+02  0.00000000000E+00 0. -1.
         21    1    1    2  503  501  0.15315611910E+02  0.13318706889E+02 -0.23596015154E+02  0.31124393207E+02  0.00000000000E+00 0.  1.
         -2    1    1    2    0  502  0.86308285218E+02  0.25080678771E+02  0.10953574490E+03  0.14169064880E+03  0.00000000000E+00 0.  1.
<scales pt_clust_5="13000.00000" pt_clust_6="13000.00000" pt_clust_7="13000.00000" pt_clust_8="13000.00000" pt_clust_9="20.29670" pt_clust_10="95.38870"></scales>
<clustering>
<clus scale="   20.297">  2  9  1 -1</clus>
<clus scale="   71.625">  5  6 -1 -1</clus>
<clus scale="   82.999">  1  5  2 -1</clus>
<clus scale="   92.915">  7  8 -1 -1</clus>
<clus scale="   95.389">  2 10  1 -1</clus>
<clus scale="   20.297">  2  5  1 -1</clus>
</clustering>
</event>
<event>
10    4  0.7204077E-005  0.4171055E+03  0.7546771E-02  0.1059686E+00
         21   -1    0    0  501  502  0.00000000000E+00  0.00000000000E+00  0.36865684303E+03  0.36865684303E+03  0.00000000000E+00 0. -1.
          2   -1    0    0  503    0 -0.00000000000E+00 -0.00000000000E+00 -0.10898569437E+04  0.10898569437E+04  0.00000000000E+00 0. -1.
         24    2    1    2    0    0 -0.19419291741E+03  0.34482124924E+02 -0.65476181516E+02  0.22278218984E+03  0.80279933062E+02 0.  0.
         23    2    1    2    0    0 -0.24091014184E+03  0.34634850503E+02 -0.62835777437E+03  0.68250453420E+03  0.10835902030E+03 0.  0.
        -11    1    3    3    0    0 -0.14066581510E+03  0.60861550927E+02 -0.46811285578E+02  0.16025696982E+03  0.00000000000E+00 0.  1.
         12    1    3    3    0    0 -0.53527102317E+02 -0.26379426003E+02 -0.18664895938E+02  0.62525220024E+02  0.00000000000E+00 0. -1.
        -11    1    4    4    0    0 -0.17953324957E+03 -0.14387541608E+01 -0.53982224764E+03  0.56889569937E+03  0.00000000000E+00 0.  1.
         11    1    4    4    0    0 -0.61376892266E+02  0.36073604663E+02 -0.88535526736E+02  0.11360883483E+03  0.00000000000E+00 0. -1.
         21    1    1    2  503  502 -0.56380049897E+02 -0.10738463992E+02 -0.75983596713E+01  0.57894384054E+02  0.00000000000E+00 0. -1.
          1    1    1    2  501    0  0.49148310915E+03 -0.58378511435E+02 -0.19767785086E+02  0.49533267861E+03  0.00000000000E+00 0. -1.
<scales pt_clust_5="13000.00000" pt_clust_6="13000.00000" pt_clust_7="13000.00000" pt_clust_8="13000.00000" pt_clust_9="57.39359" pt_clust_10="402.78450"></scales>
<clustering>
<clus scale="   57.394">  1  9  2 -1</clus>
<clus scale="   80.280">  5  6 -1 -1</clus>
<clus scale="  108.359">  7  8 -1 -1</clus>
<clus scale="  224.414">  2  5  1 -1</clus>
<clus scale="  402.784">  1 10  2 -1</clus>
<clus scale="   57.394">  1  5  2 -1</clus>
</clustering>
</event>
<event>
10    4  0.7204077E-005  0.9329164E+02  0.7546771E-02  0.1302719E+00
         21   -1    0    0  501  502  0.00000000000E+00  0.00000000000E+00  0.39818291921E+02  0.39818291921E+02  0.00000000000E+00 0.  1.
          2   -1    0    0  503    0 -0.00000000000E+00 -0.00000000000E+00 -0.89188039939E+03  0.89188039939E+03  0.00000000000E+00 0. -1.
         24    2    1    2    0    0 -0.20265930618E+02 -0.24954150126E+02 -0.44357535102E+03  0.45124584726E+03  0.76356434442E+02 0.  0.
         23    2    1    2    0    0  0.13411132224E+02 -0.10188739397E+02 -0.88033221060E+02  0.12651364577E+03  0.89287096929E+02 0.  0.
        -11    1    3    3    0    0 -0.53385618899E+01 -0.51804825755E+02 -0.28629936717E+03  0.29099753926E+03  0.00000000000E+00 0.  1.
         12    1    3    3    0    0 -0.14927368728E+02  0.26850675629E+02 -0.15727598385E+03  0.16024830799E+03  0.00000000000E+00 0. -1.
        -11    1    4    4    0    0 -0.88498677447E+00 -0.49244833861E+02 -0.49002907119E+02  0.69477491101E+02  0.00000000000E+00 0.  1.
         11    1    4    4    0    0  0.14296118999E+02  0.39056094464E+02 -0.39030313941E+02  0.57036154670E+02  0.00000000000E+00 0. -1.
         21    1    1    2  503  502  0.18718518307E+02 -0.22874916625E+02 -0.15651201901E+01  0.29598890848E+02  0.00000000000E+00 0.  1.
          1    1    1    2  501    0 -0.11863719913E+02  0.58017806149E+02 -0.31888841520E+03  0.32434030743E+03  0.00000000000E+00 0. -1.
<scales pt_clust_5="13000.00000" pt_clust_6="13000.00000" pt_clust_7="13000.00000" pt_clust_8="13000.00000" pt_clust_9="29.55748" pt_clust_10="56.47313"></scales>
<clustering>
<clus scale="   29.557">  1  9  2 -1</clus>
<clus scale="   56.473">  1 10  2 -1</clus>
<clus scale="   76.356">  5  6 -1 -1</clus>
<clus scale="   81.003">  2  5  1 -1</clus>
<clus scale="   89.287">  7  8 -1 -1</clus>
<clus scale="   29.557">  1  5  2 -1</clus>
</clustering>
</event>
<event>
10    4  0.7204077E-005  0.1027265E+03  0.7546771E-02  0.1280911E+00
         21   -1    0    0  503  502  0.00000000000E+00  0.00000000000E+00  0.25362584232E+03  0.25362584232E+03  0.00000000000E+00 0. -1.
         -3   -1    0    0    0  501 -0.00000000000E+00 -0.00000000000E+00 -0.11265000853E+03  0.11265000853E+03  0.00000000000E+00 0.  1.
         23    2    1    2    0    0 -0.81530067383E+01  0.30413570996E+02 -0.11788877466E+02  0.97422003371E+02  0.91436383838E+02 0.  0.
         24    2    1    2    0    0  0.42290407847E+02 -0.84210316491E+02  0.10074035942E+03  0.15858489888E+03  0.78234865234E+02 0.  0.
        -11    1    4    4    0    0  0.13694202736E+01 -0.42229744848E+02  0.26013870559E+00  0.42252743508E+02  0.00000000000E+00 0.  1.
         12    1    4    4    0    0  0.40920987573E+02 -0.41980571643E+02  0.10048022071E+03  0.11633215537E+03  0.00000000000E+00 0. -1.
        -11    1    3    3    0    0  0.18277502740E+02  0.55727946132E+02 -0.15427583759E+02  0.60643890270E+02  0.00000000000E+00 0.  1.
         11    1    3    3    0    0 -0.26430509478E+02 -0.25314375136E+02  0.36387062926E+01  0.36778113101E+02  0.00000000000E+00 0. -1.
         21    1    1    2  503  501 -0.44533094118E+01  0.46703788254E+02  0.62368142533E+02  0.78043968409E+02  0.00000000000E+00 0. -1.
         -4    1    1    2    0  502 -0.29684091696E+02  0.70929572409E+01 -0.10343790696E+02  0.32224980190E+02  0.00000000000E+00 0.  1.
<scales pt_clust_5="13000.00000" pt_clust_6="13000.00000" pt_clust_7="13000.00000" pt_clust_8="13000.00000" pt_clust_9="50.46954" pt_clust_10="30.51977"></scales>
<clustering>
<clus scale="   30.520">  1 10  2 -1</clus>
<clus scale="   50.470">  1  9  2 -1</clus>
<clus scale="   78.235">  5  6 -1 -1</clus>
<clus scale="   91.175">  1  5  2 -1</clus>
<clus scale="   91.436">  7  8 -1 -1</clus>
<clus scale="   30.520">  1  5  2 -1</clus>
</clustering>
</event>
<event>
10    4  0.7204077E-005  0.4154271E+03  0.7546771E-02  0.1073973E+00
          2   -1    0    0  503    0 -0.00000000000E+00  0.00000000000E+00  0.73684388685E+03  0.73684388685E+03  0.00000000000E+00 0. -1.
         21   -1    0    0  501  502  0.00000000000E+00 -0.00000000000E+00 -0.65926991498E+03  0.65926991498E+03  0.00000000000E+00 0. -1.
         24    2    1    2    0    0 -0.14470884751E+02  0.15388466573E+03  0.17294799380E+02  0.17210815707E+03  0.73703533107E+02 0.  0.
         23    2    1    2    0    0  0.34815356406E+03  0.82533714086E+02  0.28592071509E+03  0.46666274108E+03  0.89446858373E+02 0.  0.
        -13    1    3    3    0    0 -0.16450754244E+02  0.34524577633E+02 -0.24738826161E+02  0.45547593743E+02  0.00000000000E+00 0.  1.
         14    1    3    3    0    0  0.19798694926E+01  0.11936008810E+03  0.42033625541E+02  0.12656056333E+03  0.00000000000E+00 0. -1.
        -13    1    4    4    0    0  0.32495416096E+03  0.54708100860E+02  0.23752693061E+03  0.40621081447E+03  0.00000000000E+00 0. -1.
         13    1    4    4    0    0  0.23199403093E+02  0.27825613226E+02  0.48393784475E+02  0.60451926612E+02  0.00000000000E+00 0.  1.
         21    1    1    2  503  502  0.10794266983E+03 -0.99014129934E+02 -0.25481655043E+03  0.29391647158E+03  0.00000000000E+00 0. -1.
          1    1    1    2  501    0 -0.44162534913E+03 -0.13740424988E+03  0.29175007820E+02  0.46342643209E+03  0.00000000000E+00 0. -1.
<scales pt_clust_5="13000.00000" pt_clust_6="13000.00000" pt_clust_7="13000.00000" pt_clust_8="13000.00000" pt_clust_9="146.47668" pt_clust_10="405.68331"></scales>
<clustering>
<clus scale="   73.704">  5  6 -1 -1</clus>
<clus scale="   89.447">  7  8 -1 -1</clus>
<clus scale="  146.477">  2  9  1 -1</clus>
<clus scale="  153.079">  1  5  2 -1</clus>
<clus scale="  405.683">  2 10  1 -1</clus>
<clus scale="  146.477">  2  5  1 -1</clus>
</clustering>
</event>
<event>
10    4  0.7204077E-005  0.1038303E+03  0.7546771E-02  0.1273745E+00
         21   -1    0    0  501  502  0.00000000000E+00  0.00000000000E+00  0.40292907176E+03  0.40292907176E+03  0.00000000000E+00 0. -1.
          4   -1    0    0  503    0 -0.00000000000E+00 -0.00000000000E+00 -0.10148734594E+03  0.10148734594E+03  0.00000000000E+00 0. -1.
         24    2    1    2    0    0 -0.61976925088E+02 -0.27560063835E+02  0.27714895888E+02  0.10984653892E+03  0.81837951448E+02 0.  0.
         23    2    1    2    0    0  0.29546531440E+02  0.61240820587E+02  0.74581869874E+02  0.12788928547E+03  0.78547936941E+02 0.  0.
        -13    1    3    3    0    0 -0.27897057194E+02  0.21740438953E+01 -0.26982664885E+02  0.38872052573E+02  0.00000000000E+00 0.  1.
         14    1    3    3    0    0 -0.34079867894E+02 -0.29734107730E+02  0.54697560772E+02  0.70974486350E+02  0.00000000000E+00 0. -1.
        -11    1    4    4    0    0 -0.21654488716E+02  0.28564761664E+02  0.61139665126E+01  0.36362660477E+02  0.00000000000E+00 0. -1.
         11    1    4    4    0    0  0.51201020156E+02  0.32676058923E+02  0.68467903361E+02  0.91526624992E+02  0.00000000000E+00 0.  1.
         21    1    1    2  503  502 -0.26061256453E+02 -0.49626983426E+01  0.19976239318E+03  0.20151632983E+03  0.00000000000E+00 0. -1.
          3    1    1    2  501    0  0.58491650101E+02 -0.28718058409E+02 -0.61743312344E+00  0.65164263473E+02  0.00000000000E+00 0. -1.
<scales pt_clust_5="13000.00000" pt_clust_6="13000.00000" pt_clust_7="13000.00000" pt_clust_8="13000.00000" pt_clust_9="26.52956" pt_clust_10="61.83039"></scales>
<clustering>
<clus scale="   26.530">  1  9  2 -1</clus>
<clus scale="   61.830">  1 10  2 -1</clus>
<clus scale="   78.548">  7  8 -1 -1</clus>
<clus scale="   81.838">  5  6 -1 -1</clus>
<clus scale="  101.257">  1  7  2 -1</clus>
<clus scale="   26.530">  1  5  2 -1</clus>
</clustering>
</event>
<event>
10    4  0.7204077E-005  0.1305020E+03  0.7546771E-02  0.1230189E+00
         -1   -1    0    0    0  501 -0.00000000000E+00  0.00000000000E+00  0.20331284235E+03  0.20331284235E+03  0.00000000000E+00 0.  1.
         21   -1    0    0  501  502  0.00000000000E+00 -0.00000000000E+00 -0.44481644417E+03  0.44481644417E+03  0.00000000000E+00 0.  1.
         23    2    1    2    0    0  0.58934790722E+02  0.75187604953E+02  0.16012629604E+03  0.20716403662E+03  0.90277471665E+02 0.  0.
         24    2    1    2    0    0 -0.85589892549E+02 -0.35465187348E+02 -0.21098041804E+03  0.24282300217E+03  0.76595459173E+02 0.  0.
        -11    1    4    4    0    0 -0.47226207997E+02 -0.69371248712E+01 -0.17912046648E+03  0.18537146472E+03  0.00000000000E+00 0.  1.
         12    1    4    4    0    0 -0.38363684552E+02 -0.28528062477E+02 -0.31859951561E+02  0.57451537443E+02  0.00000000000E+00 0. -1.
        -11    1    3    3    0    0  0.36940713759E+02  0.74362318982E+02  0.16491607209E+03  0.18463932856E+03  0.00000000000E+00 0.  1.
         11    1    3    3    0    0  0.21994076964E+02  0.82528597151E+00 -0.47897760562E+01  0.22524708058E+02  0.00000000000E+00 0. -1.
         21    1    1    2  503  502  0.11730618786E+02 -0.16800999327E+02 -0.13007009382E+03  0.13167425831E+03  0.00000000000E+00 0.  1.
         -2    1    1    2    0  503  0.14924483041E+02 -0.22921418278E+02 -0.60579385996E+02  0.66467989421E+02  0.00000000000E+00 0.  1.
<scales pt_clust_5="13000.00000" pt_clust_6="13000.00000" pt_clust_7="13000.00000" pt_clust_8="13000.00000" pt_clust_9="20.49100" pt_clust_10="31.49627"></scales>
<clustering>
<clus scale="   20.491">  2  9  1 -1</clus>
<clus scale="   31.496">  2 10  1 -1</clus>
<clus scale="   76.595">  5  6 -1 -1</clus>
<clus scale="   90.277">  7  8 -1 -1</clus>
<clus scale="  121.440">  2  5  1 -1</clus>
<clus scale="   20.491">  2  5  1 -1</clus>
</clustering>
</event>
<event>
10    4  0.7204077E-005  0.1048356E+03  0.7546771E-02  0.1273255E+00
         -1   -1    0    0    0  501 -0.00000000000E+00  0.00000000000E+00  0.22182838058E+03  0.22182838058E+03  0.00000000000E+00 0.  1.
         21   -1    0    0  503  502  0.00000000000E+00 -0.00000000000E+00 -0.13993189729E+03  0.13993189729E+03  0.00000000000E+00 0. -1.
         23    2    1    2    0    0 -0.58087183151E+02  0.20841415605E+02  0.64811051184E+02  0.12607462803E+03  0.88802331199E+02 0.  0.
         24    2    1    2    0    0  0.23416393372E+02  0.13950088848E+02  0.10398371391E+02  0.99328583975E+02  0.94947927884E+02 0.  0.
        -11    1    4    4    0    0  0.41458238147E+02  0.35841709104E+02  0.32188920343E+02  0.63557377342E+02  0.00000000000E+00 0.  1.
         12    1    4    4    0    0 -0.18041844775E+02 -0.21891620256E+02 -0.21790548951E+02  0.35771206632E+02  0.00000000000E+00 0. -1.
        -13    1    3    3    0    0  0.27291823923E+01 -0.29047940585E+02  0.21813523138E+02  0.36428849562E+02  0.00000000000E+00 0.  1.
         13    1    3    3    0    0 -0.60816365543E+02  0.49889356190E+02  0.42997528047E+02  0.89645778468E+02  0.00000000000E+00 0. -1.
         21    1    1    2  503  501 -0.22090202457E+02 -0.34958891375E+01 -0.47093047081E+02  0.52133994368E+02  0.00000000000E+00 0. -1.
         -2    1    1    2    0  502  0.56760992236E+02 -0.31295615316E+02  0.53780107795E+02  0.84223071494E+02  0.00000000000E+00 0.  1.
<scales pt_clust_5="13000.00000" pt_clust_6="13000.00000" pt_clust_7="13000.00000" pt_clust_8="13000.00000" pt_clust_9="22.36511" pt_clust_10="61.88443"></scales>
<clustering>
<clus scale="   22.365">  2  9  1 -1</clus>
<clus scale="   61.884">  2 10  1 -1</clus>
<clus scale="   88.802">  7  8 -1 -1</clus>
<clus scale="   94.948">  5  6 -1 -1</clus>
<clus scale="   99.304">  1  7  2 -1</clus>
<clus scale="   22.365">  2  5  1 -1</clus>
</clustering>
</event>
<event>
10    4  0.7204077E-005  0.6634209E+03  0.7546771E-02  0.9941056E-01
          2   -1    0    0  502    0 -0.00000000000E+00  0.00000000000E+00  0.11822529013E+04  0.11822529013E+04  0.00000000000E+00 0. -1.
         21   -1    0    0  503  502  0.00000000000E+00 -0.00000000000E+00 -0.82299418284E+03  0.82299418284E+03  0.00000000000E+00 0.  1.
         23    2    1    2    0    0  0.35611454391E+02  0.36954934306E+03 -0.40697302841E+02  0.38516377282E+03  0.94127407243E+02 0.  0.
         24    2    1    2    0    0  0.32922539518E+03 -0.73304856916E+03  0.59998894550E+02  0.80990533785E+03  0.81223293135E+02 0.  0.
        -13    1    4    4    0    0  0.27448969681E+03 -0.54816339545E+03  0.68741807233E+02  0.61688989117E+03  0.00000000000E+00 0.  1.
         14    1    4    4    0    0  0.54735698369E+02 -0.18488517372E+03 -0.87429126823E+01  0.19301544668E+03  0.00000000000E+00 0. -1.
        -11    1    3    3    0    0 -0.11631041353E+02  0.28204411551E+03 -0.43854862665E+02  0.28567011253E+03  0.00000000000E+00 0.  1.
         11    1    3    3    0    0  0.47242495744E+02  0.87505227550E+02  0.31575598239E+01  0.99493660284E+02  0.00000000000E+00 0. -1.
         21    1    1    2  503  501  0.29451890787E+02  0.41150332905E+02 -0.11603132863E+03  0.12658606951E+03  0.00000000000E+00 0. -1.
          1    1    1    2  501    0 -0.39428874036E+03  0.32234889320E+03  0.45598845534E+03  0.68359190393E+03  0.00000000000E+00 0. -1.
<scales pt_clust_5="13000.00000" pt_clust_6="13000.00000" pt_clust_7="13000.00000" pt_clust_8="13000.00000" pt_clust_9="50.60399" pt_clust_10="658.43034"></scales>
<clustering>
<clus scale="   50.604">  2  9  1 -1</clus>
<clus scale="   81.223">  5  6 -1 -1</clus>
<clus scale="   94.127">  7  8 -1 -1</clus>
<clus scale="  395.976">  1  7  2 -1</clus>
<clus scale="  658.430">  2 10  1 -1</clus>
<clus scale="   50.604">  2  5  1 -1</clus>
</clustering>
</event>
<event>
10    4  0.7204077E-005  0.3042457E+03  0.7546771E-02  0.1105750E+00
          2   -1    0    0  502    0 -0.00000000000E+00  0.00000000000E+00  0.39859038926E+03  0.39859038926E+03  0.00000000000E+00 0. -1.
         21   -1    0    0  503  502  0.00000000000E+00 -0.00000000000E+00 -0.46134502651E+03  0.46134502651E+03  0.00000000000E+00 0. -1.
         23    2    1    2    0    0  0.12019060616E+03  0.90617126060E+02  0.62297832813E+02  0.17933183020E+03  0.74977596686E+02 0.  0.
         24    2    1    2    0    0  0.14506777573E+03  0.17397464196E+03 -0.13517196580E+03  0.27639709437E+03  0.82535191527E+02 0.  0.
        -11    1    4    4    0    0  0.12355727428E+02  0.35633647235E+02 -0.59188052283E+02  0.70182949130E+02  0.00000000000E+00 0.  1.
         12    1    4    4    0    0  0.13271204830E+03  0.13834099473E+03 -0.75983913516E+02  0.20621414524E+03  0.00000000000E+00 0. -1.
        -11    1    3    3    0    0  0.49344662586E+02  0.79020306101E+02  0.52334106286E+02  0.10685486972E+03  0.00000000000E+00 0.  1.
         11    1    3    3    0    0  0.70845943574E+02  0.11596819959E+02  0.99637265274E+01  0.72476960480E+02  0.00000000000E+00 0. -1.
         21    1    1    2  503  501 -0.11682468042E+03 -0.65515854196E+02 -0.59125220979E+02  0.14641080855E+03  0.00000000000E+00 0. -1.
          1    1    1    2  501    0 -0.14843370147E+03 -0.19907591382E+03  0.69244716723E+02  0.25779568264E+03  0.00000000000E+00 0. -1.
<scales pt_clust_5="13000.00000" pt_clust_6="13000.00000" pt_clust_7="13000.00000" pt_clust_8="13000.00000" pt_clust_9="111.16281" pt_clust_10="111.16281"></scales>
<clustering>
<clus scale="   74.978">  7  8 -1 -1</clus>
<clus scale="   82.535">  5  6 -1 -1</clus>
<clus scale="  111.163">  9 10 -1 -1</clus>
<clus scale="  168.163">  1  7  2 -1</clus>
<clus scale="  276.528">  1  5  2 -1</clus>
<clus scale="  304.246">  2  5  1 -1</clus>
</clustering>
</event>
<event>
10    4  0.7204077E-005  0.2353345E+03  0.7546771E-02  0.1155310E+00
         21   -1    0    0  501  502  0.00000000000E+00  0.00000000000E+00  0.27915870067E+03  0.27915870067E+03  0.00000000000E+00 0. -1.
          2   -1    0    0  503    0 -0.00000000000E+00 -0.00000000000E+00 -0.45170391965E+03  0.45170391965E+03  0.00000000000E+00 0. -1.
         23    2    1    2    0    0 -0.29802627848E+02  0.33938854860E+02 -0.63814452523E+02  0.12421390117E+03  0.96523398188E+02 0.  0.
         24    2    1    2    0    0 -0.14123475576E+03 -0.20980595235E+03 -0.16796427800E+03  0.31409145136E+03  0.80471406448E+02 0.  0.
        -13    1    4    4    0    0 -0.36342584306E+02 -0.72135929289E+01 -0.19126404100E+02  0.41696986592E+02  0.00000000000E+00 0.  1.
         14    1    4    4    0    0 -0.10489217145E+03 -0.20259235942E+03 -0.14883787390E+03  0.27239446477E+03  0.00000000000E+00 0. -1.
        -11    1    3    3    0    0  0.22346661492E+01  0.39646708032E+02 -0.78912336178E+02  0.88340319173E+02  0.00000000000E+00 0.  1.
         11    1    3    3    0    0 -0.32037293997E+02 -0.57078531718E+01  0.15097883656E+02  0.35873581998E+02  0.00000000000E+00 0. -1.
         21    1    1    2  503  502  0.32991765631E+02  0.43091048747E+02  0.83399579854E+02  0.99502688413E+02  0.00000000000E+00 0. -1.
          1    1    1    2  501    0  0.13804561798E+03  0.13277604874E+03 -0.24166068311E+02  0.19305457938E+03  0.00000000000E+00 0. -1.
<scales pt_clust_5="13000.00000" pt_clust_6="13000.00000" pt_clust_7="13000.00000" pt_clust_8="13000.00000" pt_clust_9="54.27057" pt_clust_10="221.14859"></scales>
<clustering>
<clus scale="   54.271">  1  9  2 -1</clus>
<clus scale="   80.471">  5  6 -1 -1</clus>
<clus scale="   96.523">  7  8 -1 -1</clus>
<clus scale="  107.644">  2  7  1 -1</clus>
<clus scale="  221.149">  1 10  2 -1</clus>
<clus scale="   54.271">  1  5  2 -1</clus>
</clustering>
</event>
<event>
10    4  0.7204077E-005  0.3010478E+03  0.7546771E-02  0.1117204E+00
          2   -1    0    0  502    0 -0.00000000000E+00  0.00000000000E+00  0.42987122994E+03  0.42987122994E+03  0.00000000000E+00 0. -1.
         21   -1    0    0  503  502  0.00000000000E+00 -0.00000000000E+00 -0.47947943141E+03  0.47947943141E+03  0.00000000000E+00 0.  1.
         23    2    1    2    0    0  0.20516217330E+02  0.93994158917E+02 -0.24495036968E+03  0.27719641964E+03  0.87070973195E+02 0.  0.
         24    2    1    2    0    0 -0.25697335189E+03  0.87518860435E+02  0.14598536261E+03  0.31260303512E+03  0.52096803661E+02 0.  0.
        -11    1    4    4    0    0 -0.21267277320E+03  0.85968308940E+02  0.10518663129E+03  0.25235785307E+03  0.00000000000E+00 0.  1.
         12    1    4    4    0    0 -0.44300578691E+02  0.15505514954E+01  0.40798731325E+02  0.60245182048E+02  0.00000000000E+00 0. -1.
        -13    1    3    3    0    0  0.10215882063E+02  0.71131188105E+02 -0.24140152072E+03  0.25187041186E+03  0.00000000000E+00 0.  1.
         13    1    3    3    0    0  0.10300335268E+02  0.22862970812E+02 -0.35488489580E+01  0.25326007777E+02  0.00000000000E+00 0. -1.
         21    1    1    2  503  501  0.71456204666E+02 -0.42571981656E+01 -0.35545394849E+01  0.71671107654E+02  0.00000000000E+00 0. -1.
          1    1    1    2  501    0  0.16500092990E+03 -0.17725582119E+03  0.52911345084E+02  0.24788009894E+03  0.00000000000E+00 0. -1.
<scales pt_clust_5="13000.00000" pt_clust_6="13000.00000" pt_clust_7="13000.00000" pt_clust_8="13000.00000" pt_clust_9="56.54824" pt_clust_10="56.54824"></scales>
<clustering>
<clus scale="   52.097">  5  6 -1 -1</clus>
<clus scale="   56.548">  9 10 -1 -1</clus>
<clus scale="   87.071">  7  8 -1 -1</clus>
<clus scale="  129.758">  1  7  2 -1</clus>
<clus scale="  287.273">  1  5  2 -1</clus>
<clus scale="  301.048">  2  5  1 -1</clus>
</clustering>
</event>
<event>
10    4  0.7204077E-005  0.1669408E+03  0.7546771E-02  0.1216848E+00
          2   -1    0    0  503    0 -0.00000000000E+00  0.00000000000E+00  0.54615047200E+03  0.54615047200E+03  0.00000000000E+00 0. -1.
         21   -1    0    0  501  502  0.00000000000E+00 -0.00000000000E+00 -0.39514436941E+03  0.39514436941E+03  0.00000000000E+00 0. -1.
         24    2    1    2    0    0  0.11097940563E+02  0.24938549272E+02  0.30476740893E+03  0.31425676986E+03  0.71617374524E+02 0.  0.
         23    2    1    2    0    0  0.58237745536E+02 -0.53092616134E+02  0.77674861226E+02  0.14550345242E+03  0.94484970799E+02 0.  0.
        -13    1    3    3    0    0 -0.19638033395E+02 -0.10823071973E+02  0.45375213604E+02  0.50613251745E+02  0.00000000000E+00 0.  1.
         14    1    3    3    0    0  0.30735973958E+02  0.35761621245E+02  0.25939219532E+03  0.26364351811E+03  0.00000000000E+00 0. -1.
        -11    1    4    4    0    0  0.96636241517E+01  0.23983284551E+02  0.38398156714E+02  0.46292569692E+02  0.00000000000E+00 0.  1.
         11    1    4    4    0    0  0.48574121384E+02 -0.77075900685E+02  0.39276704512E+02  0.99210882729E+02  0.00000000000E+00 0. -1.
         21    1    1    2  503  502 -0.14054690048E+02  0.17263571006E+03 -0.27121611978E+03  0.32180554117E+03  0.00000000000E+00 0. -1.
          1    1    1    2  501    0 -0.55280996051E+02 -0.14448164320E+03  0.39779952212E+02  0.15972907795E+03  0.00000000000E+00 0. -1.
<scales pt_clust_5="13000.00000" pt_clust_6="13000.00000" pt_clust_7="13000.00000" pt_clust_8="13000.00000" pt_clust_9="13000.00000" pt_clust_10="166.94076"></scales>
<clustering>
<clus scale="   71.617">  5  6 -1 -1</clus>
<clus scale="   76.643">  1  5  2 -1</clus>
<clus scale="   94.485">  7  8 -1 -1</clus>
<clus scale="  121.097">  1  7  2 -1</clus>
<clus scale="  166.941">  1 10  2 -1</clus>
<clus scale="  166.941">  2  5  1 -1</clus>
</clustering>
</event>
<event>
10    4  0.7204077E-005  0.1702801E+03  0.7546771E-02  0.1178886E+00
          2   -1    0    0  502    0 -0.00000000000E+00  0.00000000000E+00  0.73455678038E+03  0.73455678038E+03  0.00000000000E+00 0. -1.
         21   -1    0    0  503  502  0.00000000000E+00 -0.00000000000E+00 -0.14971658248E+03  0.14971658248E+03  0.00000000000E+00 0. -1.
         23    2    1    2    0    0 -0.12215754468E+03 -0.93982426883E+01  0.34767108010E+03  0.37962922118E+03  0.90732424997E+02 0.  0.
         24    2    1    2    0    0  0.23701734189E+03  0.88291993858E+02  0.15794087456E+03  0.30897106487E+03  0.80901807995E+02 0.  0.
        -13    1    4    4    0    0  0.48668863165E+02  0.46311107014E+02  0.69621462297E+02  0.96749805617E+02  0.00000000000E+00 0.  1.
         14    1    4    4    0    0  0.18834847872E+03  0.41980886844E+02  0.88319412261E+02  0.21222125925E+03  0.00000000000E+00 0. -1.
        -13    1    3    3    0    0 -0.89210179201E+02 -0.25261220591E+02  0.13460198798E+03  0.16344503819E+03  0.00000000000E+00 0.  1.
         13    1    3    3    0    0 -0.32947365483E+02  0.15862977903E+02  0.21306909212E+03  0.21618418299E+03  0.00000000000E+00 0. -1.
         21    1    1    2  503  501  0.70552948928E+01 -0.46295151480E+02  0.30996128828E+00  0.46830698400E+02  0.00000000000E+00 0. -1.
          1    1    1    2  501    0 -0.12191509210E+03 -0.32598599690E+02  0.78918281951E+02  0.14884237840E+03  0.00000000000E+00 0. -1.
<scales pt_clust_5="13000.00000" pt_clust_6="13000.00000" pt_clust_7="13000.00000" pt_clust_8="13000.00000" pt_clust_9="46.82967" pt_clust_10="128.26715"></scales>
<clustering>
<clus scale="   46.830">  2  9  1 -1</clus>
<clus scale="   80.902">  5  6 -1 -1</clus>
<clus scale="   90.732">  7  8 -1 -1</clus>
<clus scale="  128.267">  2 10  1 -1</clus>
<clus scale="  165.251">  2  5  1 -1</clus>
<clus scale="   46.830">  2  5  1 -1</clus>
</clustering>
</event>
<event>
10    4  0.7204077E-005  0.2048241E+03  0.7546771E-02  0.1146387E+00
         21   -1    0    0  501  502  0.00000000000E+00  0.00000000000E+00  0.12441773619E+03  0.12441773619E+03  0.00000000000E+00 0. -1.
          4   -1    0    0  503    0 -0.00000000000E+00 -0.00000000000E+00 -0.50867755002E+03  0.50867755002E+03  0.00000000000E+00 0. -1.
         23    2    1    2    0    0  0.10465171671E+03  0.15154610711E+03 -0.26549336488E+03  0.33474244886E+03  0.87450419560E+02 0.  0.
         24    2    1    2    0    0 -0.94780125862E+02 -0.16222952967E+03 -0.60744954130E+02  0.21295031696E+03  0.79725751715E+02 0.  0.
        -13    1    4    4    0    0 -0.29346964056E+02 -0.29838660006E+02 -0.49533498118E+02  0.64847184720E+02  0.00000000000E+00 0.  1.
         14    1    4    4    0    0 -0.65433161806E+02 -0.13239086966E+03 -0.11211456013E+02  0.14810313224E+03  0.00000000000E+00 0. -1.
        -11    1    3    3    0    0  0.26053805527E+02  0.42182814148E+02 -0.14777082093E+03  0.15586662924E+03  0.00000000000E+00 0.  1.
         11    1    3    3    0    0  0.78597911184E+02  0.10936329296E+03 -0.11772254395E+03  0.17887581962E+03  0.00000000000E+00 0. -1.
         21    1    1    2  503  502  0.16229368857E+02 -0.16940106665E+02 -0.14308706571E+02  0.27479059501E+02  0.00000000000E+00 0.  1.
          3    1    1    2  501    0 -0.26100959706E+02  0.27623529218E+02 -0.43712788246E+02  0.57923460879E+02  0.00000000000E+00 0. -1.
<scales pt_clust_5="13000.00000" pt_clust_6="13000.00000" pt_clust_7="13000.00000" pt_clust_8="13000.00000" pt_clust_9="23.45974" pt_clust_10="36.58963"></scales>
<clustering>
<clus scale="   23.460">  1  9  2 -1</clus>
<clus scale="   36.590">  1 10  2 -1</clus>
<clus scale="   79.726">  5  6 -1 -1</clus>
<clus scale="   87.450">  7  8 -1 -1</clus>
<clus scale="  201.647">  1  5  2 -1</clus>
<clus scale="   23.460">  1  5  2 -1</clus>
</clustering>
</event>
<event>
10    4  0.7204077E-005  0.6097042E+03  0.7546771E-02  0.9885475E-01
          2   -1    0    0  503    0 -0.00000000000E+00  0.00000000000E+00  0.12785618679E+04  0.12785618679E+04  0.00000000000E+00 0. -1.
         21   -1    0    0  501  502  0.00000000000E+00 -0.00000000000E+00 -0.52876667364E+03  0.52876667364E+03  0.00000000000E+00 0. -1.
         24    2    1    2    0    0  0.26769235734E+03 -0.10130754587E+03  0.37593996318E+03  0.47921910670E+03  0.79985494217E+02 0.  0.
         23    2    1    2    0    0  0.25233869446E+03  0.13488204274E+03  0.63141531264E+03  0.69932298579E+03  0.92191969484E+02 0.  0.
        -13    1    3    3    0    0  0.18612455586E+03 -0.29590940107E+02  0.23209764083E+03  0.29897707087E+03  0.00000000000E+00 0.  1.
         14    1    3    3    0    0  0.81567801479E+02 -0.71716605759E+02  0.14384232235E+03  0.18024203583E+03  0.00000000000E+00 0. -1.
        -13    1    4    4    0    0  0.21914435770E+03  0.13096682050E+03  0.60520221644E+03  0.65684570514E+03  0.00000000000E+00 0. -1.
         13    1    4    4    0    0  0.33194336764E+02  0.39152222429E+01  0.26213096198E+02  0.42477280642E+02  0.00000000000E+00 0.  1.
         21    1    1    2  503  502 -0.13698499497E+02  0.22523095261E+02 -0.88022952940E+02  0.91885684156E+02  0.00000000000E+00 0.  1.
          1    1    1    2  501    0 -0.50633255230E+03 -0.56097592133E+02 -0.16953712861E+03  0.53690076489E+03  0.00000000000E+00 0. -1.
<scales pt_clust_5="13000.00000" pt_clust_6="13000.00000" pt_clust_7="13000.00000" pt_clust_8="13000.00000" pt_clust_9="26.36169" pt_clust_10="518.75038"></scales>
<clustering>
<clus scale="   26.362">  2  9  1 -1</clus>
<clus scale="   79.985">  5  6 -1 -1</clus>
<clus scale="   92.192">  7  8 -1 -1</clus>
<clus scale="  284.165">  5  7 -1 -1</clus>
<clus scale="  518.750">  2 10  1 -1</clus>
<clus scale="   26.362">  2  5  1 -1</clus>
</clustering>
</event>
<event>
10    4  0.7204077E-005  0.1639685E+03  0.7546771E-02  0.1201315E+00
         -3   -1    0    0    0  501 -0.00000000000E+00  0.00000000000E+00  0.20195178067E+03  0.20195178067E+03  0.00000000000E+00 0.  1.
         21   -1    0    0  503  502  0.00000000000E+00 -0.00000000000E+00 -0.46884395798E+03  0.46884395798E+03  0.00000000000E+00 0. -1.
         24    2    1    2    0    0 -0.51847662568E+02 -0.42700256005E+02 -0.78578100875E+02  0.13088264773E+03  0.80276133203E+02 0.  0.
         23    2    1    2    0    0 -0.11657175490E+03  0.14073733927E+03 -0.15493485698E+03  0.25641902751E+03  0.91377979048E+02 0.  0.
        -11    1    3    3    0    0 -0.10530228559E+02 -0.24974480947E+02  0.12091366151E+02  0.29678469427E+02  0.00000000000E+00 0.  1.
         12    1    3    3    0    0 -0.41317434008E+02 -0.17725775058E+02 -0.90669467026E+02  0.10120417830E+03  0.00000000000E+00 0. -1.
        -11    1    4    4    0    0 -0.66135384362E+02  0.60457015132E+02 -0.13086552001E+03  0.15860240878E+03  0.00000000000E+00 0.  1.
         11    1    4    4    0    0 -0.50436370534E+02  0.80280324142E+02 -0.24069336970E+02  0.97816618727E+02  0.00000000000E+00 0. -1.
         21    1    1    2  503  501  0.27868925415E+02 -0.79507676008E+02 -0.96678481592E+02  0.12823757776E+03  0.00000000000E+00 0.  1.
         -4    1    1    2    0  502  0.14055049205E+03 -0.18529407262E+02  0.63299262146E+02  0.15525648565E+03  0.00000000000E+00 0.  1.
<scales pt_clust_5="13000.00000" pt_clust_6="13000.00000" pt_clust_7="13000.00000" pt_clust_8="13000.00000" pt_clust_9="84.25050" pt_clust_10="136.14609"></scales>
<clustering>
<clus scale="   80.276">  5  6 -1 -1</clus>
<clus scale="   84.251">  2  9  1 -1</clus>
<clus scale="   91.378">  7  8 -1 -1</clus>
<clus scale="  112.760">  1  5  2 -1</clus>
<clus scale="  136.146">  2 10  1 -1</clus>
<clus scale="   84.251">  2  5  1 -1</clus>
</clustering>
</event>
<event>
10    4  0.7204077E-005  0.9627980E+02  0.7546771E-02  0.1293803E+00
          2   -1    0    0  503    0 -0.00000000000E+00  0.00000000000E+00  0.55689315794E+03  0.55689315794E+03  0.00000000000E+00 0. -1.
         21   -1    0    0  501  502  0.00000000000E+00 -0.00000000000E+00 -0.19344873793E+03  0.19344873793E+03  0.00000000000E+00 0.  1.
         23    2    1    2    0    0  0.79839017300E+01 -0.25721177114E+02  0.22794833781E+03  0.24676767629E+03  0.90600881398E+02 0.  0.
         24    2    1    2    0    0 -0.10649081554E+03  0.87621358271E+02 -0.10321192382E+03  0.19015903138E+03  0.80560286603E+02 0.  0.
        -13    1    4    4    0    0 -0.56188255312E+02  0.63158752044E+02 -0.10424621833E+03  0.13421409029E+03  0.00000000000E+00 0.  1.
         14    1    4    4    0    0 -0.50302560229E+02  0.24462606226E+02  0.10342945122E+01  0.55944941095E+02  0.00000000000E+00 0. -1.
        -13    1    3    3    0    0  0.28492246200E+02  0.22352551164E+02  0.13862312474E+03  0.14327531312E+03  0.00000000000E+00 0. -1.
         13    1    3    3    0    0 -0.20508344470E+02 -0.48073728278E+02  0.89325213071E+02  0.10349236317E+03  0.00000000000E+00 0.  1.
         21    1    1    2  503  502  0.18450437473E+02 -0.21348043500E+02 -0.23218748803E+02  0.36541317712E+02  0.00000000000E+00 0. -1.
          1    1    1    2  501    0  0.80056476338E+02 -0.40552137657E+02  0.26192675481E+03  0.27687387049E+03  0.00000000000E+00 0. -1.
<scales pt_clust_5="13000.00000" pt_clust_6="13000.00000" pt_clust_7="13000.00000" pt_clust_8="13000.00000" pt_clust_9="28.21626" pt_clust_10="90.93554"></scales>
<clustering>
<clus scale="   28.216">  2  9  1 -1</clus>
<clus scale="   80.560">  5  6 -1 -1</clus>
<clus scale="   90.601">  7  8 -1 -1</clus>
<clus scale="   90.936">  2 10  1 -1</clus>
<clus scale="   86.898">  2  5  1 -1</clus>
<clus scale="   28.216">  2  5  1 -1</clus>
</clustering>
</event>
<event>
10    4  0.7204077E-005  0.1535524E+03  0.7546771E-02  0.1197940E+00
         21   -1    0    0  501  502  0.00000000000E+00  0.00000000000E+00  0.17524520319E+03  0.17524520319E+03  0.00000000000E+00 0. -1.
          2   -1    0    0  503    0 -0.00000000000E+00 -0.00000000000E+00 -0.10134063702E+04  0.10134063702E+04  0.00000000000E+00 0. -1.
         24    2    1    2    0    0  0.12357257163E+03  0.23647611793E+02 -0.45228099873E+03  0.47606262766E+03  0.79045136673E+02 0.  0.
         23    2    1    2    0    0 -0.12865569900E+03  0.93047764075E+02  0.83382645284E+02  0.20039915482E+03  0.89425837609E+02 0.  0.
        -13    1    3    3    0    0  0.17588476021E+02 -0.26126278747E+02 -0.96009825058E+02  0.10104367094E+03  0.00000000000E+00 0.  1.
         14    1    3    3    0    0  0.10598409561E+03  0.49773890539E+02 -0.35627117368E+03  0.37501895671E+03  0.00000000000E+00 0. -1.
        -13    1    4    4    0    0 -0.37659574730E+02 -0.10395024932E+02  0.40111481416E+02  0.55993133986E+02  0.00000000000E+00 0. -1.
         13    1    4    4    0    0 -0.90996124268E+02  0.10344278901E+03  0.43271163868E+02  0.14440602083E+03  0.00000000000E+00 0.  1.
         21    1    1    2  503  502  0.45788132068E+02  0.42278671441E+01 -0.30320344784E+02  0.55079498969E+02  0.00000000000E+00 0. -1.
          1    1    1    2  501    0 -0.40705004704E+02 -0.12092324301E+03 -0.43894246883E+03  0.45711029199E+03  0.00000000000E+00 0. -1.
<scales pt_clust_5="13000.00000" pt_clust_6="13000.00000" pt_clust_7="13000.00000" pt_clust_8="13000.00000" pt_clust_9="45.98291" pt_clust_10="126.57402"></scales>
<clustering>
<clus scale="   45.983">  1  9  2 -1</clus>
<clus scale="   79.045">  5  6 -1 -1</clus>
<clus scale="   89.426">  7  8 -1 -1</clus>
<clus scale="  126.574">  1 10  2 -1</clus>
<clus scale="  147.748">  2  5  1 -1</clus>
<clus scale="   45.983">  1  5  2 -1</clus>
</clustering>
</event>
<event>
10    4  0.7204077E-005  0.1344299E+03  0.7546771E-02  0.1222627E+00
         21   -1    0    0  501  502  0.00000000000E+00  0.00000000000E+00  0.34270692087E+03  0.34270692087E+03  0.00000000000E+00 0. -1.
          4   -1    0    0  503    0 -0.00000000000E+00 -0.00000000000E+00 -0.46685958174E+03  0.46685958174E+03  0.00000000000E+00 0. -1.
         24    2    1    2    0    0  0.73401835863E+02  0.80807290251E+02 -0.20475158140E+03  0.24664121928E+03  0.83612399165E+02 0.  0.
         23    2    1    2    0    0 -0.43419315670E+02 -0.37505513436E+02  0.61660982373E+02  0.12351659041E+03  0.90345840229E+02 0.  0.
        -11    1    3    3    0    0 -0.17884914368E+01  0.28247497298E+02 -0.11451259060E+03  0.11795869282E+03  0.00000000000E+00 0.  1.
         12    1    3    3    0    0  0.75190327300E+02  0.52559792953E+02 -0.90238990796E+02  0.12868252645E+03  0.00000000000E+00 0. -1.
        -13    1    4    4    0    0 -0.21113573637E+02 -0.55777748677E+02  0.48869501605E+01  0.59839974273E+02  0.00000000000E+00 0.  1.
         13    1    4    4    0    0 -0.22305742034E+02  0.18272235240E+02  0.56774032213E+02  0.63676616132E+02  0.00000000000E+00 0. -1.
         21    1    1    2  503  502 -0.36174393974E+02  0.25292592479E+02  0.22129392333E+03  0.22565305785E+03  0.00000000000E+00 0. -1.
          3    1    1    2  501    0  0.61918737813E+01 -0.68594369294E+02 -0.20235598516E+03  0.21375563509E+03  0.00000000000E+00 0. -1.
<scales pt_clust_5="13000.00000" pt_clust_6="13000.00000" pt_clust_7="13000.00000" pt_clust_8="13000.00000" pt_clust_9="44.13957" pt_clust_10="67.53292"></scales>
<clustering>
<clus scale="   44.140">  1  9  2 -1</clus>
<clus scale="   67.533">  1 10  2 -1</clus>
<clus scale="   83.612">  5  6 -1 -1</clus>
<clus scale="   90.346">  7  8 -1 -1</clus>
<clus scale="  130.000">  2  5  1 -1</clus>
<clus scale="   44.140">  1  5  2 -1</clus>
</clustering>
</event>
<event>
10    4  0.7204077E-005  0.2634353E+03  0.7546771E-02  0.1105924E+00
          2   -1    0    0  503    0 -0.00000000000E+00  0.00000000000E+00  0.12756428969E+04  0.12756428969E+04  0.00000000000E+00 0. -1.
         21   -1    0    0  501  502  0.00000000000E+00 -0.00000000000E+00 -0.77572966292E+02  0.77572966292E+02  0.00000000000E+00 0. -1.
         23    2    1    2    0    0 -0.20474928528E+03 -0.14659731149E+03  0.77980180701E+03  0.82510358402E+03  0.96395148163E+02 0.  0.
         24    2    1    2    0    0  0.19600222741E+03  0.12377514002E+03  0.27785414711E+03  0.37060134422E+03  0.80032935964E+02 0.  0.
        -13    1    4    4    0    0  0.25116311160E+01  0.28931666308E+02  0.24436768848E+02  0.37953988960E+02  0.00000000000E+00 0.  1.
         14    1    4    4    0    0  0.19349059630E+03  0.94843473708E+02  0.25341737826E+03  0.33264735526E+03  0.00000000000E+00 0. -1.
        -11    1    3    3    0    0 -0.25971677471E+02 -0.50613267614E+02  0.93627801913E+02  0.10955544797E+03  0.00000000000E+00 0.  1.
         11    1    3    3    0    0 -0.17877760781E+03 -0.95984043876E+02  0.68617400510E+03  0.71554813605E+03  0.00000000000E+00 0. -1.
         21    1    1    2  503  502  0.22313063873E+02  0.23005779316E+01  0.95920944826E+01  0.24396183201E+02  0.00000000000E+00 0. -1.
          1    1    1    2  501    0 -0.13566006002E+02  0.20521593542E+02  0.13082188196E+03  0.13311475170E+03  0.00000000000E+00 0. -1.
<scales pt_clust_5="13000.00000" pt_clust_6="13000.00000" pt_clust_7="13000.00000" pt_clust_8="13000.00000" pt_clust_9="22.43135" pt_clust_10="24.43275"></scales>
<clustering>
<clus scale="   22.431">  2  9  1 -1</clus>
<clus scale="   24.433">  2 10  1 -1</clus>
<clus scale="   80.033">  5  6 -1 -1</clus>
<clus scale="   96.395">  7  8 -1 -1</clus>
<clus scale="  257.898">  2  5  1 -1</clus>
<clus scale="   22.431">  2  5  1 -1</clus>
</clustering>
</event>
<event>
10    4  0.7204077E-005  0.2279948E+03  0.7546771E-02  0.1140753E+00
         21   -1    0    0  501  502  0.00000000000E+00  0.00000000000E+00  0.72833378133E+03  0.72833378133E+03  0.00000000000E+00 0.  1.
         -3   -1    0    0    0  501 -0.00000000000E+00 -0.00000000000E+00 -0.39361625314E+03  0.39361625314E+03  0.00000000000E+00 0.  1.
         24    2    1    2    0    0  0.12097181517E+03  0.86437466039E+02 -0.16653424838E+03  0.23689973655E+03  0.79260416951E+02 0.  0.
         23    2    1    2    0    0  0.56597803329E+02 -0.18474058416E+03  0.53698491557E+03  0.57867673817E+03  0.95820524819E+02 0.  0.
        -11    1    3    3    0    0  0.12458206068E+03  0.53956275369E+02 -0.13627279434E+03  0.19235967346E+03  0.00000000000E+00 0.  1.
         12    1    3    3    0    0 -0.36102455131E+01  0.32481190670E+02 -0.30261454045E+02  0.44540063099E+02  0.00000000000E+00 0. -1.
        -11    1    4    4    0    0 -0.18554930798E+02 -0.36688170386E+02  0.18477264703E+03  0.18929141130E+03  0.00000000000E+00 0. -1.
         11    1    4    4    0    0  0.75152734127E+02 -0.14805241378E+03  0.35221226854E+03  0.38938532687E+03  0.00000000000E+00 0.  1.
         21    1    1    2  503  502 -0.10010708322E+02 -0.27874879983E+02  0.66673118460E+02  0.72955657357E+02  0.00000000000E+00 0. -1.
         -4    1    1    2    0  503 -0.16755891018E+03  0.12617799811E+03 -0.10240625746E+03  0.23341790238E+03  0.00000000000E+00 0.  1.
<scales pt_clust_5="13000.00000" pt_clust_6="13000.00000" pt_clust_7="13000.00000" pt_clust_8="13000.00000" pt_clust_9="29.61795" pt_clust_10="206.88180"></scales>
<clustering>
<clus scale="   29.618">  1  9  2 -1</clus>
<clus scale="   79.260">  5  6 -1 -1</clus>
<clus scale="   95.821">  7  8 -1 -1</clus>
<clus scale="  167.342">  2  5  1 -1</clus>
<clus scale="  206.882">  1 10  2 -1</clus>
<clus scale="   29.618">  1  5  2 -1</clus>
</clustering>
</event>
<event>
10    4  0.7204077E-005  0.1010126E+03  0.7546771E-02  0.1280352E+00
          2   -1    0    0  503    0 -0.00000000000E+00  0.00000000000E+00  0.79699570206E+03  0.79699570206E+03  0.00000000000E+00 0. -1.
         21   -1    0    0  501  502  0.00000000000E+00 -0.00000000000E+00 -0.40031047956E+02  0.40031047956E+02  0.00000000000E+00 0.  1.
         23    2    1    2    0    0 -0.44712126156E+00 -0.42464920808E+02  0.50593883415E+03  0.51588504778E+03  0.91431992229E+02 0.  0.
         24    2    1    2    0    0 -0.34637159583E+01  0.45346350529E+02  0.69759102833E+02  0.12035081142E+03  0.86888989794E+02 0.  0.
        -13    1    4    4    0    0 -0.31587381021E+01  0.50061396896E+02 -0.27081290006E+00  0.50161682839E+02  0.00000000000E+00 0.  1.
         14    1    4    4    0    0 -0.30497785619E+00 -0.47150463673E+01  0.70029915733E+02  0.70189128583E+02  0.00000000000E+00 0. -1.
        -11    1    3    3    0    0 -0.35289786522E+02  0.10832570912E+02  0.16946641339E+03  0.17344041886E+03  0.00000000000E+00 0.  1.
         11    1    3    3    0    0  0.34842665260E+02 -0.53297491719E+02  0.33647242076E+03  0.34244462892E+03  0.00000000000E+00 0. -1.
         21    1    1    2  503  502 -0.11472056255E+02 -0.28612199506E+02  0.19964764723E+02  0.36726800374E+02  0.00000000000E+00 0.  1.
          1    1    1    2  501    0  0.15382893475E+02  0.25730769784E+02  0.16130195240E+03  0.16406409045E+03  0.00000000000E+00 0. -1.
<scales pt_clust_5="13000.00000" pt_clust_6="13000.00000" pt_clust_7="13000.00000" pt_clust_8="13000.00000" pt_clust_9="24.42750" pt_clust_10="29.97844"></scales>
<clustering>
<clus scale="   29.978">  2 10  1 -1</clus>
<clus scale="   24.428">  2  9  1 -1</clus>
<clus scale="   86.889">  5  6 -1 -1</clus>
<clus scale="   91.432">  7  8 -1 -1</clus>
<clus scale="   96.920">  2  5  1 -1</clus>
<clus scale="   29.978">  2  5  1 -1</clus>
</clustering>
</event>
<event>
10    4  0.7204077E-005  0.1001011E+03  0.7546771E-02  0.1288394E+00
          2   -1    0    0  502    0 -0.00000000000E+00  0.00000000000E+00  0.10676311076E+04  0.10676311076E+04  0.00000000000E+00 0. -1.
         21   -1    0    0  503  502  0.00000000000E+00 -0.00000000000E+00 -0.18173244136E+03  0.18173244136E+03  0.00000000000E+00 0. -1.
         24    2    1    2    0    0 -0.43866805682E+02 -0.52711032597E+01  0.76286573477E+03  0.76826064094E+03  0.79424190033E+02 0.  0.
         23    2    1    2    0    0 -0.14451049649E+02 -0.31461637721E+02  0.23925387514E+03  0.25971300685E+03  0.94919764401E+02 0.  0.
        -11    1    3    3    0    0 -0.40813738623E+02 -0.80557633081E+01  0.15812773510E+03  0.16350852330E+03  0.00000000000E+00 0.  1.
         12    1    3    3    0    0 -0.30530670583E+01  0.27846600484E+01  0.60473799967E+03  0.60475211764E+03  0.00000000000E+00 0. -1.
        -11    1    4    4    0    0  0.34680659037E+02 -0.24823536512E+02  0.16504511762E+03  0.17046655662E+03  0.00000000000E+00 0.  1.
         11    1    4    4    0    0 -0.49131708686E+02 -0.66381012090E+01  0.74208757527E+02  0.89246450236E+02  0.00000000000E+00 0. -1.
         21    1    1    2  503  501 -0.58500831438E+02  0.11471357441E+02 -0.73107833978E+02  0.94332893041E+02  0.00000000000E+00 0. -1.
          1    1    1    2  501    0  0.11681868677E+03  0.25261383540E+02 -0.43113109727E+02  0.12705700810E+03  0.00000000000E+00 0. -1.
<scales pt_clust_5="13000.00000" pt_clust_6="13000.00000" pt_clust_7="13000.00000" pt_clust_8="13000.00000" pt_clust_9="59.61493" pt_clust_10="74.83899"></scales>
<clustering>
<clus scale="   59.615">  2  9  1 -1</clus>
<clus scale="   74.839">  2 10  1 -1</clus>
<clus scale="   79.424">  5  6 -1 -1</clus>
<clus scale="   85.549">  1  5  2 -1</clus>
<clus scale="   94.920">  7  8 -1 -1</clus>
<clus scale="   59.615">  2  5  1 -1</clus>
</clustering>
</event>
<event>
10    4  0.7204077E-005  0.2367827E+03  0.7546771E-02  0.1122619E+00
         21   -1    0    0  501  502  0.00000000000E+00  0.00000000000E+00  0.11491320818E+03  0.11491320818E+03  0.00000000000E+00 0. -1.
          2   -1    0    0  503    0 -0.00000000000E+00 -0.00000000000E+00 -0.23717715773E+04  0.23717715773E+04  0.00000000000E+00 0. -1.
         24    2    1    2    0    0 -0.18389026422E+03  0.15784393430E+03 -0.11840666792E+04  0.12112480973E+04  0.79860601369E+02 0.  0.
         23    2    1    2    0    0  0.22116499315E+03  0.46317214056E+02 -0.39190266689E+03  0.46135434416E+03  0.90558776722E+02 0.  0.
        -11    1    3    3    0    0 -0.14278166022E+03  0.71842939139E+02 -0.73829377008E+03  0.75539771070E+03  0.00000000000E+00 0.  1.
         12    1    3    3    0    0 -0.41108604002E+02  0.86000995161E+02 -0.44577290908E+03  0.45585038660E+03  0.00000000000E+00 0. -1.
        -11    1    4    4    0    0  0.42868523571E+02 -0.13082640748E+02 -0.14048379868E+03  0.14746037940E+03  0.00000000000E+00 0.  1.
         11    1    4    4    0    0  0.17829646958E+03  0.59399854803E+02 -0.25141886821E+03  0.31389396475E+03  0.00000000000E+00 0. -1.
         21    1    1    2  503  502 -0.14386421663E+02 -0.14543330952E+02  0.52440270415E+02  0.56289071450E+02  0.00000000000E+00 0. -1.
          1    1    1    2  501    0 -0.22888307272E+02 -0.18961781740E+03 -0.73332929346E+03  0.75779327255E+03  0.00000000000E+00 0. -1.
<scales pt_clust_5="13000.00000" pt_clust_6="13000.00000" pt_clust_7="13000.00000" pt_clust_8="13000.00000" pt_clust_9="20.45673" pt_clust_10="194.27599"></scales>
<clustering>
<clus scale="   20.457">  1  9  2 -1</clus>
<clus scale="   79.861">  5  6 -1 -1</clus>
<clus scale="   90.559">  7  8 -1 -1</clus>
<clus scale="  194.276">  1 10  2 -1</clus>
<clus scale="  232.901">  2  5  1 -1</clus>
<clus scale="   20.457">  1  5  2 -1</clus>
</clustering>
</event>
<event>
10    4  0.7204077E-005  0.9861224E+02  0.7546771E-02  0.1294018E+00
          2   -1    0    0  502    0 -0.00000000000E+00  0.00000000000E+00  0.71337093759E+03  0.71337093759E+03  0.00000000000E+00 0. -1.
         21   -1    0    0  503  502  0.00000000000E+00 -0.00000000000E+00 -0.10716839494E+03  0.10716839494E+03  0.00000000000E+00 0. -1.
         23    2    1    2    0    0 -0.20938768498E+02  0.95423459179E+00  0.10121485285E+03  0.14284502097E+03  0.98594680319E+02 0.  0.
         24    2    1    2    0    0 -0.43831448072E+02 -0.28119744037E+01  0.10991516976E+02  0.92385631674E+02  0.80530667787E+02 0.  0.
        -11    1    4    4    0    0 -0.93811211412E+01 -0.30726892234E+02  0.30172743392E+02  0.44074275763E+02  0.00000000000E+00 0.  1.
         12    1    4    4    0    0 -0.34450326931E+02  0.27914917830E+02 -0.19181226416E+02  0.48311355911E+02  0.00000000000E+00 0. -1.
        -11    1    3    3    0    0 -0.38790228646E+02  0.24368830348E+02  0.10362909214E+03  0.11330273813E+03  0.00000000000E+00 0.  1.
         11    1    3    3    0    0  0.17851460148E+02 -0.23414595757E+02 -0.24142392832E+01  0.29542282836E+02  0.00000000000E+00 0. -1.
         21    1    1    2  503  501 -0.15698588477E+02  0.26632366139E+02 -0.36693970416E+02  0.47980996980E+02  0.00000000000E+00 0. -1.
          1    1    1    2  501    0  0.80468805047E+02 -0.24774626327E+02  0.53069014323E+03  0.53732768291E+03  0.00000000000E+00 0. -1.
<scales pt_clust_5="13000.00000" pt_clust_6="13000.00000" pt_clust_7="13000.00000" pt_clust_8="13000.00000" pt_clust_9="30.91486" pt_clust_10="83.03394"></scales>
<clustering>
<clus scale="   30.915">  2  9  1 -1</clus>
<clus scale="   80.531">  5  6 -1 -1</clus>
<clus scale="   83.034">  2 10  1 -1</clus>
<clus scale="   80.552">  2  5  1 -1</clus>
<clus scale="   98.595">  7  8 -1 -1</clus>
<clus scale="   30.915">  2  5  1 -1</clus>
</clustering>
</event>
<event>
10    4  0.7204077E-005  0.1580718E+03  0.7546771E-02  0.1196961E+00
         21   -1    0    0  501  502  0.00000000000E+00  0.00000000000E+00  0.40620804565E+03  0.40620804565E+03  0.00000000000E+00 0. -1.
          2   -1    0    0  503    0 -0.00000000000E+00 -0.00000000000E+00 -0.30941901218E+03  0.30941901218E+03  0.00000000000E+00 0. -1.
         23    2    1    2    0    0  0.10042794948E+03 -0.75470960072E+02 -0.24122012798E+03  0.29042307726E+03  0.10186645576E+03 0.  0.
         24    2    1    2    0    0 -0.77010558958E+02  0.25625426115E+02  0.21355746446E+03  0.23817340791E+03  0.67323791887E+02 0.  0.
        -11    1    4    4    0    0 -0.51469456287E+02 -0.11386477815E+01  0.18326317437E+03  0.19035701334E+03  0.00000000000E+00 0.  1.
         12    1    4    4    0    0 -0.25541102671E+02  0.26764073896E+02  0.30294290091E+02  0.47816394566E+02  0.00000000000E+00 0. -1.
        -13    1    3    3    0    0 -0.15515509590E+02 -0.17395000283E+02 -0.81077129396E+02  0.84361235078E+02  0.00000000000E+00 0.  1.
         13    1    3    3    0    0  0.11594345907E+03 -0.58075959789E+02 -0.16014299859E+03  0.20606184218E+03  0.00000000000E+00 0. -1.
         21    1    1    2  503  502  0.48090203846E+02  0.37325849354E+02  0.29894602461E+02  0.67820159188E+02  0.00000000000E+00 0. -1.
          1    1    1    2  501    0 -0.71507594367E+02  0.12519684603E+02  0.94557094536E+02  0.11921041348E+03  0.00000000000E+00 0. -1.
<scales pt_clust_5="13000.00000" pt_clust_6="13000.00000" pt_clust_7="13000.00000" pt_clust_8="13000.00000" pt_clust_9="60.87599" pt_clust_10="61.83893"></scales>
<clustering>
<clus scale="   60.876">  1  9  2 -1</clus>
<clus scale="   61.839">  1 10  2 -1</clus>
<clus scale="   67.324">  5  6 -1 -1</clus>
<clus scale="  101.866">  7  8 -1 -1</clus>
<clus scale="  138.356">  1  5  2 -1</clus>
<clus scale="   60.876">  1  5  2 -1</clus>
</clustering>
</event>
<event>
10    4  0.7204077E-005  0.2951480E+03  0.7546771E-02  0.1088008E+00
          2   -1    0    0  503    0 -0.00000000000E+00  0.00000000000E+00  0.14149550093E+04  0.14149550093E+04  0.00000000000E+00 0. -1.
         21   -1    0    0  501  502  0.00000000000E+00 -0.00000000000E+00 -0.18974720797E+03  0.18974720797E+03  0.00000000000E+00 0.  1.
         23    2    1    2    0    0  0.32219890110E+03 -0.17135911945E+03  0.83948988920E+03  0.91989057661E+03  0.90990764270E+02 0.  0.
         24    2    1    2    0    0 -0.19784098426E+03 -0.73031630574E+01  0.18881317058E+03  0.28578700206E+03  0.82640219723E+02 0.  0.
        -13    1    4    4    0    0 -0.51037606168E+02  0.32970649451E+02  0.69920286723E+02  0.92632324078E+02  0.00000000000E+00 0.  1.
         14    1    4    4    0    0 -0.14680337809E+03 -0.40273812508E+02  0.11889288386E+03  0.19315467798E+03  0.00000000000E+00 0. -1.
        -11    1    3    3    0    0  0.82722395938E+02 -0.51538559660E+02  0.33299948159E+03  0.34696955582E+03  0.00000000000E+00 0. -1.
         11    1    3    3    0    0  0.23947650516E+03 -0.11982055979E+03  0.50649040760E+03  0.57292102079E+03  0.00000000000E+00 0.  1.
         21    1    1    2  503  502 -0.19579245009E+02  0.50364627695E+02 -0.67838909469E+02  0.86729811460E+02  0.00000000000E+00 0.  1.
          1    1    1    2  501    0 -0.10477867183E+03  0.12829765481E+03  0.26474365099E+03  0.31229482712E+03  0.00000000000E+00 0. -1.
<scales pt_clust_5="13000.00000" pt_clust_6="13000.00000" pt_clust_7="13000.00000" pt_clust_8="13000.00000" pt_clust_9="54.03649" pt_clust_10="176.54715"></scales>
<clustering>
<clus scale="   54.036">  2  9  1 -1</clus>
<clus scale="   82.640">  5  6 -1 -1</clus>
<clus scale="   90.991">  7  8 -1 -1</clus>
<clus scale="  176.547">  2 10  1 -1</clus>
<clus scale="  292.681">  2  5  1 -1</clus>
<clus scale="   54.036">  2  5  1 -1</clus>
</clustering>
</event>
<event>
10    4  0.7204077E-005  0.3324969E+03  0.7546771E-02  0.1070037E+00
          2   -1    0    0  503    0 -0.00000000000E+00  0.00000000000E+00  0.37326118518E+03  0.37326118518E+03  0.00000000000E+00 0. -1.
         21   -1    0    0  501  502  0.00000000000E+00 -0.00000000000E+00 -0.29541638933E+03  0.29541638933E+03  0.00000000000E+00 0.  1.
         24    2    1    2    0    0  0.16777510801E+03 -0.17965508513E+03  0.18274235309E+02  0.25929814432E+03  0.80480702598E+02 0.  0.
         23    2    1    2    0    0  0.16157675743E+01 -0.42622222439E+02  0.30500514387E+02  0.10292045904E+03  0.88561136849E+02 0.  0.
        -13    1    3    3    0    0  0.12925582766E+03 -0.10150566764E+03 -0.17158865070E+02  0.16524193232E+03  0.00000000000E+00 0.  1.
         14    1    3    3    0    0  0.38519280350E+02 -0.78149417488E+02  0.35433100379E+02  0.94056211995E+02  0.00000000000E+00 0. -1.
        -13    1    4    4    0    0 -0.25629683620E+02 -0.57202903718E+02  0.34842806919E+02  0.71715228998E+02  0.00000000000E+00 0.  1.
         13    1    4    4    0    0  0.27245451194E+02  0.14580681279E+02 -0.43422925322E+01  0.31205230039E+02  0.00000000000E+00 0. -1.
         21    1    1    2  503  502 -0.26872302499E+02  0.46538775223E+02 -0.43180949426E+02  0.68938905084E+02  0.00000000000E+00 0. -1.
          1    1    1    2  501    0 -0.14251857309E+03  0.17573853234E+03  0.72250995582E+02  0.23752006607E+03  0.00000000000E+00 0. -1.
<scales pt_clust_5="13000.00000" pt_clust_6="13000.00000" pt_clust_7="13000.00000" pt_clust_8="13000.00000" pt_clust_9="53.73991" pt_clust_10="244.60449"></scales>
<clustering>
<clus scale="   53.740">  2  9  1 -1</clus>
<clus scale="   80.481">  5  6 -1 -1</clus>
<clus scale="   88.561">  7  8 -1 -1</clus>
<clus scale="   94.673">  5  7 -1 -1</clus>
<clus scale="  244.604">  2 10  1 -1</clus>
<clus scale="   53.740">  2  5  1 -1</clus>
</clustering>
</event>
<event>
10    4  0.7204077E-005  0.1469676E+03  0.7546771E-02  0.1221255E+00
          4   -1    0    0  502    0 -0.00000000000E+00  0.00000000000E+00  0.49858765160E+03  0.49858765160E+03  0.00000000000E+00 0. -1.
         21   -1    0    0  503  502  0.00000000000E+00 -0.00000000000E+00 -0.49044828008E+03  0.49044828008E+03  0.00000000000E+00 0. -1.
         24    2    1    2    0    0  0.29153051356E+02 -0.59667110031E+02  0.23755945173E+02  0.10684181601E+03  0.80254372429E+02 0.  0.
         23    2    1    2    0    0  0.91166843180E+02  0.62724321977E+02  0.41051014443E+03  0.43486740097E+03  0.91352853740E+02 0.  0.
        -13    1    3    3    0    0 -0.12385599461E+02 -0.31811617670E+02  0.41533305641E+02  0.53762417824E+02  0.00000000000E+00 0.  1.
         14    1    3    3    0    0  0.41538650817E+02 -0.27855492360E+02 -0.17777360468E+02  0.53079398184E+02  0.00000000000E+00 0. -1.
        -11    1    4    4    0    0  0.46597435924E+02 -0.16843362203E+02  0.10629404139E+03  0.11727507459E+03  0.00000000000E+00 0.  1.
         11    1    4    4    0    0  0.44569407256E+02  0.79567684181E+02  0.30421610303E+03  0.31759232638E+03  0.00000000000E+00 0. -1.
         21    1    1    2  503  501 -0.24746244488E+02  0.10628919096E+02 -0.19490723032E+03  0.19675919030E+03  0.00000000000E+00 0. -1.
          3    1    1    2  501    0 -0.95573650048E+02 -0.13686131042E+02 -0.23121948776E+03  0.25056752440E+03  0.00000000000E+00 0. -1.
<scales pt_clust_5="13000.00000" pt_clust_6="13000.00000" pt_clust_7="13000.00000" pt_clust_8="13000.00000" pt_clust_9="26.93233" pt_clust_10="115.12654"></scales>
<clustering>
<clus scale="   26.932">  2  9  1 -1</clus>
<clus scale="   80.254">  5  6 -1 -1</clus>
<clus scale="   91.353">  7  8 -1 -1</clus>
<clus scale="  102.386">  1  5  2 -1</clus>
<clus scale="  115.127">  2 10  1 -1</clus>
<clus scale="   26.932">  2  5  1 -1</clus>
</clustering>
</event>
<event>
10    4  0.7204077E-005  0.1367613E+03  0.7546771E-02  0.1217834E+00
          2   -1    0    0  503    0 -0.00000000000E+00  0.00000000000E+00  0.12912512386E+04  0.12912512386E+04  0.00000000000E+00 0. -1.
         21   -1    0    0  501  502  0.00000000000E+00 -0.00000000000E+00 -0.68088898464E+02  0.68088898464E+02  0.00000000000E+00 0.  1.
         24    2    1    2    0    0 -0.75195281421E+02 -0.66326730971E+02  0.92824670333E+03  0.93757707684E+03  0.85762854359E+02 0.  0.
         23    2    1    2    0    0  0.12183071232E+03  0.64241652318E+02  0.29112571464E+03  0.33319155571E+03  0.85397416338E+02 0.  0.
        -13    1    3    3    0    0  0.13500652379E+02 -0.18693358313E+02  0.76464694314E+02  0.79865879675E+02  0.00000000000E+00 0.  1.
         14    1    3    3    0    0 -0.88695933800E+02 -0.47633372658E+02  0.85178200902E+03  0.85771119717E+03  0.00000000000E+00 0. -1.
        -11    1    4    4    0    0  0.91220511273E+02  0.71412259559E+02  0.27378779978E+03  0.29728883565E+03  0.00000000000E+00 0.  1.
         11    1    4    4    0    0  0.30610201050E+02 -0.71706072413E+01  0.17337914860E+02  0.35902720067E+02  0.00000000000E+00 0. -1.
         21    1    1    2  503  502 -0.18182326409E+02 -0.23920739711E+02 -0.26095221622E+02  0.39796474385E+02  0.00000000000E+00 0.  1.
          1    1    1    2  501    0 -0.28453104493E+02  0.26005818364E+02  0.29885143785E+02  0.48775030119E+02  0.00000000000E+00 0. -1.
<scales pt_clust_5="13000.00000" pt_clust_6="13000.00000" pt_clust_7="13000.00000" pt_clust_8="13000.00000" pt_clust_9="30.04661" pt_clust_10="38.66258"></scales>
<clustering>
<clus scale="   30.047">  2  9  1 -1</clus>
<clus scale="   38.663">  2 10  1 -1</clus>
<clus scale="   85.397">  7  8 -1 -1</clus>
<clus scale="   85.763">  5  6 -1 -1</clus>
<clus scale="  136.532">  2  7  1 -1</clus>
<clus scale="   30.047">  2  5  1 -1</clus>
</clustering>
</event>
<event>
10    4  0.7204077E-005  0.2479263E+03  0.7546771E-02  0.1141591E+00
         -3   -1    0    0    0  501 -0.00000000000E+00  0.00000000000E+00  0.66334215255E+03  0.66334215255E+03  0.00000000000E+00 0.  1.
         21   -1    0    0  503  502  0.00000000000E+00 -0.00000000000E+00 -0.10878138563E+04  0.10878138563E+04  0.00000000000E+00 0.  1.
         24    2    1    2    0    0  0.61091246935E+02  0.84567220669E+02 -0.11737225779E+02  0.13217821961E+03  0.80309177596E+02 0.  0.
         23    2    1    2    0    0  0.16006228985E+03 -0.56615378907E+01  0.57124238403E+03  0.60151462124E+03  0.99247108826E+02 0.  0.
        -13    1    3    3    0    0  0.57294345070E+02  0.11783371027E+02 -0.94836632629E+00  0.58501189804E+02  0.00000000000E+00 0.  1.
         14    1    3    3    0    0  0.37969018646E+01  0.72783849642E+02 -0.10788859453E+02  0.73677029804E+02  0.00000000000E+00 0. -1.
        -13    1    4    4    0    0  0.76358284553E+02 -0.52269087234E+02  0.28942683746E+03  0.30385940720E+03  0.00000000000E+00 0.  1.
         13    1    4    4    0    0  0.83704005294E+02  0.46607549343E+02  0.28181554657E+03  0.29765521405E+03  0.00000000000E+00 0. -1.
         21    1    1    2  503  501 -0.25939421617E+02 -0.51059755415E+02 -0.30940662674E+03  0.31466237921E+03  0.00000000000E+00 0.  1.
         -4    1    1    2    0  502 -0.19521411516E+03 -0.27845927363E+02 -0.67457023531E+03  0.70280078884E+03  0.00000000000E+00 0.  1.
<scales pt_clust_5="13000.00000" pt_clust_6="13000.00000" pt_clust_7="13000.00000" pt_clust_8="13000.00000" pt_clust_9="57.27087" pt_clust_10="227.19481"></scales>
<clustering>
<clus scale="   57.271">  2  9  1 -1</clus>
<clus scale="   80.309">  5  6 -1 -1</clus>
<clus scale="   99.247">  7  8 -1 -1</clus>
<clus scale="  127.540">  1  5  2 -1</clus>
<clus scale="  227.195">  2 10  1 -1</clus>
<clus scale="   57.271">  2  5  1 -1</clus>
</clustering>
</event>
<event>
10    4  0.7204077E-005  0.1701921E+03  0.7546771E-02  0.1178325E+00
         21   -1    0    0  503  502  0.00000000000E+00  0.00000000000E+00  0.59231139723E+02  0.59231139723E+02  0.00000000000E+00 0. -1.
          2   -1    0    0  502    0 -0.00000000000E+00 -0.00000000000E+00 -0.13929590829E+04  0.13929590829E+04  0.00000000000E+00 0. -1.
         23    2    1    2    0    0 -0.15600609885E+03  0.15844927466E+02 -0.90651351179E+03  0.92425307670E+03  0.88814627807E+02 0.  0.
         24    2    1    2    0    0  0.11197945896E+03 -0.70565387691E+02 -0.33920936281E+03  0.37362828737E+03  0.83762952020E+02 0.  0.
        -11    1    4    4    0    0  0.38330785889E+02 -0.23049006388E+02 -0.22638078871E+03  0.23075694429E+03  0.00000000000E+00 0.  1.
         12    1    4    4    0    0  0.73648673074E+02 -0.47516381303E+02 -0.11282857410E+03  0.14287134307E+03  0.00000000000E+00 0. -1.
        -13    1    3    3    0    0 -0.15316764758E+03 -0.71167470597E+01 -0.83870664820E+03  0.85260765777E+03  0.00000000000E+00 0. -1.
         13    1    3    3    0    0 -0.28384512726E+01  0.22961674526E+02 -0.67806863598E+02  0.71645418930E+02  0.00000000000E+00 0.  1.
         21    1    1    2  503  501 -0.30200646946E+02 -0.12456736931E+01 -0.70483084963E+01  0.31037226545E+02  0.00000000000E+00 0.  1.
          1    1    1    2  501    0  0.74227286838E+02  0.55966133918E+02 -0.80956760066E+02  0.12327163201E+03  0.00000000000E+00 0. -1.
<scales pt_clust_5="13000.00000" pt_clust_6="13000.00000" pt_clust_7="13000.00000" pt_clust_8="13000.00000" pt_clust_9="30.22633" pt_clust_10="82.18637"></scales>
<clustering>
<clus scale="   30.226">  1  9  2 -1</clus>
<clus scale="   82.186">  1 10  2 -1</clus>
<clus scale="   83.763">  5  6 -1 -1</clus>
<clus scale="   88.815">  7  8 -1 -1</clus>
<clus scale="  167.611">  1  5  2 -1</clus>
<clus scale="   30.226">  1  5  2 -1</clus>
</clustering>
</event>
<event>
10    4  0.7204077E-005  0.1129901E+03  0.7546771E-02  0.1257845E+00
         -1   -1    0    0    0  501 -0.00000000000E+00  0.00000000000E+00  0.27812962816E+03  0.27812962816E+03  0.00000000000E+00 0.  1.
         21   -1    0    0  503  502  0.00000000000E+00 -0.00000000000E+00 -0.15706651433E+03  0.15706651433E+03  0.00000000000E+00 0. -1.
         24    2    1    2    0    0  0.37235811713E+02 -0.52304862703E+02  0.16278223521E+03  0.19335728369E+03  0.82259824451E+02 0.  0.
         23    2    1    2    0    0 -0.54187859901E+02  0.67112921848E+02  0.12429017933E+01  0.12453018577E+03  0.89809542499E+02 0.  0.
        -11    1    3    3    0    0 -0.69344797797E+01 -0.40431593712E+02  0.13199483666E+03  0.13822242106E+03  0.00000000000E+00 0.  1.
         12    1    3    3    0    0  0.44170291493E+02 -0.11873268991E+02  0.30787398550E+02  0.55134862624E+02  0.00000000000E+00 0. -1.
        -11    1    4    4    0    0  0.18766121363E+02  0.24679375458E+02  0.21508463018E+02  0.37733974949E+02  0.00000000000E+00 0.  1.
         11    1    4    4    0    0 -0.72953981264E+02  0.42433546389E+02 -0.20265561225E+02  0.86796210823E+02  0.00000000000E+00 0. -1.
         21    1    1    2  503  501  0.32429901281E+02 -0.43778034164E+02 -0.59381583810E+02  0.80587761280E+02  0.00000000000E+00 0. -1.
         -2    1    1    2    0  502 -0.15477853093E+02  0.28969975019E+02  0.16419560639E+02  0.36720911761E+02  0.00000000000E+00 0.  1.
<scales pt_clust_5="13000.00000" pt_clust_6="13000.00000" pt_clust_7="13000.00000" pt_clust_8="13000.00000" pt_clust_9="39.07075" pt_clust_10="32.84546"></scales>
<clustering>
<clus scale="   32.845">  2 10  1 -1</clus>
<clus scale="   39.071">  2  9  1 -1</clus>
<clus scale="   82.260">  5  6 -1 -1</clus>
<clus scale="   89.810">  7  8 -1 -1</clus>
<clus scale="  107.087">  1  5  2 -1</clus>
<clus scale="   32.845">  2  5  1 -1</clus>
</clustering>
</event>
<event>
10    4  0.7204077E-005  0.1076444E+03  0.7546771E-02  0.1267780E+00
         21   -1    0    0  503  502  0.00000000000E+00  0.00000000000E+00  0.37888496617E+03  0.37888496617E+03  0.00000000000E+00 0. -1.
          2   -1    0    0  502    0 -0.00000000000E+00 -0.00000000000E+00 -0.11651494265E+03  0.11651494265E+03  0.00000000000E+00 0. -1.
         24    2    1    2    0    0  0.33290725468E+01 -0.60621527426E+02 -0.53170726504E+02  0.11651990589E+03  0.84045880327E+02 0.  0.
         23    2    1    2    0    0 -0.29729416198E+02  0.30236828459E+02  0.25897729191E+03  0.27770653695E+03  0.90849209974E+02 0.  0.
        -11    1    3    3    0    0 -0.79388144275E+01 -0.42451447463E+02  0.14496410877E+02  0.45555417840E+02  0.00000000000E+00 0.  1.
         12    1    3    3    0    0  0.11267886974E+02 -0.18170079963E+02 -0.67667137381E+02  0.70964488049E+02  0.00000000000E+00 0. -1.
        -13    1    4    4    0    0 -0.56049172242E+02  0.19801162335E+02  0.22850722947E+03  0.23611257836E+03  0.00000000000E+00 0. -1.
         13    1    4    4    0    0  0.26319756043E+02  0.10435666124E+02  0.30470062441E+02  0.41593958585E+02  0.00000000000E+00 0.  1.
         21    1    1    2  503  501  0.10108259996E+02 -0.22984552390E+02  0.30727922054E+02  0.39682134046E+02  0.00000000000E+00 0.  1.
          1    1    1    2  501    0  0.16292083655E+02  0.53369251357E+02  0.25835536063E+02  0.61491331941E+02  0.00000000000E+00 0. -1.
<scales pt_clust_5="13000.00000" pt_clust_6="13000.00000" pt_clust_7="13000.00000" pt_clust_8="13000.00000" pt_clust_9="25.10909" pt_clust_10="53.42326"></scales>
<clustering>
<clus scale="   25.109">  1  9  2 -1</clus>
<clus scale="   53.423">  1 10  2 -1</clus>
<clus scale="   84.046">  5  6 -1 -1</clus>
<clus scale="   90.849">  7  8 -1 -1</clus>
<clus scale="  101.968">  2  5  1 -1</clus>
<clus scale="   25.109">  1  5  2 -1</clus>
</clustering>
</event>
<event>
10    4  0.7204077E-005  0.1417753E+03  0.7546771E-02  0.1231346E+00
         21   -1    0    0  501  502  0.00000000000E+00  0.00000000000E+00  0.54194280805E+02  0.54194280805E+02  0.00000000000E+00 0.  1.
          2   -1    0    0  503    0 -0.00000000000E+00 -0.00000000000E+00 -0.14667294403E+04  0.14667294403E+04  0.00000000000E+00 0. -1.
         24    2    1    2    0    0 -0.38119500438E+02 -0.18982475958E+02 -0.44703525690E+03  0.45628524791E+03  0.80884336178E+02 0.  0.
         23    2    1    2    0    0  0.55650945004E+00  0.13736161232E+03 -0.50856812302E+03  0.53434288945E+03  0.89511259130E+02 0.  0.
        -11    1    3    3    0    0  0.68768339714E+01 -0.38449484384E+02 -0.13943953491E+03  0.14480689759E+03  0.00000000000E+00 0.  1.
         12    1    3    3    0    0 -0.44996334409E+02  0.19467008426E+02 -0.30759572199E+03  0.31147835032E+03  0.00000000000E+00 0. -1.
        -13    1    4    4    0    0 -0.37133697741E+02  0.11190047291E+03 -0.38615124990E+03  0.40374919832E+03  0.00000000000E+00 0.  1.
         13    1    4    4    0    0  0.37690207191E+02  0.25461139413E+02 -0.12241687312E+03  0.13059369113E+03  0.00000000000E+00 0. -1.
         21    1    1    2  503  502  0.46241323054E+01 -0.29302556633E+02  0.25184734192E+02  0.38913921174E+02  0.00000000000E+00 0.  1.
          1    1    1    2  501    0  0.32938858682E+02 -0.89076579728E+02 -0.48211651375E+03  0.49138166256E+03  0.00000000000E+00 0. -1.
<scales pt_clust_5="13000.00000" pt_clust_6="13000.00000" pt_clust_7="13000.00000" pt_clust_8="13000.00000" pt_clust_9="29.66517" pt_clust_10="109.94531"></scales>
<clustering>
<clus scale="   29.665">  1  9  2 -1</clus>
<clus scale="   80.884">  5  6 -1 -1</clus>
<clus scale="   89.511">  7  8 -1 -1</clus>
<clus scale="   92.481">  2  5  1 -1</clus>
<clus scale="  109.945">  1 10  2 -1</clus>
<clus scale="   29.665">  1  5  2 -1</clus>
</clustering>
</event>
<event>
10    4  0.7204077E-005  0.9914412E+02  0.7546771E-02  0.1287695E+00
         21   -1    0    0  503  502  0.00000000000E+00  0.00000000000E+00  0.19314159260E+03  0.19314159260E+03  0.00000000000E+00 0.  1.
         -3   -1    0    0    0  501 -0.00000000000E+00 -0.00000000000E+00 -0.35478706905E+03  0.35478706905E+03  0.00000000000E+00 0.  1.
         24    2    1    2    0    0 -0.35308374099E+02 -0.30518977494E+02 -0.10806520925E+03  0.14244204243E+03  0.80209455373E+02 0.  0.
         23    2    1    2    0    0  0.51047349433E+01  0.22520088189E+02 -0.46935607451E+01  0.94123515557E+02  0.91126252954E+02 0.  0.
        -11    1    3    3    0    0  0.14504053523E+02 -0.27729187849E+02 -0.10758722116E+02  0.33091169954E+02  0.00000000000E+00 0.  1.
         12    1    3    3    0    0 -0.49812427621E+02 -0.27897896452E+01 -0.97306487136E+02  0.10935087247E+03  0.00000000000E+00 0. -1.
        -13    1    4    4    0    0  0.16166895571E+02  0.53358522034E+02 -0.18253264983E+02  0.58665850958E+02  0.00000000000E+00 0.  1.
         13    1    4    4    0    0 -0.11062160628E+02 -0.30838433845E+02  0.13559704238E+02  0.35457664599E+02  0.00000000000E+00 0. -1.
         21    1    1    2  503  501  0.20227425195E+02 -0.18177360739E+02  0.12871969926E+03  0.13156111185E+03  0.00000000000E+00 0.  1.
         -4    1    1    2    0  502  0.99762139604E+01  0.26176250045E+02 -0.17760640571E+03  0.17980199182E+03  0.00000000000E+00 0.  1.
<scales pt_clust_5="13000.00000" pt_clust_6="13000.00000" pt_clust_7="13000.00000" pt_clust_8="13000.00000" pt_clust_9="27.19495" pt_clust_10="27.84594"></scales>
<clustering>
<clus scale="   27.195">  1  9  2 -1</clus>
<clus scale="   27.846">  1 10  2 -1</clus>
<clus scale="   80.209">  5  6 -1 -1</clus>
<clus scale="   89.214">  2  5  1 -1</clus>
<clus scale="   91.126">  7  8 -1 -1</clus>
<clus scale="   27.195">  1  5  2 -1</clus>
</clustering>
</event>
<event>
10    4  0.7204077E-005  0.1054157E+03  0.7546771E-02  0.1274168E+00
         21   -1    0    0  501  502  0.00000000000E+00  0.00000000000E+00  0.53466558946E+03  0.53466558946E+03  0.00000000000E+00 0. -1.
         -1   -1    0    0    0  501 -0.00000000000E+00 -0.00000000000E+00 -0.23383863302E+03  0.23383863302E+03  0.00000000000E+00 0.  1.
         23    2    1    2    0    0 -0.17719140245E+02  0.49908772257E+02  0.72137740984E+01  0.10652354302E+03  0.92143221136E+02 0.  0.
         24    2    1    2    0    0 -0.24711117868E+02 -0.53438914234E+02  0.98431195861E+02  0.14051332390E+03  0.81172267278E+02 0.  0.
        -11    1    4    4    0    0 -0.48653252428E+02 -0.43264895385E+02  0.93657911858E+02  0.11406487013E+03  0.00000000000E+00 0.  1.
         12    1    4    4    0    0  0.23942134559E+02 -0.10174018849E+02  0.47732840034E+01  0.26448453773E+02  0.00000000000E+00 0. -1.
        -11    1    3    3    0    0 -0.20415238430E+02  0.69805351521E+02  0.27711898506E+02  0.77830060901E+02  0.00000000000E+00 0.  1.
         11    1    3    3    0    0  0.26960981846E+01 -0.19896579264E+02 -0.20498124407E+02  0.28693482118E+02  0.00000000000E+00 0. -1.
         21    1    1    2  503  502 -0.26308514374E+02 -0.53656835947E+02  0.34329431770E+03  0.34845685893E+03  0.00000000000E+00 0. -1.
         -2    1    1    2    0  503  0.68738772487E+02  0.57186977923E+02 -0.14811233122E+03  0.17301049663E+03  0.00000000000E+00 0.  1.
<scales pt_clust_5="13000.00000" pt_clust_6="13000.00000" pt_clust_7="13000.00000" pt_clust_8="13000.00000" pt_clust_9="59.75947" pt_clust_10="85.83547"></scales>
<clustering>
<clus scale="   59.759">  1  9  2 -1</clus>
<clus scale="   81.172">  5  6 -1 -1</clus>
<clus scale="   85.835">  1 10  2 -1</clus>
<clus scale="   92.143">  7  8 -1 -1</clus>
<clus scale="   95.974">  1  5  2 -1</clus>
<clus scale="   59.759">  1  5  2 -1</clus>
</clustering>
</event>
<event>
10    4  0.7204077E-005  0.3114863E+03  0.7546771E-02  0.1099693E+00
         21   -1    0    0  501  502  0.00000000000E+00  0.00000000000E+00  0.14553773122E+04  0.14553773122E+04  0.00000000000E+00 0. -1.
          2   -1    0    0  503    0 -0.00000000000E+00 -0.00000000000E+00 -0.10262496122E+04  0.10262496122E+04  0.00000000000E+00 0. -1.
         24    2    1    2    0    0  0.13011765197E+03  0.10103154227E+03 -0.43448142857E+03  0.47153834821E+03  0.80226717331E+02 0.  0.
         23    2    1    2    0    0 -0.12518913376E+03  0.22507216972E+03 -0.39298189518E+03  0.47811643956E+03  0.88491576146E+02 0.  0.
        -11    1    3    3    0    0  0.70671472759E+02  0.23216465891E+02 -0.11148057031E+03  0.13402006905E+03  0.00000000000E+00 0.  1.
         12    1    3    3    0    0  0.59446179215E+02  0.77815076374E+02 -0.32300085825E+03  0.33751827916E+03  0.00000000000E+00 0. -1.
        -13    1    4    4    0    0 -0.85250214418E+02  0.20801135147E+03 -0.35618525266E+03  0.42119384565E+03  0.00000000000E+00 0. -1.
         13    1    4    4    0    0 -0.39938919339E+02  0.17060818248E+02 -0.36796642516E+02  0.56922593913E+02  0.00000000000E+00 0.  1.
         21    1    1    2  503  502  0.24635775229E+03 -0.20859540130E+03  0.12079462701E+04  0.12503353050E+04  0.00000000000E+00 0. -1.
          1    1    1    2  501    0 -0.25128627051E+03 -0.11750831069E+03  0.48644753573E+02  0.28163683153E+03  0.00000000000E+00 0. -1.
<scales pt_clust_5="13000.00000" pt_clust_6="13000.00000" pt_clust_7="13000.00000" pt_clust_8="13000.00000" pt_clust_9="298.65192" pt_clust_10="244.86516"></scales>
<clustering>
<clus scale="   80.227">  5  6 -1 -1</clus>
<clus scale="   88.492">  7  8 -1 -1</clus>
<clus scale="  183.233">  2  5  1 -1</clus>
<clus scale="  244.865">  1 10  2 -1</clus>
<clus scale="  298.652">  1  9  2 -1</clus>
<clus scale="  244.865">  1  5  2 -1</clus>
</clustering>
</event>
<event>
10    4  0.7204077E-005  0.2075359E+03  0.7546771E-02  0.1144371E+00
          2   -1    0    0  503    0 -0.00000000000E+00  0.00000000000E+00  0.65537562841E+03  0.65537562841E+03  0.00000000000E+00 0. -1.
         21   -1    0    0  501  502  0.00000000000E+00 -0.00000000000E+00 -0.19310040719E+03  0.19310040719E+03  0.00000000000E+00 0. -1.
         24    2    1    2    0    0 -0.16167438273E+03  0.10551553208E+03  0.42985132765E+03  0.47799544267E+03  0.80220607013E+02 0.  0.
         23    2    1    2    0    0  0.12394810966E+03 -0.94995292898E+02 -0.55467323647E+02  0.18866982797E+03  0.90180044530E+02 0.  0.
        -13    1    3    3    0    0 -0.68691263420E+02  0.39344062997E+00  0.13768738025E+03  0.15387156705E+03  0.00000000000E+00 0.  1.
         14    1    3    3    0    0 -0.92983119307E+02  0.10512209145E+03  0.29216394740E+03  0.32412387562E+03  0.00000000000E+00 0. -1.
        -11    1    4    4    0    0  0.11665159304E+03 -0.46174180726E+02 -0.60060626616E+02  0.13909323490E+03  0.00000000000E+00 0. -1.
         11    1    4    4    0    0  0.72965166242E+01 -0.48821112173E+02  0.45933029684E+01  0.49576593073E+02  0.00000000000E+00 0.  1.
         21    1    1    2  503  502 -0.22501740107E+02  0.46402721399E+02 -0.11057653637E+02  0.52742891133E+02  0.00000000000E+00 0. -1.
          1    1    1    2  501    0  0.60228013171E+02 -0.56922960583E+02  0.98948870846E+02  0.12906787382E+03  0.00000000000E+00 0. -1.
<scales pt_clust_5="13000.00000" pt_clust_6="13000.00000" pt_clust_7="13000.00000" pt_clust_8="13000.00000" pt_clust_9="51.57074" pt_clust_10="78.38442"></scales>
<clustering>
<clus scale="   51.571">  2  9  1 -1</clus>
<clus scale="   78.384">  2 10  1 -1</clus>
<clus scale="   80.221">  5  6 -1 -1</clus>
<clus scale="   90.180">  7  8 -1 -1</clus>
<clus scale="  203.406">  1  5  2 -1</clus>
<clus scale="   51.571">  2  5  1 -1</clus>
</clustering>
</event>
<event>
10    4  0.7204077E-005  0.1231808E+03  0.7546771E-02  0.1241006E+00
         21   -1    0    0  501  502  0.00000000000E+00  0.00000000000E+00  0.56865096859E+02  0.56865096859E+02  0.00000000000E+00 0.  1.
          2   -1    0    0  503    0 -0.00000000000E+00 -0.00000000000E+00 -0.70152363461E+03  0.70152363461E+03  0.00000000000E+00 0. -1.
         24    2    1    2    0    0  0.40382929807E+02 -0.88715256317E+02 -0.47421630763E+03  0.49037525064E+03  0.78010270419E+02 0.  0.
         23    2    1    2    0    0 -0.31509312009E+02  0.96759275239E+02 -0.69446255030E+02  0.15179468806E+03  0.88677228736E+02 0.  0.
        -13    1    3    3    0    0  0.34088182865E+02 -0.23010741362E+02 -0.73196161164E+02  0.83959373736E+02  0.00000000000E+00 0.  1.
         14    1    3    3    0    0  0.62947469426E+01 -0.65704514954E+02 -0.40102014647E+03  0.40641587690E+03  0.00000000000E+00 0. -1.
        -13    1    4    4    0    0  0.24006059201E+02  0.27086212558E+02  0.38960489435E+01  0.36402376110E+02  0.00000000000E+00 0.  1.
         13    1    4    4    0    0 -0.55515371210E+02  0.69673062681E+02 -0.73342303974E+02  0.11539231195E+03  0.00000000000E+00 0. -1.
         21    1    1    2  503  502 -0.26115092014E+02  0.13457845918E+02 -0.60190935415E+02  0.66978058749E+02  0.00000000000E+00 0.  1.
          1    1    1    2  501    0  0.17241474216E+02 -0.21501864841E+02 -0.40805039677E+02  0.49240734030E+02  0.00000000000E+00 0. -1.
<scales pt_clust_5="13000.00000" pt_clust_6="13000.00000" pt_clust_7="13000.00000" pt_clust_8="13000.00000" pt_clust_9="27.76539" pt_clust_10="27.56082"></scales>
<clustering>
<clus scale="   27.561">  1 10  2 -1</clus>
<clus scale="   27.765">  2  9  1 -1</clus>
<clus scale="   78.010">  5  6 -1 -1</clus>
<clus scale="   88.677">  7  8 -1 -1</clus>
<clus scale="  115.739">  2  5  1 -1</clus>
<clus scale="   27.561">  1  5  2 -1</clus>
</clustering>
</event>
<event>
10    4  0.7204077E-005  0.1411783E+03  0.7546771E-02  0.1233146E+00
         21   -1    0    0  503  502  0.00000000000E+00  0.00000000000E+00  0.13650904250E+03  0.13650904250E+03  0.00000000000E+00 0.  1.
          2   -1    0    0  502    0 -0.00000000000E+00 -0.00000000000E+00 -0.48735528887E+03  0.48735528887E+03  0.00000000000E+00 0. -1.
         23    2    1    2    0    0 -0.14198000453E+02 -0.35822490727E+01 -0.31921000305E+03  0.33172398270E+03  0.89058177174E+02 0.  0.
         24    2    1    2    0    0  0.66064031020E+02  0.99627919633E+02  0.42543163027E+02  0.15026348067E+03  0.80492324716E+02 0.  0.
        -11    1    4    4    0    0  0.69421849382E+02  0.84755871726E+02  0.61733674407E+02  0.12575371772E+03  0.00000000000E+00 0.  1.
         12    1    4    4    0    0 -0.33578183617E+01  0.14872047906E+02 -0.19190511380E+02  0.24509762955E+02  0.00000000000E+00 0. -1.
        -11    1    3    3    0    0  0.52410924769E+01 -0.44268919778E+02 -0.17753825798E+03  0.18304928122E+03  0.00000000000E+00 0. -1.
         11    1    3    3    0    0 -0.19439092930E+02  0.40686670705E+02 -0.14167174507E+03  0.14867470148E+03  0.00000000000E+00 0.  1.
         21    1    1    2  503  501 -0.34751514526E+02 -0.30854510464E+02 -0.75122880853E+01  0.47075503716E+02  0.00000000000E+00 0.  1.
          1    1    1    2  501    0 -0.17114516042E+02 -0.65191160096E+02 -0.66667118262E+02  0.94801364291E+02  0.00000000000E+00 0. -1.
<scales pt_clust_5="13000.00000" pt_clust_6="13000.00000" pt_clust_7="13000.00000" pt_clust_8="13000.00000" pt_clust_9="43.23936" pt_clust_10="127.13744"></scales>
<clustering>
<clus scale="   43.239">  9 10 -1 -1</clus>
<clus scale="   80.492">  5  6 -1 -1</clus>
<clus scale="   89.058">  7  8 -1 -1</clus>
<clus scale="   90.254">  2  7  1 -1</clus>
<clus scale="  127.137">  1  9  2 -1</clus>
<clus scale="  127.137">  1  5  2 -1</clus>
</clustering>
</event>
<event>
10    4  0.7204077E-005  0.1211246E+03  0.7546771E-02  0.1244108E+00
          2   -1    0    0  503    0 -0.00000000000E+00  0.00000000000E+00  0.55971086537E+03  0.55971086537E+03  0.00000000000E+00 0. -1.
         21   -1    0    0  501  502  0.00000000000E+00 -0.00000000000E+00 -0.63025756033E+02  0.63025756033E+02  0.00000000000E+00 0. -1.
         24    2    1    2    0    0 -0.66602772065E+02  0.19852725889E+02  0.26657918251E+03  0.28724015549E+03  0.81316581381E+02 0.  0.
         23    2    1    2    0    0  0.10896020573E+03  0.12978415341E+02  0.19869932895E+03  0.24440596541E+03  0.90620565568E+02 0.  0.
        -11    1    3    3    0    0 -0.70830605741E+02 -0.22091288974E+01  0.24849492728E+03  0.25840198111E+03  0.00000000000E+00 0.  1.
         12    1    3    3    0    0  0.42278336760E+01  0.22061854786E+02  0.18084255229E+02  0.28838174377E+02  0.00000000000E+00 0. -1.
        -11    1    4    4    0    0  0.31342126214E+02 -0.14700055340E+02  0.13741935616E+03  0.14171273743E+03  0.00000000000E+00 0. -1.
         11    1    4    4    0    0  0.77618079517E+02  0.27678470681E+02  0.61279972789E+02  0.10269322798E+03  0.00000000000E+00 0.  1.
         21    1    1    2  503  502 -0.47547186203E+02  0.82570410655E+00  0.46485201942E+01  0.47781015509E+02  0.00000000000E+00 0.  1.
          1    1    1    2  501    0  0.51897525363E+01 -0.33656845336E+02  0.26758077689E+02  0.43309485000E+02  0.00000000000E+00 0. -1.
<scales pt_clust_5="13000.00000" pt_clust_6="13000.00000" pt_clust_7="13000.00000" pt_clust_8="13000.00000" pt_clust_9="47.17062" pt_clust_10="34.05461"></scales>
<clustering>
<clus scale="   34.055">  2 10  1 -1</clus>
<clus scale="   47.171">  2  9  1 -1</clus>
<clus scale="   81.317">  5  6 -1 -1</clus>
<clus scale="   90.621">  7  8 -1 -1</clus>
<clus scale="  114.331">  1  5  2 -1</clus>
<clus scale="   34.055">  2  5  1 -1</clus>
</clustering>
</event>
<event>
10    4  0.7204077E-005  0.1316321E+03  0.7546771E-02  0.1231845E+00
          2   -1    0    0  503    0 -0.00000000000E+00  0.00000000000E+00  0.16576894789E+03  0.16576894789E+03  0.00000000000E+00 0. -1.
         21   -1    0    0  501  502  0.00000000000E+00 -0.00000000000E+00 -0.57309803598E+03  0.57309803598E+03  0.00000000000E+00 0. -1.
         23    2    1    2    0    0 -0.22850901672E+02 -0.66379163151E+02 -0.22476682412E+01  0.11193191118E+03  0.87151269177E+02 0.  0.
         24    2    1    2    0    0 -0.72387516673E+02  0.37775319522E+02 -0.61232573530E+02  0.12990680049E+03  0.80370525796E+02 0.  0.
        -13    1    4    4    0    0 -0.81980687426E+02  0.43666468031E+02 -0.69442476328E+02  0.11597349292E+03  0.00000000000E+00 0.  1.
         14    1    4    4    0    0  0.95931707535E+01 -0.58911485086E+01  0.82099027978E+01  0.13933307569E+02  0.00000000000E+00 0. -1.
        -13    1    3    3    0    0 -0.34732878581E+02 -0.34667694350E+01  0.24394779364E+02  0.42585168839E+02  0.00000000000E+00 0. -1.
         13    1    3    3    0    0  0.11881976909E+02 -0.62912393716E+02 -0.26642447605E+02  0.69346742337E+02  0.00000000000E+00 0.  1.
         21    1    1    2  503  502  0.18180984898E+03  0.32344525090E+02 -0.36391131991E+03  0.40808386178E+03  0.00000000000E+00 0. -1.
          1    1    1    2  501    0 -0.86571430635E+02 -0.37406814607E+01  0.20062473585E+02  0.88944410428E+02  0.00000000000E+00 0. -1.
<scales pt_clust_5="13000.00000" pt_clust_6="13000.00000" pt_clust_7="13000.00000" pt_clust_8="13000.00000" pt_clust_9="104.24773" pt_clust_10="86.65225"></scales>
<clustering>
<clus scale="   80.371">  5  6 -1 -1</clus>
<clus scale="   86.652">  2 10  1 -1</clus>
<clus scale="   87.151">  7  8 -1 -1</clus>
<clus scale="  114.368">  1  7  2 -1</clus>
<clus scale="  104.248">  2  9  1 -1</clus>
<clus scale="   86.652">  2  5  1 -1</clus>
</clustering>
</event>
<event>
10    4  0.7204077E-005  0.9332744E+02  0.7546771E-02  0.1300532E+00
         21   -1    0    0  501  502  0.00000000000E+00  0.00000000000E+00  0.13207657955E+03  0.13207657955E+03  0.00000000000E+00 0.  1.
          2   -1    0    0  503    0 -0.00000000000E+00 -0.00000000000E+00 -0.28891035762E+03  0.28891035762E+03  0.00000000000E+00 0. -1.
         23    2    1    2    0    0 -0.29084421212E+02  0.28220792352E+01 -0.18215761793E+03  0.20522322852E+03  0.89896095936E+02 0.  0.
         24    2    1    2    0    0  0.25543135246E+01  0.19311404814E+02  0.38183751976E+02  0.91123453318E+02  0.80411628240E+02 0.  0.
        -11    1    4    4    0    0  0.37383919270E+02  0.21080052598E+01  0.36423953135E+02  0.52237012435E+02  0.00000000000E+00 0.  1.
         12    1    4    4    0    0 -0.34829605745E+02  0.17203399555E+02  0.17597988411E+01  0.38886440883E+02  0.00000000000E+00 0. -1.
        -11    1    3    3    0    0 -0.37497793846E+02 -0.36862367947E+02 -0.85178249674E+02  0.10010121344E+03  0.00000000000E+00 0. -1.
         11    1    3    3    0    0  0.84133726336E+01  0.39684447182E+02 -0.96979368260E+02  0.10512201508E+03  0.00000000000E+00 0.  1.
         21    1    1    2  503  502 -0.27638809463E+02  0.24124165298E+02  0.24588353103E+02  0.44164083237E+02  0.00000000000E+00 0.  1.
          1    1    1    2  501    0  0.54168917150E+02 -0.46257649347E+02 -0.37448265208E+02  0.80476172098E+02  0.00000000000E+00 0. -1.
<scales pt_clust_5="13000.00000" pt_clust_6="13000.00000" pt_clust_7="13000.00000" pt_clust_8="13000.00000" pt_clust_9="36.68623" pt_clust_10="63.15441"></scales>
<clustering>
<clus scale="   36.686">  1  9  2 -1</clus>
<clus scale="   63.154">  1 10  2 -1</clus>
<clus scale="   80.412">  5  6 -1 -1</clus>
<clus scale="   84.230">  1  5  2 -1</clus>
<clus scale="   89.896">  7  8 -1 -1</clus>
<clus scale="   36.686">  1  5  2 -1</clus>
</clustering>
</event>
<event>
10    4  0.7204077E-005  0.1627362E+03  0.7546771E-02  0.1202653E+00
         21   -1    0    0  501  502  0.00000000000E+00  0.00000000000E+00  0.44777510698E+03  0.44777510698E+03  0.00000000000E+00 0. -1.
          2   -1    0    0  503    0 -0.00000000000E+00 -0.00000000000E+00 -0.19162425742E+03  0.19162425742E+03  0.00000000000E+00 0. -1.
         23    2    1    2    0    0 -0.80899536781E+02  0.17803624777E+02  0.24366903226E+03  0.27319327672E+03  0.91642048499E+02 0.  0.
         24    2    1    2    0    0 -0.71263969458E+02  0.92281364174E+02 -0.57936690418E+02  0.15329343699E+03  0.80918565299E+02 0.  0.
        -11    1    4    4    0    0 -0.32297828569E+02  0.14090671102E+02  0.16135174813E+02  0.38756168653E+02  0.00000000000E+00 0.  1.
         12    1    4    4    0    0 -0.38966140889E+02  0.78190693072E+02 -0.74071865230E+02  0.11453726833E+03  0.00000000000E+00 0. -1.
        -13    1    3    3    0    0 -0.24837323218E+02 -0.24443426955E+02  0.16105832135E+03  0.16478518326E+03  0.00000000000E+00 0. -1.
         13    1    3    3    0    0 -0.56062213562E+02  0.42247051733E+02  0.82610710915E+02  0.10840809346E+03  0.00000000000E+00 0.  1.
         21    1    1    2  503  502  0.25810989805E+02 -0.17712169535E+02  0.44279935968E+02  0.54227676270E+02  0.00000000000E+00 0.  1.
          1    1    1    2  501    0  0.12635251643E+03 -0.92372819416E+02  0.26138571743E+02  0.15868497443E+03  0.00000000000E+00 0. -1.
<scales pt_clust_5="13000.00000" pt_clust_6="13000.00000" pt_clust_7="13000.00000" pt_clust_8="13000.00000" pt_clust_9="31.30380" pt_clust_10="141.19228"></scales>
<clustering>
<clus scale="   31.304">  1  9  2 -1</clus>
<clus scale="   80.919">  5  6 -1 -1</clus>
<clus scale="   91.642">  7  8 -1 -1</clus>
<clus scale="  112.049">  2  7  1 -1</clus>
<clus scale="  141.192">  1 10  2 -1</clus>
<clus scale="   31.304">  1  5  2 -1</clus>
</clustering>
</event>
<event>
10    4  0.7204077E-005  0.1229852E+03  0.7546771E-02  0.1247761E+00
          2   -1    0    0  503    0 -0.00000000000E+00  0.00000000000E+00  0.46599624974E+03  0.46599624974E+03  0.00000000000E+00 0. -1.
         21   -1    0    0  501  502  0.00000000000E+00 -0.00000000000E+00 -0.63218232954E+03  0.63218232954E+03  0.00000000000E+00 0. -1.
         23    2    1    2    0    0 -0.32805823670E+02  0.27711016590E+02  0.29637977224E+03  0.31328807293E+03  0.92001764883E+02 0.  0.
         24    2    1    2    0    0 -0.52981104490E+02  0.35743604431E+02  0.86800889229E+02  0.13402336225E+03  0.79644614180E+02 0.  0.
        -11    1    4    4    0    0 -0.60138347786E+02  0.32846756232E+00  0.74742532606E+02  0.95933179587E+02  0.00000000000E+00 0.  1.
         12    1    4    4    0    0  0.71572432964E+01  0.35415136869E+02  0.12058356623E+02  0.38090182665E+02  0.00000000000E+00 0. -1.
        -13    1    3    3    0    0 -0.34585668794E+02  0.59820263026E+02  0.19126320367E+03  0.20336235008E+03  0.00000000000E+00 0. -1.
         13    1    3    3    0    0  0.17798451246E+01 -0.32109246436E+02  0.10511656857E+03  0.10992572285E+03  0.00000000000E+00 0.  1.
         21    1    1    2  503  502  0.10593852297E+03 -0.26550256800E+02 -0.58539464936E+03  0.59549540912E+03  0.00000000000E+00 0. -1.
          1    1    1    2  501    0 -0.20151594812E+02 -0.36904364221E+02  0.36027908096E+02  0.55371734972E+02  0.00000000000E+00 0. -1.
<scales pt_clust_5="13000.00000" pt_clust_6="13000.00000" pt_clust_7="13000.00000" pt_clust_8="13000.00000" pt_clust_9="93.71286" pt_clust_10="42.04784"></scales>
<clustering>
<clus scale="   42.048">  2 10  1 -1</clus>
<clus scale="   79.645">  5  6 -1 -1</clus>
<clus scale="   92.002">  7  8 -1 -1</clus>
<clus scale="  101.484">  1  7  2 -1</clus>
<clus scale="   93.713">  2  9  1 -1</clus>
<clus scale="   42.048">  2  5  1 -1</clus>
</clustering>
</event>
<event>
10    4  0.7204077E-005  0.2315233E+03  0.7546771E-02  0.1135546E+00
          2   -1    0    0  502    0 -0.00000000000E+00  0.00000000000E+00  0.10852970498E+04  0.10852970498E+04  0.00000000000E+00 0. -1.
         21   -1    0    0  503  502  0.00000000000E+00 -0.00000000000E+00 -0.15522175573E+03  0.15522175573E+03  0.00000000000E+00 0. -1.
         23    2    1    2    0    0 -0.43912388324E+02  0.12181496370E+03  0.26733131708E+02  0.16128060130E+03  0.92355772938E+02 0.  0.
         24    2    1    2    0    0  0.27397681883E+03 -0.11176606180E+02  0.53054489426E+03  0.60248059138E+03  0.79478074877E+02 0.  0.
        -11    1    4    4    0    0  0.93169842585E+02  0.31563739600E+02  0.21206791854E+03  0.23377273429E+03  0.00000000000E+00 0.  1.
         12    1    4    4    0    0  0.18080697625E+03 -0.42740345780E+02  0.31847697572E+03  0.36870785709E+03  0.00000000000E+00 0. -1.
        -13    1    3    3    0    0 -0.55252133121E+02  0.40160318448E+02  0.37857601274E+02  0.78095117431E+02  0.00000000000E+00 0.  1.
         13    1    3    3    0    0  0.11339744798E+02  0.81654645253E+02 -0.11124469566E+02  0.83185483869E+02  0.00000000000E+00 0. -1.
         21    1    1    2  503  501 -0.77147480469E+02  0.19481088151E+02  0.42467631003E+02  0.90192827992E+02  0.00000000000E+00 0.  1.
          1    1    1    2  501    0 -0.15291695004E+03 -0.13011944567E+03  0.33032963713E+03  0.38656478489E+03  0.00000000000E+00 0. -1.
<scales pt_clust_5="13000.00000" pt_clust_6="13000.00000" pt_clust_7="13000.00000" pt_clust_8="13000.00000" pt_clust_9="79.56913" pt_clust_10="217.45407"></scales>
<clustering>
<clus scale="   79.478">  5  6 -1 -1</clus>
<clus scale="   79.569">  2  9  1 -1</clus>
<clus scale="   92.356">  7  8 -1 -1</clus>
<clus scale="  181.268">  1  7  2 -1</clus>
<clus scale="  217.454">  2 10  1 -1</clus>
<clus scale="   79.569">  2  5  1 -1</clus>
</clustering>
</event>
<event>
10    4  0.7204077E-005  0.2455756E+03  0.7546771E-02  0.1116685E+00
         21   -1    0    0  503  502  0.00000000000E+00  0.00000000000E+00  0.24912387251E+03  0.24912387251E+03  0.00000000000E+00 0.  1.
         -1   -1    0    0    0  501 -0.00000000000E+00 -0.00000000000E+00 -0.54969913509E+03  0.54969913509E+03  0.00000000000E+00 0.  1.
         23    2    1    2    0    0  0.25052710650E+03 -0.90798225508E+02 -0.34791032655E+03  0.44752035185E+03  0.90690248390E+02 0.  0.
         24    2    1    2    0    0 -0.10969801799E+03  0.93782735236E+02  0.61528712548E+02  0.17660072690E+03  0.81075136102E+02 0.  0.
        -13    1    4    4    0    0 -0.71293255061E+02  0.89613812568E+02  0.14020193733E+02  0.11536866755E+03  0.00000000000E+00 0.  1.
         14    1    4    4    0    0 -0.38404762929E+02  0.41689226673E+01  0.47508518815E+02  0.61232059347E+02  0.00000000000E+00 0. -1.
        -11    1    3    3    0    0  0.54271578804E+02 -0.12796430012E+02 -0.14203454015E+03  0.15258756005E+03  0.00000000000E+00 0. -1.
         11    1    3    3    0    0  0.19625552769E+03 -0.78001795497E+02 -0.20587578640E+03  0.29493279180E+03  0.00000000000E+00 0.  1.
         21    1    1    2  503  501  0.73150238454E+01  0.20039161759E+02  0.87058696284E+01  0.23040610753E+02  0.00000000000E+00 0.  1.
         -2    1    1    2    0  502 -0.14814411235E+03 -0.23023671487E+02 -0.22899518200E+02  0.15166131810E+03  0.00000000000E+00 0.  1.
<scales pt_clust_5="13000.00000" pt_clust_6="13000.00000" pt_clust_7="13000.00000" pt_clust_8="13000.00000" pt_clust_9="21.33255" pt_clust_10="147.16834"></scales>
<clustering>
<clus scale="   21.333">  1  9  2 -1</clus>
<clus scale="   81.075">  5  6 -1 -1</clus>
<clus scale="   90.690">  7  8 -1 -1</clus>
<clus scale="  147.168">  1 10  2 -1</clus>
<clus scale="  242.190">  1  5  2 -1</clus>
<clus scale="   21.333">  1  5  2 -1</clus>
</clustering>
</event>
<event>
10    4  0.7204077E-005  0.1575278E+03  0.7546771E-02  0.1214399E+00
          2   -1    0    0  502    0 -0.00000000000E+00  0.00000000000E+00  0.42191815521E+03  0.42191815521E+03  0.00000000000E+00 0. -1.
         21   -1    0    0  503  502  0.00000000000E+00 -0.00000000000E+00 -0.14441669008E+03  0.14441669008E+03  0.00000000000E+00 0. -1.
         24    2    1    2    0    0  0.51778436337E+02  0.18523099007E+02 -0.19420639170E+02  0.10151886757E+03  0.83095171821E+02 0.  0.
         23    2    1    2    0    0 -0.72212039390E+02 -0.11851417625E+03  0.48032342501E+02  0.17432453541E+03  0.93924166835E+02 0.  0.
        -11    1    3    3    0    0  0.21802407869E+02 -0.61036483433E+01  0.30695298232E+02  0.38141851627E+02  0.00000000000E+00 0.  1.
         12    1    3    3    0    0  0.29976028468E+02  0.24626747350E+02 -0.50115937402E+02  0.63377015939E+02  0.00000000000E+00 0. -1.
        -11    1    4    4    0    0  0.22499009770E+02 -0.22474070989E+02  0.22435608793E+01  0.31879819211E+02  0.00000000000E+00 0.  1.
         11    1    4    4    0    0 -0.94711049160E+02 -0.96040105261E+02  0.45788781622E+02  0.14244471620E+03  0.00000000000E+00 0. -1.
         21    1    1    2  503  501 -0.21360795686E+02  0.11066015065E+02  0.12711426650E+01  0.24090580844E+02  0.00000000000E+00 0.  1.
          1    1    1    2  501    0  0.41794398738E+02  0.88925062179E+02  0.24761861914E+03  0.26640086147E+03  0.00000000000E+00 0. -1.
<scales pt_clust_5="13000.00000" pt_clust_6="13000.00000" pt_clust_7="13000.00000" pt_clust_8="13000.00000" pt_clust_9="24.05702" pt_clust_10="126.46456"></scales>
<clustering>
<clus scale="   24.057">  2  9  1 -1</clus>
<clus scale="   83.095">  5  6 -1 -1</clus>
<clus scale="   93.924">  7  8 -1 -1</clus>
<clus scale="   96.069">  1  5  2 -1</clus>
<clus scale="  126.465">  2 10  1 -1</clus>
<clus scale="   24.057">  2  5  1 -1</clus>
</clustering>
</event>
<event>
10    4  0.7204077E-005  0.1819818E+03  0.7546771E-02  0.1166779E+00
         21   -1    0    0  503  502  0.00000000000E+00  0.00000000000E+00  0.59266298435E+02  0.59266298435E+02  0.00000000000E+00 0.  1.
         -1   -1    0    0    0  501 -0.00000000000E+00 -0.00000000000E+00 -0.15128997790E+04  0.15128997790E+04  0.00000000000E+00 0.  1.
         24    2    1    2    0    0  0.86940252432E+02 -0.17328739032E+03 -0.84394541576E+03  0.86974353534E+03  0.81380743096E+02 0.  0.
         23    2    1    2    0    0 -0.35362375921E+02  0.10384374947E+03 -0.25585918816E+03  0.29229563153E+03  0.89099888399E+02 0.  0.
        -11    1    3    3    0    0  0.96920952906E+02 -0.16912203605E+03 -0.74019541103E+03  0.76543136903E+03  0.00000000000E+00 0.  1.
         12    1    3    3    0    0 -0.99807004746E+01 -0.41653542699E+01 -0.10375000473E+03  0.10431216631E+03  0.00000000000E+00 0. -1.
        -11    1    4    4    0    0 -0.25027582329E-01  0.20066570282E+02  0.72262656692E+00  0.20079593084E+02  0.00000000000E+00 0.  1.
         11    1    4    4    0    0 -0.35337348338E+02  0.83777179186E+02 -0.25658181473E+03  0.27221603845E+03  0.00000000000E+00 0. -1.
         21    1    1    2  503  501 -0.97374622459E+01 -0.41448724944E+02 -0.64224269538E+01  0.43058826487E+02  0.00000000000E+00 0. -1.
         -2    1    1    2    0  502 -0.41840414265E+02  0.11089236580E+03 -0.34740644966E+03  0.36706808405E+03  0.00000000000E+00 0.  1.
<scales pt_clust_5="13000.00000" pt_clust_6="13000.00000" pt_clust_7="13000.00000" pt_clust_8="13000.00000" pt_clust_9="42.57716" pt_clust_10="110.18561"></scales>
<clustering>
<clus scale="   42.577">  1  9  2 -1</clus>
<clus scale="   81.381">  5  6 -1 -1</clus>
<clus scale="   89.100">  7  8 -1 -1</clus>
<clus scale="  110.186">  1 10  2 -1</clus>
<clus scale="  178.329">  2  5  1 -1</clus>
<clus scale="   42.577">  1  5  2 -1</clus>
</clustering>
</event>
<event>
10    4  0.7204077E-005  0.1479684E+03  0.7546771E-02  0.1204941E+00
         21   -1    0    0  503  502  0.00000000000E+00  0.00000000000E+00  0.80514436711E+02  0.80514436711E+02  0.00000000000E+00 0.  1.
          4   -1    0    0  502    0 -0.00000000000E+00 -0.00000000000E+00 -0.60798620937E+03  0.60798620937E+03  0.00000000000E+00 0. -1.
         24    2    1    2    0    0 -0.85075499173E+02 -0.11719706736E+03 -0.34739392903E+03  0.38476054902E+03  0.79907102283E+02 0.  0.
         23    2    1    2    0    0  0.42282660426E+02  0.54345521852E+02 -0.65542151673E+02  0.13110411933E+03  0.90284313934E+02 0.  0.
        -13    1    3    3    0    0 -0.53816490899E+02 -0.12123622361E+03 -0.26049022152E+03  0.29231762197E+03  0.00000000000E+00 0.  1.
         14    1    3    3    0    0 -0.31259008273E+02  0.40391562507E+01 -0.86903707519E+02  0.92442927052E+02  0.00000000000E+00 0. -1.
        -11    1    4    4    0    0 -0.61054486009E+00  0.33896060963E+02 -0.75312932043E+02  0.82591485317E+02  0.00000000000E+00 0. -1.
         11    1    4    4    0    0  0.42893205286E+02  0.20449460889E+02  0.97707803699E+01  0.48512634018E+02  0.00000000000E+00 0.  1.
         21    1    1    2  503  501  0.71613207988E+01 -0.23973785294E+02 -0.60628785756E+00  0.25027874098E+02  0.00000000000E+00 0. -1.
          3    1    1    2  501    0  0.35631517948E+02  0.86825330800E+02 -0.11392940409E+03  0.14760810363E+03  0.00000000000E+00 0. -1.
<scales pt_clust_5="13000.00000" pt_clust_6="13000.00000" pt_clust_7="13000.00000" pt_clust_8="13000.00000" pt_clust_9="25.02053" pt_clust_10="89.13901"></scales>
<clustering>
<clus scale="   25.021">  1  9  2 -1</clus>
<clus scale="   79.907">  5  6 -1 -1</clus>
<clus scale="   89.139">  1 10  2 -1</clus>
<clus scale="   90.284">  7  8 -1 -1</clus>
<clus scale="  141.875">  2  5  1 -1</clus>
<clus scale="   25.021">  1  5  2 -1</clus>
</clustering>
</event>
<event>
10    4  0.7204077E-005  0.2435535E+03  0.7546771E-02  0.1149066E+00
         21   -1    0    0  501  502  0.00000000000E+00  0.00000000000E+00  0.13482457421E+03  0.13482457421E+03  0.00000000000E+00 0.  1.
          2   -1    0    0  503    0 -0.00000000000E+00 -0.00000000000E+00 -0.11113901561E+04  0.11113901561E+04  0.00000000000E+00 0. -1.
         23    2    1    2    0    0 -0.40138794076E+02  0.51407638413E+02 -0.37018248071E+03  0.38652245484E+03  0.90059263767E+02 0.  0.
         24    2    1    2    0    0  0.15413319098E+03  0.15793061429E+03 -0.15010834300E+03  0.27759405081E+03  0.76333629008E+02 0.  0.
        -13    1    4    4    0    0  0.10859421649E+03  0.82103151151E+02 -0.52604106043E+02  0.14594801560E+03  0.00000000000E+00 0.  1.
         14    1    4    4    0    0  0.45538974485E+02  0.75827463143E+02 -0.97504236954E+02  0.13164603521E+03  0.00000000000E+00 0. -1.
        -13    1    3    3    0    0 -0.17381664854E+02 -0.25388928812E+02 -0.11655263236E+03  0.12054557681E+03  0.00000000000E+00 0.  1.
         13    1    3    3    0    0 -0.22757129222E+02  0.76796567225E+02 -0.25362984835E+03  0.26597687802E+03  0.00000000000E+00 0. -1.
         21    1    1    2  503  502 -0.14767044438E+02  0.24570973048E+02  0.24891366397E+02  0.37965490107E+02  0.00000000000E+00 0.  1.
          1    1    1    2  501    0 -0.99227352464E+02 -0.23390922575E+03 -0.48116612460E+03  0.54413273457E+03  0.00000000000E+00 0. -1.
<scales pt_clust_5="13000.00000" pt_clust_6="13000.00000" pt_clust_7="13000.00000" pt_clust_8="13000.00000" pt_clust_9="28.66702" pt_clust_10="231.28233"></scales>
<clustering>
<clus scale="   28.667">  1  9  2 -1</clus>
<clus scale="   76.334">  5  6 -1 -1</clus>
<clus scale="   90.059">  7  8 -1 -1</clus>
<clus scale="  112.530">  2  7  1 -1</clus>
<clus scale="  231.282">  1 10  2 -1</clus>
<clus scale="   28.667">  1  5  2 -1</clus>
</clustering>
</event>
<event>
10    4  0.7204077E-005  0.2081314E+03  0.7546771E-02  0.1178808E+00
         -1   -1    0    0    0  501 -0.00000000000E+00  0.00000000000E+00  0.23178763321E+03  0.23178763321E+03  0.00000000000E+00 0.  1.
         21   -1    0    0  501  502  0.00000000000E+00 -0.00000000000E+00 -0.33703976591E+03  0.33703976591E+03  0.00000000000E+00 0.  1.
         24    2    1    2    0    0 -0.23718001814E+02 -0.40978723972E+02 -0.13321039445E+03  0.16113006094E+03  0.77305161019E+02 0.  0.
         23    2    1    2    0    0  0.19484258336E+03  0.15919413026E+02  0.35850530817E+02  0.22381712061E+03  0.10291638799E+03 0.  0.
        -13    1    3    3    0    0  0.28158427396E+02 -0.17547966474E+02 -0.57828728925E+02  0.66670758582E+02  0.00000000000E+00 0.  1.
         14    1    3    3    0    0 -0.51876429209E+02 -0.23430757497E+02 -0.75381665524E+02  0.94459302356E+02  0.00000000000E+00 0. -1.
        -11    1    4    4    0    0  0.14727690830E+03  0.17581713232E+02  0.71204171038E+02  0.16452853349E+03  0.00000000000E+00 0.  1.
         11    1    4    4    0    0  0.47565675057E+02 -0.16623002068E+01 -0.35353640220E+02  0.59288587118E+02  0.00000000000E+00 0. -1.
         21    1    1    2  503  502 -0.29916914527E+02 -0.57671501754E+01 -0.23540302632E+02  0.38502306996E+02  0.00000000000E+00 0. -1.
         -2    1    1    2    0  503 -0.14120766702E+03  0.30826461121E+02  0.15648033565E+02  0.14537791058E+03  0.00000000000E+00 0.  1.
<scales pt_clust_5="13000.00000" pt_clust_6="13000.00000" pt_clust_7="13000.00000" pt_clust_8="13000.00000" pt_clust_9="28.44406" pt_clust_10="191.21967"></scales>
<clustering>
<clus scale="   28.444">  9 10 -1 -1</clus>
<clus scale="   77.305">  5  6 -1 -1</clus>
<clus scale="   90.653">  1  5  2 -1</clus>
<clus scale="  102.916">  7  8 -1 -1</clus>
<clus scale="  191.220">  2  9  1 -1</clus>
<clus scale="  191.220">  2  5  1 -1</clus>
</clustering>
</event>
<event>
10    4  0.7204077E-005  0.1513453E+03  0.7546771E-02  0.1207825E+00
          2   -1    0    0  502    0 -0.00000000000E+00  0.00000000000E+00  0.55415406301E+03  0.55415406301E+03  0.00000000000E+00 0. -1.
         21   -1    0    0  503  502  0.00000000000E+00 -0.00000000000E+00 -0.15235137437E+03  0.15235137437E+03  0.00000000000E+00 0. -1.
         24    2    1    2    0    0  0.34315394043E+02  0.71982480109E+02  0.11867594180E+02  0.11475526021E+03  0.81663371487E+02 0.  0.
         23    2    1    2    0    0  0.94593734600E+02 -0.69406294146E+02  0.27018276280E+03  0.30863072939E+03  0.92135734189E+02 0.  0.
        -13    1    3    3    0    0  0.21279384574E+02 -0.14007489785E+02 -0.55069035885E+01  0.26064304423E+02  0.00000000000E+00 0.  1.
         14    1    3    3    0    0  0.13036009469E+02  0.85989969894E+02  0.17374497768E+02  0.88690955784E+02  0.00000000000E+00 0. -1.
        -13    1    4    4    0    0  0.10743636252E+03 -0.40321060594E+02  0.18491287862E+03  0.21762613032E+03  0.00000000000E+00 0. -1.
         13    1    4    4    0    0 -0.12842627922E+02 -0.29085233553E+02  0.85269884184E+02  0.91004599068E+02  0.00000000000E+00 0.  1.
         21    1    1    2  503  501  0.80024632489E+01  0.25680117671E+02 -0.53869750989E+02  0.60211775702E+02  0.00000000000E+00 0. -1.
          1    1    1    2  501    0 -0.13691159189E+03 -0.28256303633E+02  0.17362208265E+03  0.22290767208E+03  0.00000000000E+00 0. -1.
<scales pt_clust_5="13000.00000" pt_clust_6="13000.00000" pt_clust_7="13000.00000" pt_clust_8="13000.00000" pt_clust_9="26.89810" pt_clust_10="120.06829"></scales>
<clustering>
<clus scale="   26.898">  2  9  1 -1</clus>
<clus scale="   81.663">  5  6 -1 -1</clus>
<clus scale="   92.136">  7  8 -1 -1</clus>
<clus scale="  124.622">  1  5  2 -1</clus>
<clus scale="  120.068">  2 10  1 -1</clus>
<clus scale="   26.898">  2  5  1 -1</clus>
</clustering>
</event>
<event>
10    4  0.7204077E-005  0.2276122E+03  0.7546771E-02  0.1160556E+00
          2   -1    0    0  503    0 -0.00000000000E+00  0.00000000000E+00  0.23001492345E+03  0.23001492345E+03  0.00000000000E+00 0. -1.
         21   -1    0    0  501  502  0.00000000000E+00 -0.00000000000E+00 -0.21030112058E+04  0.21030112058E+04  0.00000000000E+00 0. -1.
         24    2    1    2    0    0  0.58166383091E+01 -0.67715479908E+02  0.49562063407E+02  0.11633823138E+03  0.80367695319E+02 0.  0.
         23    2    1    2    0    0 -0.19783499311E+03  0.64335049876E+02 -0.12243663790E+03  0.25090500780E+03  0.68446398729E+02 0.  0.
        -13    1    3    3    0    0  0.29968610137E+02  0.82209436784E+00  0.32239148981E+01  0.30152728897E+02  0.00000000000E+00 0.  1.
         14    1    3    3    0    0 -0.24151971828E+02 -0.68537574276E+02  0.46338148509E+02  0.86185502482E+02  0.00000000000E+00 0. -1.
        -11    1    4    4    0    0 -0.36931372658E+02  0.24204554772E+02 -0.58224934910E+02  0.73074823321E+02  0.00000000000E+00 0.  1.
         11    1    4    4    0    0 -0.16090362045E+03  0.40130495105E+02 -0.64211702986E+02  0.17783018448E+03  0.00000000000E+00 0. -1.
         21    1    1    2  503  502 -0.42451406233E+02 -0.19572438527E+03 -0.15671986964E+04  0.15799436417E+04  0.00000000000E+00 0. -1.
          1    1    1    2  501    0  0.23446976104E+03  0.19910481530E+03 -0.23292301140E+03  0.38583924834E+03  0.00000000000E+00 0. -1.
<scales pt_clust_5="13000.00000" pt_clust_6="13000.00000" pt_clust_7="13000.00000" pt_clust_8="13000.00000" pt_clust_9="203.09115" pt_clust_10="217.07694"></scales>
<clustering>
<clus scale="   68.446">  7  8 -1 -1</clus>
<clus scale="   80.368">  5  6 -1 -1</clus>
<clus scale="  105.253">  1  5  2 -1</clus>
<clus scale="  203.091">  2  9  1 -1</clus>
<clus scale="  217.077">  2 10  1 -1</clus>
<clus scale="  203.091">  2  5  1 -1</clus>
</clustering>
</event>
<event>
10    4  0.7204077E-005  0.3489986E+03  0.7546771E-02  0.1096530E+00
         21   -1    0    0  503  502  0.00000000000E+00  0.00000000000E+00  0.11127749484E+04  0.11127749484E+04  0.00000000000E+00 0.  1.
          2   -1    0    0  502    0 -0.00000000000E+00 -0.00000000000E+00 -0.26094249676E+04  0.26094249676E+04  0.00000000000E+00 0. -1.
         23    2    1    2    0    0 -0.28016170678E+02 -0.10095744930E+03 -0.63549095958E+03  0.65104336689E+03  0.95033643905E+02 0.  0.
         24    2    1    2    0    0 -0.38401617547E+03 -0.18785966526E+03 -0.85779160914E+03  0.96181556899E+03  0.80765507399E+02 0.  0.
        -13    1    4    4    0    0 -0.33958311874E+03 -0.14347421924E+03 -0.68390488473E+03  0.77693464171E+03  0.00000000000E+00 0.  1.
         14    1    4    4    0    0 -0.44433056730E+02 -0.44385446015E+02 -0.17388672440E+03  0.18488092728E+03  0.00000000000E+00 0. -1.
        -13    1    3    3    0    0  0.31533734198E+02 -0.52009552530E+02 -0.35406784044E+03  0.35925395695E+03  0.00000000000E+00 0.  1.
         13    1    3    3    0    0 -0.59549904876E+02 -0.48947896773E+02 -0.28142311914E+03  0.29178940994E+03  0.00000000000E+00 0. -1.
         21    1    1    2  503  501  0.18151900047E+03  0.40070649931E+02  0.10171255831E+04  0.10339725607E+04  0.00000000000E+00 0.  1.
          1    1    1    2  501    0  0.23051334568E+03  0.24874646463E+03 -0.10204930335E+04  0.10753684195E+04  0.00000000000E+00 0. -1.
<scales pt_clust_5="13000.00000" pt_clust_6="13000.00000" pt_clust_7="13000.00000" pt_clust_8="13000.00000" pt_clust_9="185.67921" pt_clust_10="339.52482"></scales>
<clustering>
<clus scale="   80.766">  5  6 -1 -1</clus>
<clus scale="   95.034">  7  8 -1 -1</clus>
<clus scale="  141.452">  2  7  1 -1</clus>
<clus scale="  185.679">  1  9  2 -1</clus>
<clus scale="  339.525">  1 10  2 -1</clus>
<clus scale="  185.679">  1  5  2 -1</clus>
</clustering>
</event>
<event>
10    4  0.7204077E-005  0.2980460E+03  0.7546771E-02  0.1112457E+00
          2   -1    0    0  503    0 -0.00000000000E+00  0.00000000000E+00  0.28095300655E+04  0.28095300655E+04  0.00000000000E+00 0. -1.
         21   -1    0    0  501  502  0.00000000000E+00 -0.00000000000E+00 -0.14444668988E+03  0.14444668988E+03  0.00000000000E+00 0.  1.
         23    2    1    2    0    0 -0.52791782724E+02 -0.10511248485E+03  0.20948968190E+03  0.25808817595E+03  0.94276046508E+02 0.  0.
         24    2    1    2    0    0  0.18815925369E+03  0.10830338407E+03  0.17374656512E+04  0.17527992950E+04  0.79905893941E+02 0.  0.
        -11    1    4    4    0    0  0.59350663292E+01  0.31045928387E+02  0.17305962193E+03  0.17592244719E+03  0.00000000000E+00 0.  1.
         12    1    4    4    0    0  0.18222418736E+03  0.77257455681E+02  0.15644060292E+04  0.15768768478E+04  0.00000000000E+00 0. -1.
        -11    1    3    3    0    0 -0.18237433368E+02  0.15877383819E+02  0.25057669485E+02  0.34822149457E+02  0.00000000000E+00 0. -1.
         11    1    3    3    0    0 -0.34554349356E+02 -0.12098986867E+03  0.18443201242E+03  0.22326602649E+03  0.00000000000E+00 0.  1.
         21    1    1    2  503  502  0.20625698179E+03  0.11768769377E+03  0.37606243503E+03  0.44476430932E+03  0.00000000000E+00 0.  1.
          1    1    1    2  501    0 -0.34162445275E+03 -0.12087859298E+03  0.34206560753E+03  0.49832497511E+03  0.00000000000E+00 0. -1.
<scales pt_clust_5="13000.00000" pt_clust_6="13000.00000" pt_clust_7="13000.00000" pt_clust_8="13000.00000" pt_clust_9="13000.00000" pt_clust_10="298.04601"></scales>
<clustering>
<clus scale="   79.906">  5  6 -1 -1</clus>
<clus scale="   94.276">  7  8 -1 -1</clus>
<clus scale="  150.743">  1  7  2 -1</clus>
<clus scale="  176.021">  1  5  2 -1</clus>
<clus scale="  298.046">  1 10  2 -1</clus>
<clus scale="  298.046">  2  5  1 -1</clus>
</clustering>
</event>
<event>
10    4  0.7204077E-005  0.1585254E+03  0.7546771E-02  0.1214508E+00
         21   -1    0    0  503  502  0.00000000000E+00  0.00000000000E+00  0.19949301957E+03  0.19949301957E+03  0.00000000000E+00 0.  1.
         -1   -1    0    0    0  501 -0.00000000000E+00 -0.00000000000E+00 -0.41055611390E+03  0.41055611390E+03  0.00000000000E+00 0.  1.
         24    2    1    2    0    0  0.15396991131E+02  0.46072133161E+02 -0.78967159592E+01  0.94858478522E+02  0.81092934554E+02 0.  0.
         23    2    1    2    0    0  0.80721083887E+02 -0.13176353182E+03 -0.85627017579E+02  0.20129115899E+03  0.96481204620E+02 0.  0.
        -13    1    3    3    0    0 -0.22241792849E+02  0.42083986752E+02 -0.24491091971E+02  0.53531045908E+02  0.00000000000E+00 0.  1.
         14    1    3    3    0    0  0.37638783980E+02  0.39881464089E+01  0.16594376011E+02  0.41327432614E+02  0.00000000000E+00 0. -1.
        -13    1    4    4    0    0  0.61005815473E+02 -0.19612399927E+02 -0.52097921481E+02  0.82586616198E+02  0.00000000000E+00 0. -1.
         13    1    4    4    0    0  0.19715268414E+02 -0.11215113189E+03 -0.33529096098E+02  0.11870454279E+03  0.00000000000E+00 0.  1.
         21    1    1    2  503  501 -0.55039983167E+02  0.80522084710E+02  0.71145000630E+02  0.12072620672E+03  0.00000000000E+00 0.  1.
         -2    1    1    2    0  502 -0.41078091850E+02  0.51693139483E+01 -0.18868436141E+03  0.19317328925E+03  0.00000000000E+00 0.  1.
<scales pt_clust_5="13000.00000" pt_clust_6="13000.00000" pt_clust_7="13000.00000" pt_clust_8="13000.00000" pt_clust_9="125.78421" pt_clust_10="41.40209"></scales>
<clustering>
<clus scale="   41.402">  1 10  2 -1</clus>
<clus scale="   81.093">  5  6 -1 -1</clus>
<clus scale="   94.049">  2  5  1 -1</clus>
<clus scale="   96.481">  7  8 -1 -1</clus>
<clus scale="  125.784">  1  9  2 -1</clus>
<clus scale="   41.402">  1  5  2 -1</clus>
</clustering>
</event>
<event>
10    4  0.7204077E-005  0.2685463E+03  0.7546771E-02  0.1151147E+00
         21   -1    0    0  501  502  0.00000000000E+00  0.00000000000E+00  0.16178836059E+03  0.16178836059E+03  0.00000000000E+00 0. -1.
          2   -1    0    0  503    0 -0.00000000000E+00 -0.00000000000E+00 -0.11476404229E+04  0.11476404229E+04  0.00000000000E+00 0. -1.
         24    2    1    2    0    0 -0.28530715000E+01 -0.73267139619E+01 -0.16763653817E+03  0.18576590640E+03  0.79656401493E+02 0.  0.
         23    2    1    2    0    0  0.66619971605E+02 -0.23028240219E+03 -0.54689525129E+03  0.60761046455E+03  0.11237373079E+03 0.  0.
        -11    1    3    3    0    0  0.18621592411E+02  0.27004079952E+02 -0.39290198067E+02  0.51183041157E+02  0.00000000000E+00 0.  1.
         12    1    3    3    0    0 -0.21474663911E+02 -0.34330793914E+02 -0.12834634010E+03  0.13458286525E+03  0.00000000000E+00 0. -1.
        -13    1    4    4    0    0 -0.37067327579E+01 -0.62789531479E+02 -0.26417090114E+03  0.27155575881E+03  0.00000000000E+00 0.  1.
         13    1    4    4    0    0  0.70326704362E+02 -0.16749287071E+03 -0.28272435015E+03  0.33605470574E+03  0.00000000000E+00 0. -1.
         21    1    1    2  503  502  0.32656928193E+02  0.91890994337E+01  0.79514897915E+02  0.86449600912E+02  0.00000000000E+00 0. -1.
          1    1    1    2  501    0 -0.96423828297E+02  0.22842001671E+03 -0.35083517072E+03  0.42960281158E+03  0.00000000000E+00 0. -1.
<scales pt_clust_5="13000.00000" pt_clust_6="13000.00000" pt_clust_7="13000.00000" pt_clust_8="13000.00000" pt_clust_9="33.92513" pt_clust_10="243.90421"></scales>
<clustering>
<clus scale="   33.925">  1  9  2 -1</clus>
<clus scale="   79.656">  5  6 -1 -1</clus>
<clus scale="   79.908">  2  5  1 -1</clus>
<clus scale="  112.374">  7  8 -1 -1</clus>
<clus scale="  243.904">  1 10  2 -1</clus>
<clus scale="   33.925">  1  5  2 -1</clus>
</clustering>
</event>
<event>
10    4  0.7204077E-005  0.1414647E+03  0.7546771E-02  0.1213761E+00
         21   -1    0    0  501  502  0.00000000000E+00  0.00000000000E+00  0.47165354601E+03  0.47165354601E+03  0.00000000000E+00 0.  1.
          2   -1    0    0  503    0 -0.00000000000E+00 -0.00000000000E+00 -0.10343090458E+03  0.10343090458E+03  0.00000000000E+00 0. -1.
         23    2    1    2    0    0 -0.75864951977E+02 -0.74117830470E+02  0.94845916916E+02  0.16952749409E+03  0.92167670937E+02 0.  0.
         24    2    1    2    0    0  0.64984112163E+02  0.90419942572E+02  0.28667898144E+03  0.31803268616E+03  0.81001544557E+02 0.  0.
        -11    1    4    4    0    0  0.28794591944E+02  0.67825688724E+02  0.25348354953E+03  0.26397606418E+03  0.00000000000E+00 0.  1.
         12    1    4    4    0    0  0.36189520220E+02  0.22594253848E+02  0.33195431903E+02  0.54056621980E+02  0.00000000000E+00 0. -1.
        -13    1    3    3    0    0 -0.84517087292E+02 -0.33440187588E+02  0.36658829092E+02  0.98006397447E+02  0.00000000000E+00 0. -1.
         13    1    3    3    0    0  0.86521353149E+01 -0.40677642882E+02  0.58187087824E+02  0.71521096646E+02  0.00000000000E+00 0.  1.
         21    1    1    2  503  502 -0.17753857381E+02  0.11364016517E+02  0.24707643508E+02  0.32477807362E+02  0.00000000000E+00 0. -1.
          1    1    1    2  501    0  0.28634697195E+02 -0.27666128619E+02 -0.38009900428E+02  0.55046462981E+02  0.00000000000E+00 0. -1.
<scales pt_clust_5="13000.00000" pt_clust_6="13000.00000" pt_clust_7="13000.00000" pt_clust_8="13000.00000" pt_clust_9="21.07938" pt_clust_10="39.41940"></scales>
<clustering>
<clus scale="   21.079">  1  9  2 -1</clus>
<clus scale="   39.419">  1 10  2 -1</clus>
<clus scale="   81.002">  5  6 -1 -1</clus>
<clus scale="   92.168">  7  8 -1 -1</clus>
<clus scale="  134.457">  1  5  2 -1</clus>
<clus scale="   21.079">  1  5  2 -1</clus>
</clustering>
</event>
<event>
10    4  0.7204077E-005  0.1685760E+03  0.7546771E-02  0.1202114E+00
         21   -1    0    0  503  502  0.00000000000E+00  0.00000000000E+00  0.97573006546E+03  0.97573006546E+03  0.00000000000E+00 0.  1.
         -1   -1    0    0    0  501 -0.00000000000E+00 -0.00000000000E+00 -0.10342292637E+03  0.10342292637E+03  0.00000000000E+00 0.  1.
         24    2    1    2    0    0 -0.42558732233E+02  0.40623566288E+02 -0.28564653653E+02  0.10541859120E+03  0.82677809020E+02 0.  0.
         23    2    1    2    0    0  0.28088347515E+02 -0.16827748988E+03  0.70484928589E+03  0.73083254075E+03  0.90539593154E+02 0.  0.
        -11    1    3    3    0    0 -0.25131505102E+02  0.51787509931E+02  0.12975978763E+02  0.59007751681E+02  0.00000000000E+00 0.  1.
         12    1    3    3    0    0 -0.17427227131E+02 -0.11163943642E+02 -0.41540632416E+02  0.46410839516E+02  0.00000000000E+00 0. -1.
        -11    1    4    4    0    0  0.47641016009E+02 -0.11088240898E+03  0.57493982785E+03  0.58746947213E+03  0.00000000000E+00 0.  1.
         11    1    4    4    0    0 -0.19552668494E+02 -0.57395080907E+02  0.12990945804E+03  0.14336306862E+03  0.00000000000E+00 0. -1.
         21    1    1    2  503  501 -0.15097790517E+02  0.14316234923E+02  0.59420827099E+02  0.62958180993E+02  0.00000000000E+00 0. -1.
         -2    1    1    2    0  502  0.29568175235E+02  0.11333768867E+03  0.13660167975E+03  0.17994367889E+03  0.00000000000E+00 0.  1.
<scales pt_clust_5="13000.00000" pt_clust_6="13000.00000" pt_clust_7="13000.00000" pt_clust_8="13000.00000" pt_clust_9="20.80620" pt_clust_10="142.19867"></scales>
<clustering>
<clus scale="   20.806">  1  9  2 -1</clus>
<clus scale="   82.678">  5  6 -1 -1</clus>
<clus scale="   90.540">  7  8 -1 -1</clus>
<clus scale="  101.984">  2  5  1 -1</clus>
<clus scale="  142.199">  1 10  2 -1</clus>
<clus scale="   20.806">  1  5  2 -1</clus>
</clustering>
</event>
<event>
10    4  0.7204077E-005  0.1057310E+03  0.7546771E-02  0.1271274E+00
         -3   -1    0    0    0  501 -0.00000000000E+00  0.00000000000E+00  0.96247097815E+02  0.96247097815E+02  0.00000000000E+00 0.  1.
         21   -1    0    0  501  502  0.00000000000E+00 -0.00000000000E+00 -0.63191608222E+03  0.63191608222E+03  0.00000000000E+00 0. -1.
         23    2    1    2    0    0 -0.11247595694E+02  0.61741025018E+02  0.46086227843E+02  0.11795071277E+03  0.88600043273E+02 0.  0.
         24    2    1    2    0    0 -0.51912817669E+02 -0.26247705317E+02 -0.26049351656E+03  0.27933113099E+03  0.82371875649E+02 0.  0.
        -13    1    4    4    0    0  0.19489660458E+02  0.86178996970E+01 -0.50902357939E+02  0.55183014631E+02  0.00000000000E+00 0.  1.
         14    1    4    4    0    0 -0.71402478127E+02 -0.34865605014E+02 -0.20959115862E+03  0.22414811636E+03  0.00000000000E+00 0. -1.
        -13    1    3    3    0    0  0.37042149957E+02  0.26997937616E+02  0.34436723598E+02  0.57331469902E+02  0.00000000000E+00 0.  1.
         13    1    3    3    0    0 -0.48289745651E+02  0.34743087402E+02  0.11649504245E+02  0.60619242872E+02  0.00000000000E+00 0. -1.
         21    1    1    2  503  502  0.31223522148E+02 -0.29234995319E+02 -0.12959861035E+03  0.13647488081E+03  0.00000000000E+00 0.  1.
         -4    1    1    2    0  503  0.31936891214E+02 -0.62583243809E+01 -0.19166308534E+03  0.19440645546E+03  0.00000000000E+00 0.  1.
<scales pt_clust_5="13000.00000" pt_clust_6="13000.00000" pt_clust_7="13000.00000" pt_clust_8="13000.00000" pt_clust_9="27.91752" pt_clust_10="79.20468"></scales>
<clustering>
<clus scale="   27.918">  9 10 -1 -1</clus>
<clus scale="   79.205">  2  9  1 -1</clus>
<clus scale="   82.372">  5  6 -1 -1</clus>
<clus scale="   88.600">  7  8 -1 -1</clus>
<clus scale="  100.569">  2  5  1 -1</clus>
<clus scale="   79.205">  2  5  1 -1</clus>
</clustering>
</event>
<event>
10    4  0.7204077E-005  0.1478605E+03  0.7546771E-02  0.1204840E+00
         21   -1    0    0  501  502  0.00000000000E+00  0.00000000000E+00  0.55958515887E+02  0.55958515887E+02  0.00000000000E+00 0. -1.
          2   -1    0    0  503    0 -0.00000000000E+00 -0.00000000000E+00 -0.19749660550E+04  0.19749660550E+04  0.00000000000E+00 0. -1.
         23    2    1    2    0    0 -0.82711334694E+02  0.17136511576E+02 -0.54120389360E+03  0.55518907670E+03  0.90545190463E+02 0.  0.
         24    2    1    2    0    0  0.75187645639E+02 -0.15925545736E+03 -0.12618422124E+04  0.12766761568E+04  0.81490842876E+02 0.  0.
        -13    1    4    4    0    0  0.34730219002E+02 -0.59452771528E+01 -0.20507895273E+03  0.20808390444E+03  0.00000000000E+00 0.  1.
         14    1    4    4    0    0  0.40457426637E+02 -0.15331018021E+03 -0.10567632597E+04  0.10685922523E+04  0.00000000000E+00 0. -1.
        -11    1    3    3    0    0 -0.66369784189E+02  0.52654700538E+02 -0.37364467204E+03  0.38312896874E+03  0.00000000000E+00 0.  1.
         11    1    3    3    0    0 -0.16341550506E+02 -0.35518188961E+02 -0.16755922156E+03  0.17206010796E+03  0.00000000000E+00 0. -1.
         21    1    1    2  503  502 -0.15579835255E+02  0.81545379448E+02 -0.23771574860E+02  0.86356632329E+02  0.00000000000E+00 0. -1.
          1    1    1    2  501    0  0.23103524310E+02  0.60573566340E+02 -0.92189858250E+02  0.11270270511E+03  0.00000000000E+00 0. -1.
<scales pt_clust_5="13000.00000" pt_clust_6="13000.00000" pt_clust_7="13000.00000" pt_clust_8="13000.00000" pt_clust_9="123.02074" pt_clust_10="64.83001"></scales>
<clustering>
<clus scale="   64.830">  1 10  2 -1</clus>
<clus scale="   81.491">  5  6 -1 -1</clus>
<clus scale="   90.545">  7  8 -1 -1</clus>
<clus scale="  123.021">  1  9  2 -1</clus>
<clus scale="  142.496">  1  5  2 -1</clus>
<clus scale="   64.830">  1  5  2 -1</clus>
</clustering>
</event>
<event>
10    4  0.7204077E-005  0.1037049E+03  0.7546771E-02  0.1279067E+00
         21   -1    0    0  501  502  0.00000000000E+00  0.00000000000E+00  0.29972150814E+03  0.29972150814E+03  0.00000000000E+00 0.  1.
          2   -1    0    0  503    0 -0.00000000000E+00 -0.00000000000E+00 -0.17511114945E+03  0.17511114945E+03  0.00000000000E+00 0. -1.
         23    2    1    2    0    0 -0.21667096340E+02  0.46450440317E+02  0.53288773726E+01  0.10650731207E+03  0.93211072955E+02 0.  0.
         24    2    1    2    0    0  0.37218240634E+01 -0.35440667024E+02  0.91055468357E+02  0.12616930823E+03  0.79735206585E+02 0.  0.
        -13    1    4    4    0    0  0.26923152122E+02 -0.51200614069E+02  0.71532042248E+02  0.91995608968E+02  0.00000000000E+00 0.  1.
         14    1    4    4    0    0 -0.23201328058E+02  0.15759947045E+02  0.19523426108E+02  0.34173699266E+02  0.00000000000E+00 0. -1.
        -11    1    3    3    0    0 -0.14594125898E+01  0.59428546394E+02  0.34491832118E+02  0.68728221965E+02  0.00000000000E+00 0.  1.
         11    1    3    3    0    0 -0.20207683751E+02 -0.12978106077E+02 -0.29162954745E+02  0.37779090108E+02  0.00000000000E+00 0. -1.
         21    1    1    2  503  502  0.55693911892E+02 -0.29711080712E+02  0.12310490377E+03  0.13834513895E+03  0.00000000000E+00 0.  1.
          1    1    1    2  501    0 -0.37748639615E+02  0.18701307419E+02 -0.94878890810E+02  0.10381089834E+03  0.00000000000E+00 0. -1.
<scales pt_clust_5="13000.00000" pt_clust_6="13000.00000" pt_clust_7="13000.00000" pt_clust_8="13000.00000" pt_clust_9="44.48346" pt_clust_10="42.12719"></scales>
<clustering>
<clus scale="   42.127">  1 10  2 -1</clus>
<clus scale="   44.483">  1  9  2 -1</clus>
<clus scale="   79.735">  5  6 -1 -1</clus>
<clus scale="   91.783">  1  5  2 -1</clus>
<clus scale="   93.211">  7  8 -1 -1</clus>
<clus scale="   42.127">  1  5  2 -1</clus>
</clustering>
</event>
<event>
10    4  0.7204077E-005  0.1940466E+03  0.7546771E-02  0.1177020E+00
         -1   -1    0    0    0  501 -0.00000000000E+00  0.00000000000E+00  0.61661518652E+03  0.61661518652E+03  0.00000000000E+00 0.  1.
         21   -1    0    0  501  502  0.00000000000E+00 -0.00000000000E+00 -0.15614015189E+03  0.15614015189E+03  0.00000000000E+00 0.  1.
         24    2    1    2    0    0 -0.93506064298E+01 -0.76489170134E+02  0.19537076582E+03  0.22518380074E+03  0.81240267045E+02 0.  0.
         23    2    1    2    0    0  0.12401755511E+03 -0.84596622248E+02  0.13827256288E+03  0.22351028928E+03  0.91107657726E+02 0.  0.
        -11    1    3    3    0    0  0.21894024049E+02 -0.50727982640E+02  0.16656180073E+03  0.17548649513E+03  0.00000000000E+00 0.  1.
         12    1    3    3    0    0 -0.31244630479E+02 -0.25761187494E+02  0.28808965091E+02  0.49697305605E+02  0.00000000000E+00 0. -1.
        -11    1    4    4    0    0  0.29460895412E+02 -0.37010669926E+02 -0.25095029835E+01  0.47371211216E+02  0.00000000000E+00 0.  1.
         11    1    4    4    0    0  0.94556659696E+02 -0.47585952322E+02  0.14078206586E+03  0.17613907806E+03  0.00000000000E+00 0. -1.
         21    1    1    2  503  502 -0.49130527874E+02 -0.41812621164E+02 -0.17180925838E+02  0.66762925867E+02  0.00000000000E+00 0.  1.
         -2    1    1    2    0  503 -0.65536420804E+02  0.20289841355E+03  0.14401263176E+03  0.25729832253E+03  0.00000000000E+00 0.  1.
<scales pt_clust_5="13000.00000" pt_clust_6="13000.00000" pt_clust_7="13000.00000" pt_clust_8="13000.00000" pt_clust_9="64.51437" pt_clust_10="171.32863"></scales>
<clustering>
<clus scale="   64.514">  2  9  1 -1</clus>
<clus scale="   81.240">  5  6 -1 -1</clus>
<clus scale="   91.108">  7  8 -1 -1</clus>
<clus scale="  116.465">  1  5  2 -1</clus>
<clus scale="  171.329">  2 10  1 -1</clus>
<clus scale="   64.514">  2  5  1 -1</clus>
</clustering>
</event>
<event>
10    4  0.7204077E-005  0.1743427E+03  0.7546771E-02  0.1174845E+00
         21   -1    0    0  503  502  0.00000000000E+00  0.00000000000E+00  0.11412340519E+03  0.11412340519E+03  0.00000000000E+00 0.  1.
         -1   -1    0    0    0  501 -0.00000000000E+00 -0.00000000000E+00 -0.96871288779E+03  0.96871288779E+03  0.00000000000E+00 0.  1.
         23    2    1    2    0    0  0.37708280970E+01 -0.12881669471E+03 -0.41400530400E+03  0.44318981119E+03  0.91699820158E+02 0.  0.
         24    2    1    2    0    0 -0.67111041493E+02  0.23655611400E+03 -0.17182368281E+03  0.31057343743E+03  0.80435036559E+02 0.  0.
        -11    1    4    4    0    0 -0.56048703955E+02  0.20694533278E+03 -0.17764258041E+03  0.27843260289E+03  0.00000000000E+00 0.  1.
         12    1    4    4    0    0 -0.11062337538E+02  0.29610781218E+02  0.58188976045E+01  0.32140834548E+02  0.00000000000E+00 0. -1.
        -13    1    3    3    0    0 -0.21868852323E+02 -0.12006247328E+03 -0.26511753382E+03  0.29185707278E+03  0.00000000000E+00 0.  1.
         13    1    3    3    0    0  0.25639680420E+02 -0.87542214370E+01 -0.14888777018E+03  0.15133273841E+03  0.00000000000E+00 0. -1.
         21    1    1    2  503  501  0.23257688187E+02 -0.20245275792E+02  0.11376060700E+02  0.32866487624E+02  0.00000000000E+00 0.  1.
         -2    1    1    2    0  502  0.40082525209E+02 -0.87494143492E+02 -0.28013655649E+03  0.29620655674E+03  0.00000000000E+00 0.  1.
<scales pt_clust_5="13000.00000" pt_clust_6="13000.00000" pt_clust_7="13000.00000" pt_clust_8="13000.00000" pt_clust_9="30.83490" pt_clust_10="98.69817"></scales>
<clustering>
<clus scale="   30.835">  1  9  2 -1</clus>
<clus scale="   80.435">  5  6 -1 -1</clus>
<clus scale="   91.700">  7  8 -1 -1</clus>
<clus scale="   98.698">  1 10  2 -1</clus>
<clus scale="  168.690">  1  5  2 -1</clus>
<clus scale="   30.835">  1  5  2 -1</clus>
</clustering>
</event>
<event>
10    4  0.7204077E-005  0.1581225E+03  0.7546771E-02  0.1191742E+00
         21   -1    0    0  501  502  0.00000000000E+00  0.00000000000E+00  0.40119488611E+02  0.40119488611E+02  0.00000000000E+00 0. -1.
          2   -1    0    0  503    0 -0.00000000000E+00 -0.00000000000E+00 -0.23697391493E+04  0.23697391493E+04  0.00000000000E+00 0. -1.
         23    2    1    2    0    0 -0.53373593561E+02 -0.10205390970E+03 -0.21849176383E+03  0.26298177944E+03  0.90316247039E+02 0.  0.
         24    2    1    2    0    0 -0.11550076621E+03  0.91682574833E+02 -0.93496415211E+03  0.94985760412E+03  0.79532262955E+02 0.  0.
        -13    1    4    4    0    0 -0.20860187972E+01  0.21812873406E+02 -0.45816593446E+02  0.50786938829E+02  0.00000000000E+00 0.  1.
         14    1    4    4    0    0 -0.11341474741E+03  0.69869701427E+02 -0.88914755866E+03  0.89907066529E+03  0.00000000000E+00 0. -1.
        -13    1    3    3    0    0 -0.74187662091E+02 -0.71415826102E+02 -0.12214478325E+03  0.15976037525E+03  0.00000000000E+00 0. -1.
         13    1    3    3    0    0  0.20814068530E+02 -0.30638083597E+02 -0.96346980589E+02  0.10322140419E+03  0.00000000000E+00 0.  1.
         21    1    1    2  503  502  0.15352631964E+02 -0.35411350757E+02 -0.75860868784E+02  0.85114854657E+02  0.00000000000E+00 0. -1.
          1    1    1    2  501    0  0.15352172781E+03  0.45782685623E+02 -0.11003028759E+04  0.11119043997E+04  0.00000000000E+00 0. -1.
<scales pt_clust_5="13000.00000" pt_clust_6="13000.00000" pt_clust_7="13000.00000" pt_clust_8="13000.00000" pt_clust_9="38.59621" pt_clust_10="134.83809"></scales>
<clustering>
<clus scale="   38.596">  1  9  2 -1</clus>
<clus scale="   79.532">  5  6 -1 -1</clus>
<clus scale="   90.316">  7  8 -1 -1</clus>
<clus scale="  159.715">  2  7  1 -1</clus>
<clus scale="  134.838">  1 10  2 -1</clus>
<clus scale="   38.596">  1  5  2 -1</clus>
</clustering>
</event>
<event>
10    4  0.7204077E-005  0.1403913E+03  0.7546771E-02  0.1226419E+00
         -1   -1    0    0    0  501 -0.00000000000E+00  0.00000000000E+00  0.20917642987E+03  0.20917642987E+03  0.00000000000E+00 0.  1.
         21   -1    0    0  501  502  0.00000000000E+00 -0.00000000000E+00 -0.43166725247E+03  0.43166725247E+03  0.00000000000E+00 0.  1.
         24    2    1    2    0    0  0.30901915788E+02  0.67279673694E+02  0.11344751150E+03  0.15484076826E+03  0.74992284651E+02 0.  0.
         23    2    1    2    0    0 -0.83901748338E+01  0.85472564445E+02 -0.11423608451E+03  0.16993703867E+03  0.91938891670E+02 0.  0.
        -13    1    3    3    0    0  0.46662386786E+02  0.61891804479E+02  0.11436799871E+03  0.13815937511E+03  0.00000000000E+00 0.  1.
         14    1    3    3    0    0 -0.15760470997E+02  0.53878692147E+01 -0.92048720501E+00  0.16681393150E+02  0.00000000000E+00 0. -1.
        -11    1    4    4    0    0 -0.18180464806E+02 -0.13716694528E+02 -0.76885189871E+01  0.24037269678E+02  0.00000000000E+00 0. -1.
         11    1    4    4    0    0  0.97902899727E+01  0.99189258973E+02 -0.10654756552E+03  0.14589976899E+03  0.00000000000E+00 0.  1.
         21    1    1    2  503  502  0.25903747107E+02 -0.10574767776E+02 -0.14451391262E+03  0.14719748900E+03  0.00000000000E+00 0.  1.
         -2    1    1    2    0  503 -0.48415488062E+02 -0.14217747036E+03 -0.77188336974E+02  0.16886838641E+03  0.00000000000E+00 0.  1.
<scales pt_clust_5="13000.00000" pt_clust_6="13000.00000" pt_clust_7="13000.00000" pt_clust_8="13000.00000" pt_clust_9="27.97910" pt_clust_10="106.09882"></scales>
<clustering>
<clus scale="   27.979">  2  9  1 -1</clus>
<clus scale="   74.992">  5  6 -1 -1</clus>
<clus scale="   91.939">  7  8 -1 -1</clus>
<clus scale="  105.462">  1  5  2 -1</clus>
<clus scale="  106.099">  2 10  1 -1</clus>
<clus scale="   27.979">  2  5  1 -1</clus>
</clustering>
</event>
<event>
10    4  0.7204077E-005  0.1758049E+03  0.7546771E-02  0.1173011E+00
         21   -1    0    0  503  502  0.00000000000E+00  0.00000000000E+00  0.86594040152E+03  0.86594040152E+03  0.00000000000E+00 0.  1.
         -1   -1    0    0    0  501 -0.00000000000E+00 -0.00000000000E+00 -0.57351453017E+02  0.57351453017E+02  0.00000000000E+00 0.  1.
         23    2    1    2    0    0  0.61510852660E+02  0.13438837952E+03  0.27085347289E+03  0.32138273360E+03  0.89896808251E+02 0.  0.
         24    2    1    2    0    0 -0.68758594989E+02 -0.13882238436E+03  0.31978675840E+03  0.36449107501E+03  0.81183582886E+02 0.  0.
        -13    1    4    4    0    0 -0.42440287909E+02 -0.35271054102E+02  0.18170520021E+03  0.18989998705E+03  0.00000000000E+00 0.  1.
         14    1    4    4    0    0 -0.26318307080E+02 -0.10355133026E+03  0.13808155819E+03  0.17459108797E+03  0.00000000000E+00 0. -1.
        -13    1    3    3    0    0  0.48821266168E+02  0.26758383595E+02  0.47733973990E+02  0.73335253431E+02  0.00000000000E+00 0. -1.
         13    1    3    3    0    0  0.12689586492E+02  0.10762999592E+03  0.22311949890E+03  0.24804748016E+03  0.00000000000E+00 0.  1.
         21    1    1    2  503  501 -0.38032597850E+02 -0.14340812736E+02  0.13583566624E+03  0.14178669061E+03  0.00000000000E+00 0.  1.
         -2    1    1    2    0  502  0.45280340179E+02  0.18774817579E+02  0.82113050972E+02  0.95631355327E+02  0.00000000000E+00 0.  1.
<scales pt_clust_5="13000.00000" pt_clust_6="13000.00000" pt_clust_7="13000.00000" pt_clust_8="13000.00000" pt_clust_9="40.64649" pt_clust_10="44.05336"></scales>
<clustering>
<clus scale="   40.646">  1  9  2 -1</clus>
<clus scale="   44.053">  1 10  2 -1</clus>
<clus scale="   81.184">  5  6 -1 -1</clus>
<clus scale="   89.897">  7  8 -1 -1</clus>
<clus scale="  171.513">  1  5  2 -1</clus>
<clus scale="   40.646">  1  5  2 -1</clus>
</clustering>
</event>
<event>
10    4  0.7204077E-005  0.1135090E+03  0.7546771E-02  0.1268886E+00
          2   -1    0    0  503    0 -0.00000000000E+00  0.00000000000E+00  0.34753426861E+03  0.34753426861E+03  0.00000000000E+00 0. -1.
         21   -1    0    0  501  502  0.00000000000E+00 -0.00000000000E+00 -0.11070599114E+03  0.11070599114E+03  0.00000000000E+00 0. -1.
         24    2    1    2    0    0 -0.12119730212E+02  0.23940021692E+02  0.11623597153E+03  0.14398669081E+03  0.80630971443E+02 0.  0.
         23    2    1    2    0    0 -0.51920080457E+02  0.40636024382E+02 -0.27386523143E+02  0.11573235049E+03  0.91087727321E+02 0.  0.
        -13    1    3    3    0    0  0.32533380461E+02  0.16032110099E+02  0.72088382892E+02  0.80698106213E+02  0.00000000000E+00 0.  1.
         14    1    3    3    0    0 -0.44653110673E+02  0.79079115923E+01  0.44147588634E+02  0.63288584601E+02  0.00000000000E+00 0. -1.
        -13    1    4    4    0    0  0.22593918306E+02 -0.10615131246E+01  0.70055890797E+01  0.23678898473E+02  0.00000000000E+00 0.  1.
         13    1    4    4    0    0 -0.74513998763E+02  0.41697537506E+02 -0.34392112222E+02  0.92053452020E+02  0.00000000000E+00 0. -1.
         21    1    1    2  503  502  0.34719999834E+02  0.16773135913E+02  0.18363013055E+02  0.42708508816E+02  0.00000000000E+00 0.  1.
          1    1    1    2  501    0  0.29319810835E+02 -0.81349181986E+02  0.12961581603E+03  0.15581270963E+03  0.00000000000E+00 0. -1.
<scales pt_clust_5="13000.00000" pt_clust_6="13000.00000" pt_clust_7="13000.00000" pt_clust_8="13000.00000" pt_clust_9="38.55926" pt_clust_10="67.72971"></scales>
<clustering>
<clus scale="   38.559">  2  9  1 -1</clus>
<clus scale="   80.631">  5  6 -1 -1</clus>
<clus scale="   85.120">  1  5  2 -1</clus>
<clus scale="   67.730">  2 10  1 -1</clus>
<clus scale="   91.088">  7  8 -1 -1</clus>
<clus scale="   38.559">  2  5  1 -1</clus>
</clustering>
</event>
<event>
10    4  0.7204077E-005  0.1010992E+03  0.7546771E-02  0.1287003E+00
         -3   -1    0    0    0  501 -0.00000000000E+00  0.00000000000E+00  0.53869141470E+03  0.53869141470E+03  0.00000000000E+00 0.  1.
         21   -1    0    0  503  502  0.00000000000E+00 -0.00000000000E+00 -0.12084823346E+03  0.12084823346E+03  0.00000000000E+00 0.  1.
         24    2    1    2    0    0 -0.54886615537E+02 -0.80487176903E+01  0.29719631952E+03  0.31054364018E+03  0.70953348742E+02 0.  0.
         23    2    1    2    0    0  0.31643270285E+02  0.51203078142E+00  0.16274528016E+03  0.18835342754E+03  0.89383604334E+02 0.  0.
        -11    1    3    3    0    0 -0.37746395541E+02  0.28625104391E+02  0.12559915451E+03  0.13423611508E+03  0.00000000000E+00 0.  1.
         12    1    3    3    0    0 -0.17140219996E+02 -0.36673822081E+02  0.17159716501E+03  0.17630752510E+03  0.00000000000E+00 0. -1.
        -11    1    4    4    0    0  0.12374749158E+02 -0.32772216571E+02  0.19619871939E+02  0.40150865129E+02  0.00000000000E+00 0.  1.
         11    1    4    4    0    0  0.19268521127E+02  0.33284247353E+02  0.14312540822E+03  0.14820256241E+03  0.00000000000E+00 0. -1.
         21    1    1    2  503  501  0.52391026161E+02  0.18092996665E+02 -0.88746385228E+02  0.10463315460E+03  0.00000000000E+00 0.  1.
         -4    1    1    2    0  502 -0.29147680910E+02 -0.10556309756E+02  0.46647966785E+02  0.56009425843E+02  0.00000000000E+00 0.  1.
<scales pt_clust_5="13000.00000" pt_clust_6="13000.00000" pt_clust_7="13000.00000" pt_clust_8="13000.00000" pt_clust_9="29.63005" pt_clust_10="31.00039"></scales>
<clustering>
<clus scale="   31.000">  2 10  1 -1</clus>
<clus scale="   29.630">  2  9  1 -1</clus>
<clus scale="   70.953">  5  6 -1 -1</clus>
<clus scale="   85.241">  1  5  2 -1</clus>
<clus scale="   89.384">  7  8 -1 -1</clus>
<clus scale="   31.000">  2  5  1 -1</clus>
</clustering>
</event>
<event>
10    4  0.7204077E-005  0.9604717E+02  0.7546771E-02  0.1296794E+00
          2   -1    0    0  503    0 -0.00000000000E+00  0.00000000000E+00  0.36384991204E+03  0.36384991204E+03  0.00000000000E+00 0. -1.
         21   -1    0    0  501  502  0.00000000000E+00 -0.00000000000E+00 -0.86530748341E+02  0.86530748341E+02  0.00000000000E+00 0.  1.
         23    2    1    2    0    0  0.10200660035E+02  0.51843406396E+01  0.12500063066E+03  0.15668367461E+03  0.93774652072E+02 0.  0.
         24    2    1    2    0    0 -0.42768512124E+02  0.27275532505E+02  0.27290803675E+02  0.98702981178E+02  0.80152293950E+02 0.  0.
        -11    1    4    4    0    0 -0.39019349877E+02  0.51274861627E+02  0.32313131195E+01  0.64514048735E+02  0.00000000000E+00 0.  1.
         12    1    4    4    0    0 -0.37491622474E+01 -0.23999329121E+02  0.24059490556E+02  0.34188932444E+02  0.00000000000E+00 0. -1.
        -11    1    3    3    0    0 -0.29090371764E+02 -0.29842681553E+02  0.59753023400E+02  0.72850938066E+02  0.00000000000E+00 0.  1.
         11    1    3    3    0    0  0.39291031799E+02  0.35027022193E+02  0.65247607262E+02  0.83832736547E+02  0.00000000000E+00 0. -1.
         21    1    1    2  503  502  0.75805120232E+02 -0.49789145648E+02  0.42343480381E+02  0.10009168601E+03  0.00000000000E+00 0.  1.
          1    1    1    2  501    0 -0.43237268143E+02  0.17329272503E+02  0.82684248977E+02  0.94902318575E+02  0.00000000000E+00 0. -1.
<scales pt_clust_5="13000.00000" pt_clust_6="13000.00000" pt_clust_7="13000.00000" pt_clust_8="13000.00000" pt_clust_9="74.37723" pt_clust_10="46.58076"></scales>
<clustering>
<clus scale="   46.581">  2 10  1 -1</clus>
<clus scale="   74.377">  2  9  1 -1</clus>
<clus scale="   80.152">  5  6 -1 -1</clus>
<clus scale="   82.800">  2  5  1 -1</clus>
<clus scale="   93.775">  7  8 -1 -1</clus>
<clus scale="   46.581">  2  5  1 -1</clus>
</clustering>
</event>
<event>
10    4  0.7204077E-005  0.1665859E+03  0.7546771E-02  0.1183015E+00
          2   -1    0    0  503    0 -0.00000000000E+00  0.00000000000E+00  0.16065933791E+03  0.16065933791E+03  0.00000000000E+00 0. -1.
         21   -1    0    0  501  502  0.00000000000E+00 -0.00000000000E+00 -0.54944887374E+03  0.54944887374E+03  0.00000000000E+00 0.  1.
         24    2    1    2    0    0  0.21360338440E+02  0.14361082160E+03  0.85749906398E+02  0.18617129239E+03  0.78907360379E+02 0.  0.
         23    2    1    2    0    0 -0.14012622574E+02 -0.94937176481E+02 -0.43404647401E+03  0.45354614193E+03  0.89990778374E+02 0.  0.
        -11    1    3    3    0    0 -0.16687011029E+02  0.12786836044E+02  0.34908407102E+02  0.40749925147E+02  0.00000000000E+00 0.  1.
         12    1    3    3    0    0  0.38047349470E+02  0.13082398556E+03  0.50841499296E+02  0.14542136724E+03  0.00000000000E+00 0. -1.
        -11    1    4    4    0    0  0.11207643336E+02 -0.66289717129E+02 -0.38779690179E+03  0.39358147174E+03  0.00000000000E+00 0.  1.
         11    1    4    4    0    0 -0.25220265910E+02 -0.28647459352E+02 -0.46249572225E+02  0.59964670189E+02  0.00000000000E+00 0. -1.
         21    1    1    2  503  502 -0.20235408277E+01 -0.24071382822E+02 -0.38090705858E+02  0.45104634586E+02  0.00000000000E+00 0. -1.
          1    1    1    2  501    0 -0.53241750384E+01 -0.24602262301E+02 -0.24022623563E+01  0.25286142739E+02  0.00000000000E+00 0. -1.
<scales pt_clust_5="13000.00000" pt_clust_6="13000.00000" pt_clust_7="13000.00000" pt_clust_8="13000.00000" pt_clust_9="24.15629" pt_clust_10="25.82494"></scales>
<clustering>
<clus scale="   24.156">  2  9  1 -1</clus>
<clus scale="   25.825">  2 10  1 -1</clus>
<clus scale="   78.907">  5  6 -1 -1</clus>
<clus scale="   89.991">  7  8 -1 -1</clus>
<clus scale="  160.869">  1  5  2 -1</clus>
<clus scale="   24.156">  2  5  1 -1</clus>
</clustering>
</event>
<event>
10    4  0.7204077E-005  0.1739267E+03  0.7546771E-02  0.1174959E+00
         -1   -1    0    0    0  501 -0.00000000000E+00  0.00000000000E+00  0.25108681000E+03  0.25108681000E+03  0.00000000000E+00 0.  1.
         21   -1    0    0  501  502  0.00000000000E+00 -0.00000000000E+00 -0.25664074691E+03  0.25664074691E+03  0.00000000000E+00 0. -1.
         24    2    1    2    0    0 -0.77714913917E+02  0.12247659376E+03  0.92916250359E+02  0.19016710985E+03  0.80560388686E+02 0.  0.
         23    2    1    2    0    0  0.12072358019E+03 -0.10663135868E+03 -0.60014184902E+01  0.18439870974E+03  0.89568061611E+02 0.  0.
        -13    1    3    3    0    0 -0.73803784547E+02  0.10745615022E+03  0.42033166157E+02  0.13696937574E+03  0.00000000000E+00 0.  1.
         14    1    3    3    0    0 -0.39111293698E+01  0.15020443544E+02  0.50883084202E+02  0.53197734116E+02  0.00000000000E+00 0. -1.
        -11    1    4    4    0    0 -0.89438880544E+01 -0.31879686690E+02 -0.10269872244E+02  0.34666667462E+02  0.00000000000E+00 0. -1.
         11    1    4    4    0    0  0.12966746825E+03 -0.74751671987E+02  0.42684537538E+01  0.14973204227E+03  0.00000000000E+00 0.  1.
         21    1    1    2  503  502  0.23131976912E+02  0.60838251802E+01 -0.37186067993E+02  0.44214306932E+02  0.00000000000E+00 0. -1.
         -2    1    1    2    0  503 -0.66140643187E+02 -0.21929060264E+02 -0.55282700790E+02  0.88947430384E+02  0.00000000000E+00 0.  1.
<scales pt_clust_5="13000.00000" pt_clust_6="13000.00000" pt_clust_7="13000.00000" pt_clust_8="13000.00000" pt_clust_9="23.91864" pt_clust_10="61.71125"></scales>
<clustering>
<clus scale="   23.919">  2  9  1 -1</clus>
<clus scale="   61.711">  2 10  1 -1</clus>
<clus scale="   80.560">  5  6 -1 -1</clus>
<clus scale="   89.568">  7  8 -1 -1</clus>
<clus scale="  169.464">  1  5  2 -1</clus>
<clus scale="   23.919">  2  5  1 -1</clus>
</clustering>
</event>
<event>
10    4  0.7204077E-005  0.2452932E+03  0.7546771E-02  0.1138842E+00
         21   -1    0    0  501  502  0.00000000000E+00  0.00000000000E+00  0.14135218393E+03  0.14135218393E+03  0.00000000000E+00 0. -1.
          2   -1    0    0  503    0 -0.00000000000E+00 -0.00000000000E+00 -0.10105148636E+04  0.10105148636E+04  0.00000000000E+00 0. -1.
         24    2    1    2    0    0 -0.31183985298E+02  0.10319137986E+03 -0.13713780774E+03  0.19167015201E+03  0.79434042100E+02 0.  0.
         23    2    1    2    0    0  0.13114487203E+03 -0.25167556733E+03 -0.31343159869E+03  0.43198357334E+03  0.88492213923E+02 0.  0.
        -13    1    3    3    0    0  0.24710560025E+02  0.49646727652E+02 -0.69212215095E+02  0.88689007558E+02  0.00000000000E+00 0.  1.
         14    1    3    3    0    0 -0.55894545323E+02  0.53544652209E+02 -0.67925592643E+02  0.10298114445E+03  0.00000000000E+00 0. -1.
        -13    1    4    4    0    0  0.55293556946E+02 -0.36432030709E+02 -0.47165428680E+02  0.81297281405E+02  0.00000000000E+00 0.  1.
         13    1    4    4    0    0  0.75851315085E+02 -0.21524353662E+03 -0.26626617002E+03  0.35068629194E+03  0.00000000000E+00 0. -1.
         21    1    1    2  503  502  0.91068994322E+02  0.61019858083E+02 -0.17533885355E+03  0.20678660104E+03  0.00000000000E+00 0.  1.
          1    1    1    2  501    0 -0.19102988105E+03  0.87464329387E+02 -0.24325441972E+03  0.32142672117E+03  0.00000000000E+00 0. -1.
<scales pt_clust_5="13000.00000" pt_clust_6="13000.00000" pt_clust_7="13000.00000" pt_clust_8="13000.00000" pt_clust_9="109.62201" pt_clust_10="228.77476"></scales>
<clustering>
<clus scale="   79.434">  5  6 -1 -1</clus>
<clus scale="   88.492">  7  8 -1 -1</clus>
<clus scale="  109.622">  2  9  1 -1</clus>
<clus scale="  140.718">  2  5  1 -1</clus>
<clus scale="  228.775">  1 10  2 -1</clus>
<clus scale="  228.775">  1  5  2 -1</clus>
</clustering>
</event>
<event>
10    4  0.7204077E-005  0.1057627E+03  0.7546771E-02  0.1273216E+00
          2   -1    0    0  503    0 -0.00000000000E+00  0.00000000000E+00  0.38724118645E+03  0.38724118645E+03  0.00000000000E+00 0. -1.
         21   -1    0    0  501  502  0.00000000000E+00 -0.00000000000E+00 -0.10526576242E+03  0.10526576242E+03  0.00000000000E+00 0.  1.
         24    2    1    2    0    0 -0.25408932874E+02 -0.41524429428E+02  0.27862827230E+03  0.29415356282E+03  0.80763310262E+02 0.  0.
         23    2    1    2    0    0  0.57186320335E+02  0.60708140173E+02  0.32265442560E+02  0.12781766444E+03  0.91326573588E+02 0.  0.
        -13    1    3    3    0    0 -0.35276249592E+02 -0.48962400566E+01  0.44619892607E+02  0.57090470030E+02  0.00000000000E+00 0.  1.
         14    1    3    3    0    0  0.98673167181E+01 -0.36628189372E+02  0.23400837969E+03  0.23706309279E+03  0.00000000000E+00 0. -1.
        -11    1    4    4    0    0  0.24695605903E+01  0.23617252593E+02 -0.29142792781E+02  0.37592229525E+02  0.00000000000E+00 0.  1.
         11    1    4    4    0    0  0.54716759744E+02  0.37090887579E+02  0.61408235341E+02  0.90225434918E+02  0.00000000000E+00 0. -1.
         21    1    1    2  503  502  0.82580474058E+01 -0.18948986687E+02 -0.21487902628E+02  0.29815925322E+02  0.00000000000E+00 0.  1.
          1    1    1    2  501    0 -0.40035434867E+02 -0.23472405742E+00 -0.74303882001E+01  0.40719796281E+02  0.00000000000E+00 0. -1.
<scales pt_clust_5="13000.00000" pt_clust_6="13000.00000" pt_clust_7="13000.00000" pt_clust_8="13000.00000" pt_clust_9="20.67026" pt_clust_10="38.00917"></scales>
<clustering>
<clus scale="   20.670">  2  9  1 -1</clus>
<clus scale="   38.009">  2 10  1 -1</clus>
<clus scale="   80.763">  5  6 -1 -1</clus>
<clus scale="   91.327">  7  8 -1 -1</clus>
<clus scale="   96.788">  1  5  2 -1</clus>
<clus scale="   20.670">  2  5  1 -1</clus>
</clustering>
</event>
<event>
10    4  0.7204077E-005  0.1589983E+03  0.7546771E-02  0.1219057E+00
         -1   -1    0    0    0  501 -0.00000000000E+00  0.00000000000E+00  0.91153488878E+03  0.91153488878E+03  0.00000000000E+00 0.  1.
         21   -1    0    0  503  502  0.00000000000E+00 -0.00000000000E+00 -0.48420066682E+02  0.48420066682E+02  0.00000000000E+00 0. -1.
         24    2    1    2    0    0  0.14924252852E+01 -0.11417360894E+02  0.32946212443E+03  0.34018830183E+03  0.83965503638E+02 0.  0.
         23    2    1    2    0    0  0.11615978655E+02 -0.12546378588E+03  0.23365548694E+03  0.28206616999E+03  0.95343301548E+02 0.  0.
        -11    1    3    3    0    0 -0.28314894568E+02  0.22171268755E+02  0.19874318033E+03  0.20197066654E+03  0.00000000000E+00 0.  1.
         12    1    3    3    0    0  0.29807319854E+02 -0.33588629649E+02  0.13071894410E+03  0.13821763529E+03  0.00000000000E+00 0. -1.
        -13    1    4    4    0    0  0.28776320512E+02 -0.10836087856E+03  0.11367016753E+03  0.15965921085E+03  0.00000000000E+00 0. -1.
         13    1    4    4    0    0 -0.17160341856E+02 -0.17102907317E+02  0.11998531941E+03  0.12240695913E+03  0.00000000000E+00 0.  1.
         21    1    1    2  503  501  0.20720441810E+02  0.10126719885E+02  0.33623999293E+02  0.40773281606E+02  0.00000000000E+00 0. -1.
         -2    1    1    2    0  502 -0.33828845750E+02  0.12675442689E+03  0.26637321143E+03  0.29692720204E+03  0.00000000000E+00 0.  1.
<scales pt_clust_5="13000.00000" pt_clust_6="13000.00000" pt_clust_7="13000.00000" pt_clust_8="13000.00000" pt_clust_9="23.06268" pt_clust_10="127.24041"></scales>
<clustering>
<clus scale="   23.063">  2  9  1 -1</clus>
<clus scale="   83.966">  5  6 -1 -1</clus>
<clus scale="   84.677">  1  5  2 -1</clus>
<clus scale="   95.343">  7  8 -1 -1</clus>
<clus scale="  127.240">  2 10  1 -1</clus>
<clus scale="   23.063">  2  5  1 -1</clus>
</clustering>
</event>
<event>
10    4  0.7204077E-005  0.1589403E+03  0.7546771E-02  0.1204382E+00
         21   -1    0    0  503  502  0.00000000000E+00  0.00000000000E+00  0.26642619449E+03  0.26642619449E+03  0.00000000000E+00 0. -1.
          2   -1    0    0  502    0 -0.00000000000E+00 -0.00000000000E+00 -0.64188483451E+03  0.64188483451E+03  0.00000000000E+00 0. -1.
         23    2    1    2    0    0  0.37052333249E+02  0.60489024600E+02 -0.41656388466E+03  0.43217355759E+03  0.90646105159E+02 0.  0.
         24    2    1    2    0    0 -0.74640379699E+01  0.97250452106E+02 -0.71287964867E+02  0.14269599383E+03  0.75939518188E+02 0.  0.
        -13    1    4    4    0    0 -0.20164703150E+02 -0.19538367797E+01 -0.68220199910E+00  0.20270622360E+02  0.00000000000E+00 0.  1.
         14    1    4    4    0    0  0.12700665180E+02  0.99204288885E+02 -0.70605762868E+02  0.12242537147E+03  0.00000000000E+00 0. -1.
        -13    1    3    3    0    0  0.61551779956E+02  0.65374055933E+02 -0.33872656446E+03  0.35042556168E+03  0.00000000000E+00 0. -1.
         13    1    3    3    0    0 -0.24499446707E+02 -0.48850313326E+01 -0.77837320202E+02  0.81747995916E+02  0.00000000000E+00 0.  1.
         21    1    1    2  503  501 -0.34828406501E+01  0.24254300266E+02  0.14470698764E+03  0.14676686797E+03  0.00000000000E+00 0. -1.
          1    1    1    2  501    0 -0.26105454629E+02 -0.18199377697E+03 -0.32313778136E+02  0.18667460962E+03  0.00000000000E+00 0. -1.
<scales pt_clust_5="13000.00000" pt_clust_6="13000.00000" pt_clust_7="13000.00000" pt_clust_8="13000.00000" pt_clust_9="24.50309" pt_clust_10="139.62523"></scales>
<clustering>
<clus scale="   24.503">  1  9  2 -1</clus>
<clus scale="   75.940">  5  6 -1 -1</clus>
<clus scale="   90.646">  7  8 -1 -1</clus>
<clus scale="  115.862">  2  7  1 -1</clus>
<clus scale="  139.625">  1 10  2 -1</clus>
<clus scale="   24.503">  1  5  2 -1</clus>
</clustering>
</event>
<event>
10    4  0.7204077E-005  0.2447444E+03  0.7546771E-02  0.1163036E+00
          2   -1    0    0  502    0 -0.00000000000E+00  0.00000000000E+00  0.54736869415E+03  0.54736869415E+03  0.00000000000E+00 0. -1.
         21   -1    0    0  503  502  0.00000000000E+00 -0.00000000000E+00 -0.52135998428E+03  0.52135998428E+03  0.00000000000E+00 0. -1.
         24    2    1    2    0    0 -0.13148239173E+02  0.71032984403E+01  0.29388004243E+03  0.30455508100E+03  0.78517418318E+02 0.  0.
         23    2    1    2    0    0 -0.21156584053E+03  0.10545089599E+02  0.15276865792E+03  0.27666595069E+03  0.91293382210E+02 0.  0.
        -11    1    3    3    0    0  0.30683561510E+02  0.80851161564E+01  0.76888733155E+02  0.83178887564E+02  0.00000000000E+00 0.  1.
         12    1    3    3    0    0 -0.43831800684E+02 -0.98181771603E+00  0.21699130928E+03  0.22137619343E+03  0.00000000000E+00 0. -1.
        -13    1    4    4    0    0 -0.40426785957E+02 -0.24853932539E+02  0.48400210058E+01  0.47701874060E+02  0.00000000000E+00 0.  1.
         13    1    4    4    0    0 -0.17113905457E+03  0.35399022138E+02  0.14792863691E+03  0.22896407663E+03  0.00000000000E+00 0. -1.
         21    1    1    2  503  501  0.82665989745E+02  0.41515555050E+02 -0.16241119665E+03  0.18690800938E+03  0.00000000000E+00 0. -1.
          1    1    1    2  501    0  0.14204808996E+03 -0.59163943089E+02 -0.25822879384E+03  0.30059963737E+03  0.00000000000E+00 0. -1.
<scales pt_clust_5="13000.00000" pt_clust_6="13000.00000" pt_clust_7="13000.00000" pt_clust_8="13000.00000" pt_clust_9="77.21554" pt_clust_10="77.21554"></scales>
<clustering>
<clus scale="   77.216">  9 10 -1 -1</clus>
<clus scale="   78.517">  5  6 -1 -1</clus>
<clus scale="   79.927">  1  5  2 -1</clus>
<clus scale="   91.293">  7  8 -1 -1</clus>
<clus scale="  241.488">  1  7  2 -1</clus>
<clus scale="  244.744">  2  5  1 -1</clus>
</clustering>
</event>
<event>
10    4  0.7204077E-005  0.1759403E+03  0.7546771E-02  0.1189621E+00
         21   -1    0    0  503  502  0.00000000000E+00  0.00000000000E+00  0.46886404156E+03  0.46886404156E+03  0.00000000000E+00 0.  1.
          2   -1    0    0  502    0 -0.00000000000E+00 -0.00000000000E+00 -0.28326557893E+03  0.28326557893E+03  0.00000000000E+00 0. -1.
         23    2    1    2    0    0  0.53099420688E+02 -0.41859047559E+02 -0.11081202420E+03  0.16173647465E+03  0.96476184548E+02 0.  0.
         24    2    1    2    0    0  0.15337473360E+03 -0.65499007802E+01  0.25712503525E+03  0.31002441096E+03  0.80219333928E+02 0.  0.
        -11    1    4    4    0    0  0.13985458285E+03 -0.30200169472E+02  0.19213956486E+03  0.23955994441E+03  0.00000000000E+00 0.  1.
         12    1    4    4    0    0  0.13520150749E+02  0.23650268692E+02  0.64985470391E+02  0.70464466558E+02  0.00000000000E+00 0. -1.
        -11    1    3    3    0    0  0.74521820309E+02 -0.57905827235E+01 -0.60029157259E+02  0.95867263816E+02  0.00000000000E+00 0.  1.
         11    1    3    3    0    0 -0.21422399621E+02 -0.36068464836E+02 -0.50782866938E+02  0.65869210831E+02  0.00000000000E+00 0. -1.
         21    1    1    2  503  501 -0.11979108630E+02 -0.18582272055E+02  0.69063259425E+02  0.72515747811E+02  0.00000000000E+00 0. -1.
          1    1    1    2  501    0 -0.19449504565E+03  0.66991220394E+02 -0.29777807851E+02  0.20785298707E+03  0.00000000000E+00 0. -1.
<scales pt_clust_5="13000.00000" pt_clust_6="13000.00000" pt_clust_7="13000.00000" pt_clust_8="13000.00000" pt_clust_9="22.10882" pt_clust_10="156.58826"></scales>
<clustering>
<clus scale="   22.109">  1  9  2 -1</clus>
<clus scale="   80.219">  5  6 -1 -1</clus>
<clus scale="   96.476">  7  8 -1 -1</clus>
<clus scale="  117.896">  2  7  1 -1</clus>
<clus scale="  156.588">  1 10  2 -1</clus>
<clus scale="   22.109">  1  5  2 -1</clus>
</clustering>
</event>
<event>
10    4  0.7204077E-005  0.1074284E+03  0.7546771E-02  0.1269577E+00
          2   -1    0    0  502    0 -0.00000000000E+00  0.00000000000E+00  0.54318175698E+03  0.54318175698E+03  0.00000000000E+00 0. -1.
         21   -1    0    0  503  502  0.00000000000E+00 -0.00000000000E+00 -0.64413981500E+02  0.64413981500E+02  0.00000000000E+00 0. -1.
         24    2    1    2    0    0  0.55097901676E+02 -0.11576787201E+02  0.28661326508E+03  0.30265115117E+03  0.79251213326E+02 0.  0.
         23    2    1    2    0    0 -0.69511367524E+02 -0.58690944035E+02  0.16623555650E+03  0.20956308821E+03  0.89476089375E+02 0.  0.
        -13    1    3    3    0    0  0.29843614291E+01 -0.30600595012E+02  0.17856599603E+03  0.18119359196E+03  0.00000000000E+00 0.  1.
         14    1    3    3    0    0  0.52113540247E+02  0.19023807810E+02  0.10804726905E+03  0.12145755921E+03  0.00000000000E+00 0. -1.
        -11    1    4    4    0    0 -0.28764460706E+02  0.18113855329E+02  0.20018584262E+02  0.39449330418E+02  0.00000000000E+00 0.  1.
         11    1    4    4    0    0 -0.40746906818E+02 -0.76804799364E+02  0.14621697224E+03  0.17011375780E+03  0.00000000000E+00 0. -1.
         21    1    1    2  503  501  0.26231746119E+02  0.10075449323E+02 -0.16092528811E+01  0.28146205399E+02  0.00000000000E+00 0.  1.
          1    1    1    2  501    0 -0.11818280271E+02  0.60192281914E+02  0.27528206786E+02  0.67235293704E+02  0.00000000000E+00 0. -1.
<scales pt_clust_5="13000.00000" pt_clust_6="13000.00000" pt_clust_7="13000.00000" pt_clust_8="13000.00000" pt_clust_9="28.10016" pt_clust_10="64.24366"></scales>
<clustering>
<clus scale="   28.100">  2  9  1 -1</clus>
<clus scale="   64.244">  2 10  1 -1</clus>
<clus scale="   79.251">  5  6 -1 -1</clus>
<clus scale="   89.476">  7  8 -1 -1</clus>
<clus scale="   99.074">  1  5  2 -1</clus>
<clus scale="   28.100">  2  5  1 -1</clus>
</clustering>
</event>
<event>
10    4  0.7204077E-005  0.2984124E+03  0.7546771E-02  0.1107081E+00
          2   -1    0    0  503    0 -0.00000000000E+00  0.00000000000E+00  0.15988603894E+04  0.15988603894E+04  0.00000000000E+00 0. -1.
         21   -1    0    0  501  502  0.00000000000E+00 -0.00000000000E+00 -0.10811846951E+03  0.10811846951E+03  0.00000000000E+00 0. -1.
         23    2    1    2    0    0 -0.12532198708E+03 -0.90054783240E+02  0.50160671314E+03  0.53277952611E+03  0.91811025205E+02 0.  0.
         24    2    1    2    0    0  0.31433005440E+03 -0.93248717256E+02  0.42481831574E+03  0.54253766332E+03  0.79861181837E+02 0.  0.
        -13    1    4    4    0    0  0.34061000727E+02 -0.36528267805E+02  0.45919477484E+02  0.67845888098E+02  0.00000000000E+00 0.  1.
         14    1    4    4    0    0  0.28026905367E+03 -0.56720449451E+02  0.37889883825E+03  0.47469177522E+03  0.00000000000E+00 0. -1.
        -13    1    3    3    0    0 -0.10525002878E+02  0.18475643079E+02  0.49790377187E+02  0.54140619993E+02  0.00000000000E+00 0. -1.
         13    1    3    3    0    0 -0.11479698421E+03 -0.10853042632E+03  0.45181633595E+03  0.47863890612E+03  0.00000000000E+00 0.  1.
         21    1    1    2  503  502  0.11267144591E+02  0.28563463142E+02  0.59868310332E+02  0.67283241271E+02  0.00000000000E+00 0.  1.
          1    1    1    2  501    0 -0.20027521191E+03  0.15474003735E+03  0.50444858070E+03  0.56437842822E+03  0.00000000000E+00 0. -1.
<scales pt_clust_5="13000.00000" pt_clust_6="13000.00000" pt_clust_7="13000.00000" pt_clust_8="13000.00000" pt_clust_9="30.70537" pt_clust_10="287.52783"></scales>
<clustering>
<clus scale="   30.705">  1  9  2 -1</clus>
<clus scale="   79.861">  5  6 -1 -1</clus>
<clus scale="   91.811">  7  8 -1 -1</clus>
<clus scale="  172.242">  1  7  2 -1</clus>
<clus scale="  287.528">  2 10  1 -1</clus>
<clus scale="  287.528">  2  5  1 -1</clus>
</clustering>
</event>
<event>
10    4  0.7204077E-005  0.1274510E+03  0.7546771E-02  0.1236193E+00
         21   -1    0    0  503  502  0.00000000000E+00  0.00000000000E+00  0.13857541232E+03  0.13857541232E+03  0.00000000000E+00 0. -1.
         -1   -1    0    0    0  501 -0.00000000000E+00 -0.00000000000E+00 -0.27800918617E+03  0.27800918617E+03  0.00000000000E+00 0.  1.
         24    2    1    2    0    0  0.23355327429E+02  0.79655438790E+02 -0.17849362351E+03  0.21259739242E+03  0.80294566330E+02 0.  0.
         23    2    1    2    0    0 -0.63588047808E+02 -0.63786873166E+02  0.37546895467E+02  0.13759110827E+03  0.97001745873E+02 0.  0.
        -11    1    3    3    0    0  0.43827110540E+02  0.19476611153E+02 -0.10495646084E+03  0.11539502880E+03  0.00000000000E+00 0.  1.
         12    1    3    3    0    0 -0.20471783111E+02  0.60178827637E+02 -0.73537162674E+02  0.97202363621E+02  0.00000000000E+00 0. -1.
        -13    1    4    4    0    0  0.25068496542E+02 -0.56127271122E+01  0.20587464860E+01  0.25771508718E+02  0.00000000000E+00 0.  1.
         13    1    4    4    0    0 -0.88656544350E+02 -0.58174146053E+02  0.35488148981E+02  0.11181959955E+03  0.00000000000E+00 0. -1.
         21    1    1    2  503  501 -0.42323117657E+01 -0.20409629787E+02  0.53973926285E+01  0.21531309717E+02  0.00000000000E+00 0. -1.
         -2    1    1    2    0  502  0.44465032145E+02  0.45410641628E+01 -0.38844384353E+01  0.44864788079E+02  0.00000000000E+00 0.  1.
<scales pt_clust_5="13000.00000" pt_clust_6="13000.00000" pt_clust_7="13000.00000" pt_clust_8="13000.00000" pt_clust_9="20.84383" pt_clust_10="43.78829"></scales>
<clustering>
<clus scale="   20.844">  1  9  2 -1</clus>
<clus scale="   43.788">  1 10  2 -1</clus>
<clus scale="   80.295">  5  6 -1 -1</clus>
<clus scale="   97.002">  7  8 -1 -1</clus>
<clus scale="  115.246">  2  5  1 -1</clus>
<clus scale="   20.844">  1  5  2 -1</clus>
</clustering>
</event>
<event>
10    4  0.7204077E-005  0.2600078E+03  0.7546771E-02  0.1120402E+00
          2   -1    0    0  502    0 -0.00000000000E+00  0.00000000000E+00  0.77235575650E+03  0.77235575650E+03  0.00000000000E+00 0. -1.
         21   -1    0    0  503  502  0.00000000000E+00 -0.00000000000E+00 -0.29061026839E+03  0.29061026839E+03  0.00000000000E+00 0. -1.
         23    2    1    2    0    0  0.11937710825E+03  0.13130221840E+03 -0.11379619900E+03  0.23002468178E+03  0.92035932056E+02 0.  0.
         24    2    1    2    0    0 -0.24220628014E+03  0.99938771123E+02  0.17481589562E+03  0.32495388601E+03  0.79892368578E+02 0.  0.
        -13    1    4    4    0    0 -0.30645746532E+02  0.23493925959E+02  0.62643539381E+02  0.73588989419E+02  0.00000000000E+00 0.  1.
         14    1    4    4    0    0 -0.21156053361E+03  0.76444845164E+02  0.11217235624E+03  0.25136489659E+03  0.00000000000E+00 0. -1.
        -11    1    3    3    0    0  0.43364464549E+02  0.55296088544E+02  0.42115928612E+01  0.70397952444E+02  0.00000000000E+00 0.  1.
         11    1    3    3    0    0  0.76012643701E+02  0.76006129859E+02 -0.11800779186E+03  0.15962672934E+03  0.00000000000E+00 0. -1.
         21    1    1    2  503  501 -0.14880182371E+02 -0.21905369173E+02  0.13193284143E+02  0.29585938763E+02  0.00000000000E+00 0. -1.
          1    1    1    2  501    0  0.13770935427E+03 -0.20933562035E+03  0.40753250735E+03  0.47840151833E+03  0.00000000000E+00 0. -1.
<scales pt_clust_5="13000.00000" pt_clust_6="13000.00000" pt_clust_7="13000.00000" pt_clust_8="13000.00000" pt_clust_9="26.48141" pt_clust_10="247.42943"></scales>
<clustering>
<clus scale="   26.481">  2  9  1 -1</clus>
<clus scale="   79.892">  5  6 -1 -1</clus>
<clus scale="   92.036">  7  8 -1 -1</clus>
<clus scale="  185.896">  1  7  2 -1</clus>
<clus scale="  247.429">  2 10  1 -1</clus>
<clus scale="   26.481">  2  5  1 -1</clus>
</clustering>
</event>
<event>
10    4  0.7204077E-005  0.1300903E+03  0.7546771E-02  0.1229613E+00
          2   -1    0    0  503    0 -0.00000000000E+00  0.00000000000E+00  0.29636757889E+03  0.29636757889E+03  0.00000000000E+00 0. -1.
         21   -1    0    0  501  502  0.00000000000E+00 -0.00000000000E+00 -0.25196581177E+03  0.25196581177E+03  0.00000000000E+00 0.  1.
         23    2    1    2    0    0 -0.12093525219E+02  0.93790381826E+02  0.21659265921E+03  0.25227450481E+03  0.88244867738E+02 0.  0.
         24    2    1    2    0    0  0.26110507543E+02 -0.10202449341E+03 -0.13095810983E+03  0.18573226660E+03  0.79092935625E+02 0.  0.
        -11    1    4    4    0    0  0.49545164419E+02 -0.62039724275E+02 -0.10791140322E+03  0.13397209280E+03  0.00000000000E+00 0.  1.
         12    1    4    4    0    0 -0.23434656876E+02 -0.39984769137E+02 -0.23046706612E+02  0.51760173797E+02  0.00000000000E+00 0. -1.
        -13    1    3    3    0    0  0.19712672250E+02  0.80948949474E+02  0.19418466756E+03  0.21130311636E+03  0.00000000000E+00 0.  1.
         13    1    3    3    0    0 -0.31806197469E+02  0.12841432353E+02  0.22407991648E+02  0.40971388456E+02  0.00000000000E+00 0. -1.
         21    1    1    2  503  502 -0.54087412243E+01  0.26502636956E+02 -0.70076595893E+02  0.75115734298E+02  0.00000000000E+00 0.  1.
          1    1    1    2  501    0 -0.86082410998E+01 -0.18268525370E+02  0.28843813639E+02  0.35210884954E+02  0.00000000000E+00 0. -1.
<scales pt_clust_5="13000.00000" pt_clust_6="13000.00000" pt_clust_7="13000.00000" pt_clust_8="13000.00000" pt_clust_9="22.60489" pt_clust_10="20.19508"></scales>
<clustering>
<clus scale="   20.195">  2 10  1 -1</clus>
<clus scale="   22.605">  2  9  1 -1</clus>
<clus scale="   79.093">  5  6 -1 -1</clus>
<clus scale="   88.245">  7  8 -1 -1</clus>
<clus scale="  124.065">  2  5  1 -1</clus>
<clus scale="   20.195">  2  5  1 -1</clus>
</clustering>
</event>
<event>
10    4  0.7204077E-005  0.1325027E+03  0.7546771E-02  0.1236008E+00
          4   -1    0    0  503    0 -0.00000000000E+00  0.00000000000E+00  0.99473300430E+03  0.99473300430E+03  0.00000000000E+00 0. -1.
         21   -1    0    0  501  502  0.00000000000E+00 -0.00000000000E+00 -0.14565443679E+03  0.14565443679E+03  0.00000000000E+00 0. -1.
         23    2    1    2    0    0 -0.72769975779E+02 -0.92012252138E+01  0.35189729131E+03  0.37095046475E+03  0.91610107217E+02 0.  0.
         24    2    1    2    0    0 -0.18381125863E+02 -0.89880066722E+02 -0.73251088943E+02  0.14043780783E+03  0.77076349520E+02 0.  0.
        -13    1    4    4    0    0 -0.39146659863E+02 -0.17319251431E+02 -0.37567059976E+02  0.56953502472E+02  0.00000000000E+00 0.  1.
         14    1    4    4    0    0  0.20765534001E+02 -0.72560815292E+02 -0.35684028966E+02  0.83484305360E+02  0.00000000000E+00 0. -1.
        -11    1    3    3    0    0 -0.89967530394E+02  0.90938827502E+01  0.29939935660E+03  0.31275682240E+03  0.00000000000E+00 0.  1.
         11    1    3    3    0    0  0.17197554616E+02 -0.18295107964E+02  0.52497934717E+02  0.58193642348E+02  0.00000000000E+00 0. -1.
         21    1    1    2  503  502  0.14639222825E+03  0.12208609352E+02  0.22630779433E+03  0.26980539730E+03  0.00000000000E+00 0. -1.
          3    1    1    2  501    0 -0.55241126609E+02  0.86872682585E+02  0.34412457081E+03  0.35919377122E+03  0.00000000000E+00 0. -1.
<scales pt_clust_5="13000.00000" pt_clust_6="13000.00000" pt_clust_7="13000.00000" pt_clust_8="13000.00000" pt_clust_9="95.73168" pt_clust_10="102.94880"></scales>
<clustering>
<clus scale="   77.076">  5  6 -1 -1</clus>
<clus scale="   91.610">  7  8 -1 -1</clus>
<clus scale="  102.949">  2 10  1 -1</clus>
<clus scale="  102.949">  2  5  1 -1</clus>
<clus scale="   95.732">  2  9  1 -1</clus>
<clus scale="  102.949">  2  5  1 -1</clus>
</clustering>
</event>
<event>
10    4  0.7204077E-005  0.3825163E+03  0.7546771E-02  0.1050008E+00
          2   -1    0    0  502    0 -0.00000000000E+00  0.00000000000E+00  0.40431487318E+03  0.40431487318E+03  0.00000000000E+00 0. -1.
         21   -1    0    0  503  502  0.00000000000E+00 -0.00000000000E+00 -0.32180129564E+03  0.32180129564E+03  0.00000000000E+00 0. -1.
         24    2    1    2    0    0  0.49336053497E+02 -0.54550165517E+02  0.21152425786E+02  0.11106837664E+03  0.80492188695E+02 0.  0.
         23    2    1    2    0    0  0.73672945325E+02 -0.24452617624E+03 -0.20655711149E+02  0.27144820457E+03  0.89647730708E+02 0.  0.
        -13    1    3    3    0    0  0.71532213496E+02 -0.39802728960E+02  0.20606103915E+02  0.84414017313E+02  0.00000000000E+00 0.  1.
         14    1    3    3    0    0 -0.22196159999E+02 -0.14747436558E+02  0.54632187047E+00  0.26654359330E+02  0.00000000000E+00 0. -1.
        -13    1    4    4    0    0  0.23963655162E+02 -0.31954989699E+01  0.12836320951E+00  0.24176113407E+02  0.00000000000E+00 0.  1.
         13    1    4    4    0    0  0.49709290164E+02 -0.24133067727E+03 -0.20784074359E+02  0.24727209116E+03  0.00000000000E+00 0. -1.
         21    1    1    2  503  501 -0.22445850388E+02  0.10610480842E+02 -0.62679034377E+01  0.25606349151E+02  0.00000000000E+00 0.  1.
          1    1    1    2  501    0 -0.10056314843E+03  0.28846586092E+03  0.88284766339E+02  0.31799323846E+03  0.00000000000E+00 0. -1.
<scales pt_clust_5="13000.00000" pt_clust_6="13000.00000" pt_clust_7="13000.00000" pt_clust_8="13000.00000" pt_clust_9="23.43211" pt_clust_10="333.66753"></scales>
<clustering>
<clus scale="   23.432">  9 10 -1 -1</clus>
<clus scale="   80.492">  5  6 -1 -1</clus>
<clus scale="   89.648">  7  8 -1 -1</clus>
<clus scale="   98.139">  5  7 -1 -1</clus>
<clus scale="  333.668">  2  9  1 -1</clus>
<clus scale="  333.668">  2  5  1 -1</clus>
</clustering>
</event>
<event>
10    4  0.7204077E-005  0.1807654E+03  0.7546771E-02  0.1192276E+00
         21   -1    0    0  501  502  0.00000000000E+00  0.00000000000E+00  0.87970091325E+02  0.87970091325E+02  0.00000000000E+00 0. -1.
          2   -1    0    0  503    0 -0.00000000000E+00 -0.00000000000E+00 -0.18959446698E+04  0.18959446698E+04  0.00000000000E+00 0. -1.
         23    2    1    2    0    0 -0.78371181234E+01  0.36341568285E+02 -0.23258680111E+03  0.25303915763E+03  0.92466562812E+02 0.  0.
         24    2    1    2    0    0  0.16601985638E+03 -0.12541883554E+03 -0.14490936849E+04  0.14660437437E+04  0.78225786766E+02 0.  0.
        -13    1    4    4    0    0  0.24898336166E+02  0.88781164075E+01 -0.13198098008E+03  0.13460210696E+03  0.00000000000E+00 0.  1.
         14    1    4    4    0    0  0.14112152022E+03 -0.13429695195E+03 -0.13171127048E+04  0.13314416367E+04  0.00000000000E+00 0. -1.
        -13    1    3    3    0    0  0.13980164593E+02  0.52957670401E+02 -0.21141103308E+03  0.21839089900E+03  0.00000000000E+00 0.  1.
         13    1    3    3    0    0 -0.21817282717E+02 -0.16616102116E+02 -0.21175768025E+02  0.34648258631E+02  0.00000000000E+00 0. -1.
         21    1    1    2  503  502 -0.65704107520E+02  0.36900479127E+01  0.22859642295E+02  0.69664980043E+02  0.00000000000E+00 0. -1.
          1    1    1    2  501    0 -0.92478630741E+02  0.85387219346E+02 -0.14915373478E+03  0.19516687980E+03  0.00000000000E+00 0. -1.
<scales pt_clust_5="13000.00000" pt_clust_6="13000.00000" pt_clust_7="13000.00000" pt_clust_8="13000.00000" pt_clust_9="65.80765" pt_clust_10="162.96278"></scales>
<clustering>
<clus scale="   65.808">  1  9  2 -1</clus>
<clus scale="   78.226">  5  6 -1 -1</clus>
<clus scale="   92.467">  7  8 -1 -1</clus>
<clus scale="  102.522">  2  7  1 -1</clus>
<clus scale="  162.963">  1 10  2 -1</clus>
<clus scale="   65.808">  1  5  2 -1</clus>
</clustering>
</event>
<event>
10    4  0.7204077E-005  0.1451589E+03  0.7546771E-02  0.1207943E+00
         -1   -1    0    0    0  501 -0.00000000000E+00  0.00000000000E+00  0.17960815128E+03  0.17960815128E+03  0.00000000000E+00 0.  1.
         21   -1    0    0  501  502  0.00000000000E+00 -0.00000000000E+00 -0.31562070116E+03  0.31562070116E+03  0.00000000000E+00 0.  1.
         23    2    1    2    0    0  0.90518385420E+01 -0.99408359428E+02  0.27984119665E+02  0.13645689956E+03  0.88732275865E+02 0.  0.
         24    2    1    2    0    0  0.21914272879E+02  0.13514950792E+03  0.16863399875E+02  0.16025571956E+03  0.81559159823E+02 0.  0.
        -13    1    4    4    0    0 -0.28606778341E+02  0.74971096970E+02  0.18754963213E+01  0.80265376311E+02  0.00000000000E+00 0.  1.
         14    1    4    4    0    0  0.50521051220E+02  0.60178410949E+02  0.14987903554E+02  0.79990343252E+02  0.00000000000E+00 0. -1.
        -13    1    3    3    0    0 -0.31177928181E+02 -0.10774038614E+02  0.20488113452E+02  0.38831764144E+02  0.00000000000E+00 0. -1.
         13    1    3    3    0    0  0.40229766723E+02 -0.88634320813E+02  0.74960062125E+01  0.97625135420E+02  0.00000000000E+00 0.  1.
         21    1    1    2  503  502  0.15194115235E+02 -0.18071367554E+02 -0.10747815208E+03  0.11004084986E+03  0.00000000000E+00 0.  1.
         -2    1    1    2    0  503 -0.46160226656E+02 -0.17669780937E+02 -0.73381917345E+02  0.88475383449E+02  0.00000000000E+00 0.  1.
<scales pt_clust_5="13000.00000" pt_clust_6="13000.00000" pt_clust_7="13000.00000" pt_clust_8="13000.00000" pt_clust_9="23.61007" pt_clust_10="47.21626"></scales>
<clustering>
<clus scale="   23.610">  2  9  1 -1</clus>
<clus scale="   47.216">  2 10  1 -1</clus>
<clus scale="   81.559">  5  6 -1 -1</clus>
<clus scale="   88.732">  7  8 -1 -1</clus>
<clus scale="  140.889">  2  5  1 -1</clus>
<clus scale="   23.610">  2  5  1 -1</clus>
</clustering>
</event>
<event>
10    4  0.7204077E-005  0.2388840E+03  0.7546771E-02  0.1121178E+00
         21   -1    0    0  503  502  0.00000000000E+00  0.00000000000E+00  0.11099690854E+04  0.11099690854E+04  0.00000000000E+00 0.  1.
         -1   -1    0    0    0  501 -0.00000000000E+00 -0.00000000000E+00 -0.17686250949E+03  0.17686250949E+03  0.00000000000E+00 0.  1.
         24    2    1    2    0    0 -0.21851927338E+03 -0.18021941341E+02 -0.21333541266E+01  0.23351724733E+03  0.80313699892E+02 0.  0.
         23    2    1    2    0    0  0.23160780868E+03 -0.72169053432E+02  0.47388530419E+03  0.54005776693E+03  0.90799563775E+02 0.  0.
        -13    1    3    3    0    0 -0.11710875143E+03 -0.48153210738E+02 -0.12400563922E+02  0.12722800538E+03  0.00000000000E+00 0.  1.
         14    1    3    3    0    0 -0.10141052195E+03  0.30131269397E+02  0.10267209796E+02  0.10628924195E+03  0.00000000000E+00 0. -1.
        -13    1    4    4    0    0  0.58143945642E+02 -0.42452129964E+02  0.74423233892E+02  0.10354573625E+03  0.00000000000E+00 0. -1.
         13    1    4    4    0    0  0.17346386304E+03 -0.29716923468E+02  0.39946207030E+03  0.43651203068E+03  0.00000000000E+00 0.  1.
         21    1    1    2  503  501 -0.32664742477E+02  0.13103656507E+03  0.44509632159E+03  0.46513256420E+03  0.00000000000E+00 0.  1.
         -2    1    1    2    0  502  0.19576207182E+02 -0.40845570295E+02  0.16258304274E+02  0.48124016439E+02  0.00000000000E+00 0.  1.
<scales pt_clust_5="13000.00000" pt_clust_6="13000.00000" pt_clust_7="13000.00000" pt_clust_8="13000.00000" pt_clust_9="116.37498" pt_clust_10="45.29449"></scales>
<clustering>
<clus scale="   45.294">  1 10  2 -1</clus>
<clus scale="   80.314">  5  6 -1 -1</clus>
<clus scale="   90.800">  7  8 -1 -1</clus>
<clus scale="  116.375">  1  9  2 -1</clus>
<clus scale="  235.098">  2  5  1 -1</clus>
<clus scale="   45.294">  1  5  2 -1</clus>
</clustering>
</event>
<event>
10    4  0.7204077E-005  0.2800198E+03  0.7546771E-02  0.1095840E+00
         21   -1    0    0  501  502  0.00000000000E+00  0.00000000000E+00  0.23539516344E+03  0.23539516344E+03  0.00000000000E+00 0. -1.
          2   -1    0    0  503    0 -0.00000000000E+00 -0.00000000000E+00 -0.18188617413E+04  0.18188617413E+04  0.00000000000E+00 0. -1.
         24    2    1    2    0    0 -0.17580387397E+03  0.20161837675E+03 -0.16023621258E+04  0.16272170954E+04  0.93349458641E+02 0.  0.
         23    2    1    2    0    0  0.16724199281E+03 -0.17000355324E+03 -0.84394726998E+02  0.26841700198E+03  0.89744775524E+02 0.  0.
        -13    1    3    3    0    0 -0.31576841315E+02 -0.36760175535E+01 -0.14838205394E+03  0.15174927988E+03  0.00000000000E+00 0.  1.
         14    1    3    3    0    0 -0.14422703266E+03  0.20529439431E+03 -0.14539800719E+04  0.14754678156E+04  0.00000000000E+00 0. -1.
        -13    1    4    4    0    0  0.10488689760E+03 -0.44136909045E+02 -0.46503856726E+02  0.12293061750E+03  0.00000000000E+00 0.  1.
         13    1    4    4    0    0  0.62355095208E+02 -0.12586664419E+03 -0.37890870272E+02  0.14548638448E+03  0.00000000000E+00 0. -1.
         21    1    1    2  503  502  0.32084004427E+02  0.11208866311E+02  0.10435807259E+03  0.10975258238E+03  0.00000000000E+00 0. -1.
          1    1    1    2  501    0 -0.23522123264E+02 -0.42823689829E+02 -0.10677976100E+01  0.48870224934E+02  0.00000000000E+00 0. -1.
<scales pt_clust_5="13000.00000" pt_clust_6="13000.00000" pt_clust_7="13000.00000" pt_clust_8="13000.00000" pt_clust_9="33.98561" pt_clust_10="44.35467"></scales>
<clustering>
<clus scale="   33.986">  1  9  2 -1</clus>
<clus scale="   44.355">  1 10  2 -1</clus>
<clus scale="   89.745">  7  8 -1 -1</clus>
<clus scale="   93.349">  5  6 -1 -1</clus>
<clus scale="  278.839">  1  7  2 -1</clus>
<clus scale="   33.986">  1  5  2 -1</clus>
</clustering>
</event>
<event>
10    4  0.7204077E-005  0.1646574E+03  0.7546771E-02  0.1207978E+00
          2   -1    0    0  502    0 -0.00000000000E+00  0.00000000000E+00  0.22048849444E+03  0.22048849444E+03  0.00000000000E+00 0. -1.
         21   -1    0    0  503  502  0.00000000000E+00 -0.00000000000E+00 -0.26639785603E+03  0.26639785603E+03  0.00000000000E+00 0. -1.
         24    2    1    2    0    0 -0.43305486067E+02 -0.23628459777E+02  0.10203180123E+02  0.98768376356E+02  0.84955388577E+02 0.  0.
         23    2    1    2    0    0  0.13544862474E+03  0.60530801084E+02 -0.40150077536E+02  0.17831353712E+03  0.90406752900E+02 0.  0.
        -13    1    3    3    0    0 -0.60805633463E+02 -0.13098199310E+02 -0.17252900111E+02  0.64548822206E+02  0.00000000000E+00 0.  1.
         14    1    3    3    0    0  0.17500147395E+02 -0.10530260468E+02  0.27456080234E+02  0.34219554149E+02  0.00000000000E+00 0. -1.
        -13    1    4    4    0    0  0.76417055445E+02  0.42855880903E+02 -0.67790060254E+02  0.11077763836E+03  0.00000000000E+00 0. -1.
         13    1    4    4    0    0  0.59031569296E+02  0.17674920181E+02  0.27639982718E+02  0.67535898763E+02  0.00000000000E+00 0.  1.
         21    1    1    2  503  501 -0.32834025168E+00  0.40611638349E+02 -0.67725612910E+02  0.78969434724E+02  0.00000000000E+00 0. -1.
          1    1    1    2  501    0 -0.91814798422E+02 -0.77513979656E+02  0.51763148742E+02  0.13083500227E+03  0.00000000000E+00 0. -1.
<scales pt_clust_5="13000.00000" pt_clust_6="13000.00000" pt_clust_7="13000.00000" pt_clust_8="13000.00000" pt_clust_9="40.61297" pt_clust_10="137.61794"></scales>
<clustering>
<clus scale="   40.613">  2  9  1 -1</clus>
<clus scale="   84.955">  5  6 -1 -1</clus>
<clus scale="   90.407">  7  8 -1 -1</clus>
<clus scale="   96.458">  1  5  2 -1</clus>
<clus scale="  137.618">  2 10  1 -1</clus>
<clus scale="   40.613">  2  5  1 -1</clus>
</clustering>
</event>
<event>
10    4  0.7204077E-005  0.1365452E+03  0.7546771E-02  0.1233579E+00
         21   -1    0    0  501  502  0.00000000000E+00  0.00000000000E+00  0.24293583900E+03  0.24293583900E+03  0.00000000000E+00 0. -1.
          2   -1    0    0  503    0 -0.00000000000E+00 -0.00000000000E+00 -0.48014500386E+03  0.48014500386E+03  0.00000000000E+00 0. -1.
         23    2    1    2    0    0  0.18494737557E+02  0.74125124548E+01 -0.18639752790E+02  0.98831912596E+02  0.94991083293E+02 0.  0.
         24    2    1    2    0    0  0.63937218501E+02 -0.51530576569E+02 -0.33959832360E+03  0.35891898125E+03  0.82173264969E+02 0.  0.
        -11    1    4    4    0    0  0.26750883678E+02 -0.14032487592E+02 -0.23055267853E+02  0.38000866587E+02  0.00000000000E+00 0.  1.
         12    1    4    4    0    0  0.37186334823E+02 -0.37498088977E+02 -0.31654305575E+03  0.32091811466E+03  0.00000000000E+00 0. -1.
        -13    1    3    3    0    0 -0.24919531264E+02  0.36914039246E+02 -0.73140712144E+01  0.45134520820E+02  0.00000000000E+00 0.  1.
         13    1    3    3    0    0  0.43414268822E+02 -0.29501526792E+02 -0.11325681575E+02  0.53697391776E+02  0.00000000000E+00 0. -1.
         21    1    1    2  503  502  0.28010683255E+02  0.61578990868E+02 -0.32779413935E+02  0.75173535707E+02  0.00000000000E+00 0. -1.
          1    1    1    2  501    0 -0.11044263931E+03 -0.17460926754E+02  0.15380832546E+03  0.19015641331E+03  0.00000000000E+00 0. -1.
<scales pt_clust_5="13000.00000" pt_clust_6="13000.00000" pt_clust_7="13000.00000" pt_clust_8="13000.00000" pt_clust_9="67.65035" pt_clust_10="109.05106"></scales>
<clustering>
<clus scale="   67.650">  2  9  1 -1</clus>
<clus scale="   82.173">  5  6 -1 -1</clus>
<clus scale="   94.991">  7  8 -1 -1</clus>
<clus scale="   98.873">  2  7  1 -1</clus>
<clus scale="  109.051">  1 10  2 -1</clus>
<clus scale="  109.051">  1  5  2 -1</clus>
</clustering>
</event>
<event>
10    4  0.7204077E-005  0.9168061E+02  0.7546771E-02  0.1306427E+00
          4   -1    0    0  503    0 -0.00000000000E+00  0.00000000000E+00  0.15280982608E+03  0.15280982608E+03  0.00000000000E+00 0. -1.
         21   -1    0    0  501  502  0.00000000000E+00 -0.00000000000E+00 -0.28848403207E+03  0.28848403207E+03  0.00000000000E+00 0. -1.
         23    2    1    2    0    0  0.44259735992E+01 -0.12581218101E+01  0.86030328534E+02  0.12526128945E+03  0.90928549392E+02 0.  0.
         24    2    1    2    0    0  0.17122408697E+02  0.34794953426E+02 -0.11099850537E+01  0.87906722650E+02  0.78882787455E+02 0.  0.
        -13    1    4    4    0    0  0.53221971033E+01  0.59635478489E+02 -0.52235222756E+01  0.60099927301E+02  0.00000000000E+00 0.  1.
         14    1    4    4    0    0  0.11800211594E+02 -0.24840525064E+02  0.41135372219E+01  0.27806795349E+02  0.00000000000E+00 0. -1.
        -11    1    3    3    0    0  0.31498326396E+02 -0.60663070970E+01 -0.28706031797E+01  0.32205356855E+02  0.00000000000E+00 0.  1.
         11    1    3    3    0    0 -0.27072352797E+02  0.48081852870E+01  0.88900931714E+02  0.93055932596E+02  0.00000000000E+00 0. -1.
         21    1    1    2  503  502 -0.21232393585E+02 -0.73818809278E+01 -0.42104533786E+02  0.47729429797E+02  0.00000000000E+00 0.  1.
          3    1    1    2  501    0 -0.31598871130E+00 -0.26154950688E+02 -0.17849001569E+03  0.18039641625E+03  0.00000000000E+00 0. -1.
<scales pt_clust_5="13000.00000" pt_clust_6="13000.00000" pt_clust_7="13000.00000" pt_clust_8="13000.00000" pt_clust_9="22.47903" pt_clust_10="35.39517"></scales>
<clustering>
<clus scale="   22.479">  2  9  1 -1</clus>
<clus scale="   35.395">  2 10  1 -1</clus>
<clus scale="   78.883">  5  6 -1 -1</clus>
<clus scale="   79.749">  2  5  1 -1</clus>
<clus scale="   90.929">  7  8 -1 -1</clus>
<clus scale="   22.479">  2  5  1 -1</clus>
</clustering>
</event>
<event>
10    4  0.7204077E-005  0.1442092E+03  0.7546771E-02  0.1216312E+00
         21   -1    0    0  501  502  0.00000000000E+00  0.00000000000E+00  0.13852875179E+04  0.13852875179E+04  0.00000000000E+00 0. -1.
          2   -1    0    0  503    0 -0.00000000000E+00 -0.00000000000E+00 -0.93468640780E+02  0.93468640780E+02  0.00000000000E+00 0. -1.
         24    2    1    2    0    0 -0.79412527566E+02  0.31250496214E+02  0.85952983120E+03  0.86827721383E+03  0.88492068987E+02 0.  0.
         23    2    1    2    0    0 -0.79667539145E+02  0.65287995281E+02  0.19407750309E+03  0.23628619341E+03  0.86923235515E+02 0.  0.
        -11    1    3    3    0    0 -0.20184126030E+02  0.44774673608E+02  0.19947375919E+03  0.20543113432E+03  0.00000000000E+00 0.  1.
         12    1    3    3    0    0 -0.59228401536E+02 -0.13524177394E+02  0.66005607201E+03  0.66284607951E+03  0.00000000000E+00 0. -1.
        -13    1    4    4    0    0 -0.45510459233E+02 -0.81738127106E+01  0.11100407573E+03  0.12024939893E+03  0.00000000000E+00 0.  1.
         13    1    4    4    0    0 -0.34157079912E+02  0.73461807992E+02  0.83073427352E+02  0.11603679448E+03  0.00000000000E+00 0. -1.
         21    1    1    2  503  502 -0.27670934026E+01 -0.41988848274E+02  0.19297656488E+03  0.19751120166E+03  0.00000000000E+00 0. -1.
          1    1    1    2  501    0  0.16184716011E+03 -0.54549643222E+02  0.45234977976E+02  0.17668154981E+03  0.00000000000E+00 0. -1.
<scales pt_clust_5="13000.00000" pt_clust_6="13000.00000" pt_clust_7="13000.00000" pt_clust_8="13000.00000" pt_clust_9="42.07993" pt_clust_10="115.06801"></scales>
<clustering>
<clus scale="   42.080">  1  9  2 -1</clus>
<clus scale="   86.923">  7  8 -1 -1</clus>
<clus scale="   88.492">  5  6 -1 -1</clus>
<clus scale="  120.253">  2  5  1 -1</clus>
<clus scale="  115.068">  1 10  2 -1</clus>
<clus scale="   42.080">  1  5  2 -1</clus>
</clustering>
</event>
<event>
10    4  0.7204077E-005  0.1629604E+03  0.7546771E-02  0.1208011E+00
          2   -1    0    0  503    0 -0.00000000000E+00  0.00000000000E+00  0.13774104858E+04  0.13774104858E+04  0.00000000000E+00 0. -1.
         21   -1    0    0  501  502  0.00000000000E+00 -0.00000000000E+00 -0.10857023844E+03  0.10857023844E+03  0.00000000000E+00 0. -1.
         24    2    1    2    0    0 -0.23562762313E+02  0.92953964206E+02  0.12809421184E+03  0.17879608096E+03  0.79776363854E+02 0.  0.
         23    2    1    2    0    0 -0.13041130002E+03  0.37416695105E+02  0.54212002470E+03  0.56614714794E+03  0.90671691809E+02 0.  0.
        -13    1    3    3    0    0  0.26554656326E+02  0.19684751117E+02  0.18920568992E+02  0.38087099261E+02  0.00000000000E+00 0.  1.
         14    1    3    3    0    0 -0.50117418639E+02  0.73269213089E+02  0.10917364285E+03  0.14070898170E+03  0.00000000000E+00 0. -1.
        -11    1    4    4    0    0 -0.41165525950E+02 -0.30284327652E+02  0.17692750487E+03  0.18416048167E+03  0.00000000000E+00 0.  1.
         11    1    4    4    0    0 -0.89245774067E+02  0.67701022758E+02  0.36519251983E+03  0.38198666627E+03  0.00000000000E+00 0. -1.
         21    1    1    2  503  502  0.25055802762E+02 -0.61770682850E+02 -0.45407410470E+02  0.80655089346E+02  0.00000000000E+00 0. -1.
          1    1    1    2  501    0  0.12891825957E+03 -0.68599976461E+02  0.64403342129E+03  0.66038240601E+03  0.00000000000E+00 0. -1.
<scales pt_clust_5="13000.00000" pt_clust_6="13000.00000" pt_clust_7="13000.00000" pt_clust_8="13000.00000" pt_clust_9="66.65891" pt_clust_10="135.40595"></scales>
<clustering>
<clus scale="   66.659">  2  9  1 -1</clus>
<clus scale="   79.776">  5  6 -1 -1</clus>
<clus scale="   90.672">  7  8 -1 -1</clus>
<clus scale="   99.432">  1  5  2 -1</clus>
<clus scale="  135.406">  2 10  1 -1</clus>
<clus scale="   66.659">  2  5  1 -1</clus>
</clustering>
</event>
<event>
10    4  0.7204077E-005  0.1538623E+03  0.7546771E-02  0.1209684E+00
         21   -1    0    0  503  502  0.00000000000E+00  0.00000000000E+00  0.11409348442E+04  0.11409348442E+04  0.00000000000E+00 0.  1.
          4   -1    0    0  502    0 -0.00000000000E+00 -0.00000000000E+00 -0.16633484789E+03  0.16633484789E+03  0.00000000000E+00 0. -1.
         23    2    1    2    0    0  0.45416384914E+02 -0.51988358579E+02 -0.39133457045E+02  0.12051152119E+03  0.90698190901E+02 0.  0.
         24    2    1    2    0    0 -0.42062741186E+01  0.82783227891E+02  0.91952713858E+02  0.14812352561E+03  0.81329709772E+02 0.  0.
        -11    1    4    4    0    0  0.28049903646E+02  0.83967188048E+00  0.22234393506E+02  0.35803217704E+02  0.00000000000E+00 0.  1.
         12    1    4    4    0    0 -0.32256177764E+02  0.81943556010E+02  0.69718320352E+02  0.11232030791E+03  0.00000000000E+00 0. -1.
        -11    1    3    3    0    0  0.11324168995E+01 -0.62271474215E+02 -0.28527281603E+01  0.62347068310E+02  0.00000000000E+00 0. -1.
         11    1    3    3    0    0  0.44283968015E+02  0.10283115636E+02 -0.36280728885E+02  0.58164452879E+02  0.00000000000E+00 0.  1.
         21    1    1    2  503  501 -0.15326064554E+03  0.37081290477E+02  0.88995815176E+03  0.90381931793E+03  0.00000000000E+00 0.  1.
          3    1    1    2  501    0  0.11205053474E+03 -0.67876159788E+02  0.31822587757E+02  0.13481532738E+03  0.00000000000E+00 0. -1.
<scales pt_clust_5="13000.00000" pt_clust_6="13000.00000" pt_clust_7="13000.00000" pt_clust_8="13000.00000" pt_clust_9="13000.00000" pt_clust_10="153.86233"></scales>
<clustering>
<clus scale="   81.330">  5  6 -1 -1</clus>
<clus scale="   90.698">  7  8 -1 -1</clus>
<clus scale="  113.981">  2  7  1 -1</clus>
<clus scale="  105.210">  2  5  1 -1</clus>
<clus scale="  153.862">  2 10  1 -1</clus>
<clus scale="  153.862">  1  5  2 -1</clus>
</clustering>
</event>
<event>
10    4  0.7204077E-005  0.1519742E+03  0.7546771E-02  0.1199486E+00
          2   -1    0    0  502    0 -0.00000000000E+00  0.00000000000E+00  0.11436734666E+04  0.11436734666E+04  0.00000000000E+00 0. -1.
         21   -1    0    0  503  502  0.00000000000E+00 -0.00000000000E+00 -0.43003409736E+02  0.43003409736E+02  0.00000000000E+00 0. -1.
         24    2    1    2    0    0  0.51152125923E+02 -0.12372960157E+03  0.72398873940E+03  0.74049986391E+03  0.79087289632E+02 0.  0.
         23    2    1    2    0    0  0.13540393117E+02  0.11427870867E+03  0.28906085430E+03  0.32316664805E+03  0.87393017020E+02 0.  0.
        -11    1    3    3    0    0  0.49165769556E+02 -0.35442957068E+02  0.19536354746E+03  0.20454924047E+03  0.00000000000E+00 0.  1.
         12    1    3    3    0    0  0.19863563669E+01 -0.88286644504E+02  0.52862519195E+03  0.53595062344E+03  0.00000000000E+00 0. -1.
        -13    1    4    4    0    0  0.41070199037E+02  0.94576260301E+02  0.16497925602E+03  0.19454969848E+03  0.00000000000E+00 0. -1.
         13    1    4    4    0    0 -0.27529805920E+02  0.19702448364E+02  0.12408159827E+03  0.12861694957E+03  0.00000000000E+00 0.  1.
         21    1    1    2  503  501 -0.26910169273E+02  0.81294722313E+01  0.58351770858E+00  0.28117361576E+02  0.00000000000E+00 0. -1.
          1    1    1    2  501    0 -0.37782349766E+02  0.13214206751E+01  0.87036945479E+02  0.94893002823E+02  0.00000000000E+00 0. -1.
<scales pt_clust_5="13000.00000" pt_clust_6="13000.00000" pt_clust_7="13000.00000" pt_clust_8="13000.00000" pt_clust_9="28.11131" pt_clust_10="41.46813"></scales>
<clustering>
<clus scale="   28.111">  2  9  1 -1</clus>
<clus scale="   41.468">  2 10  1 -1</clus>
<clus scale="   79.087">  5  6 -1 -1</clus>
<clus scale="   87.393">  7  8 -1 -1</clus>
<clus scale="  147.355">  1  5  2 -1</clus>
<clus scale="   28.111">  2  5  1 -1</clus>
</clustering>
</event>
<event>
10    4  0.7204077E-005  0.9535831E+02  0.7546771E-02  0.1291561E+00
          2   -1    0    0  502    0 -0.00000000000E+00  0.00000000000E+00  0.10149023330E+03  0.10149023330E+03  0.00000000000E+00 0. -1.
         21   -1    0    0  503  502  0.00000000000E+00 -0.00000000000E+00 -0.36778907919E+03  0.36778907919E+03  0.00000000000E+00 0. -1.
         23    2    1    2    0    0  0.88598631188E+01  0.54968999383E+02 -0.72199992805E+01  0.10810041168E+03  0.92376850717E+02 0.  0.
         24    2    1    2    0    0  0.21937757006E+02  0.24382968910E+02 -0.60971347254E+02  0.11371457192E+03  0.90209225277E+02 0.  0.
        -13    1    4    4    0    0 -0.33021998117E+02  0.21930841075E+02 -0.16355266665E+02  0.42882501065E+02  0.00000000000E+00 0.  1.
         14    1    4    4    0    0  0.54959755123E+02  0.24521278347E+01 -0.44616080589E+02  0.70832070853E+02  0.00000000000E+00 0. -1.
        -13    1    3    3    0    0  0.55999659111E+01  0.81186471345E+02 -0.38936624820E+01  0.81472469922E+02  0.00000000000E+00 0. -1.
         13    1    3    3    0    0  0.32598972077E+01 -0.26217471962E+02 -0.33263367985E+01  0.26627941760E+02  0.00000000000E+00 0.  1.
         21    1    1    2  503  501 -0.38560662908E+02  0.33053516222E+01 -0.14220250414E+03  0.14737503947E+03  0.00000000000E+00 0. -1.
          1    1    1    2  501    0  0.77630427833E+01 -0.82657319915E+02 -0.55904995205E+02  0.10008928943E+03  0.00000000000E+00 0. -1.
<scales pt_clust_5="13000.00000" pt_clust_6="13000.00000" pt_clust_7="13000.00000" pt_clust_8="13000.00000" pt_clust_9="38.70207" pt_clust_10="81.70199"></scales>
<clustering>
<clus scale="   38.702">  2  9  1 -1</clus>
<clus scale="   81.702">  2 10  1 -1</clus>
<clus scale="   90.209">  5  6 -1 -1</clus>
<clus scale="   92.377">  7  8 -1 -1</clus>
<clus scale="   93.260">  2  5  1 -1</clus>
<clus scale="   38.702">  2  5  1 -1</clus>
</clustering>
</event>
<event>
10    4  0.7204077E-005  0.1272533E+03  0.7546771E-02  0.1233783E+00
         21   -1    0    0  501  502  0.00000000000E+00  0.00000000000E+00  0.21089713607E+03  0.21089713607E+03  0.00000000000E+00 0.  1.
          2   -1    0    0  503    0 -0.00000000000E+00 -0.00000000000E+00 -0.51974983901E+03  0.51974983901E+03  0.00000000000E+00 0. -1.
         24    2    1    2    0    0  0.33790112925E+02  0.80530579923E+02 -0.39841347241E+03  0.41575865679E+03  0.80591684834E+02 0.  0.
         23    2    1    2    0    0 -0.11275687252E+02 -0.11932881783E+03 -0.44538637119E+02  0.15569810284E+03  0.88835247185E+02 0.  0.
        -13    1    3    3    0    0 -0.86283596587E+00  0.65902550154E+02 -0.14138268916E+03  0.15599024135E+03  0.00000000000E+00 0.  1.
         14    1    3    3    0    0  0.34652948891E+02  0.14628029769E+02 -0.25703078325E+03  0.25976841544E+03  0.00000000000E+00 0. -1.
        -13    1    4    4    0    0 -0.23061431471E+02 -0.74166833461E+02  0.15955067441E+02  0.79291317206E+02  0.00000000000E+00 0.  1.
         13    1    4    4    0    0  0.11785744219E+02 -0.45161984369E+02 -0.60493704560E+02  0.76406785630E+02  0.00000000000E+00 0. -1.
         21    1    1    2  503  502  0.22881154368E+01  0.51269886542E+02  0.11368046719E+03  0.12472804560E+03  0.00000000000E+00 0.  1.
          1    1    1    2  501    0 -0.24802541110E+02 -0.12471648636E+02  0.20418939397E+02  0.34462169857E+02  0.00000000000E+00 0. -1.
<scales pt_clust_5="13000.00000" pt_clust_6="13000.00000" pt_clust_7="13000.00000" pt_clust_8="13000.00000" pt_clust_9="45.32691" pt_clust_10="27.76163"></scales>
<clustering>
<clus scale="   27.762">  1 10  2 -1</clus>
<clus scale="   45.327">  1  9  2 -1</clus>
<clus scale="   80.592">  5  6 -1 -1</clus>
<clus scale="   88.835">  7  8 -1 -1</clus>
<clus scale="  121.642">  2  5  1 -1</clus>
<clus scale="   27.762">  1  5  2 -1</clus>
</clustering>
</event>
<event>
10    4  0.7204077E-005  0.3724638E+03  0.7546771E-02  0.1054264E+00
         21   -1    0    0  501  502  0.00000000000E+00  0.00000000000E+00  0.60017155483E+03  0.60017155483E+03  0.00000000000E+00 0. -1.
          2   -1    0    0  503    0 -0.00000000000E+00 -0.00000000000E+00 -0.88378066679E+03  0.88378066679E+03  0.00000000000E+00 0. -1.
         24    2    1    2    0    0  0.11215732088E+03  0.33587349217E+03 -0.63286268923E+03  0.72972283125E+03  0.81178566552E+02 0.  0.
         23    2    1    2    0    0  0.56455796613E+02 -0.41997107540E+03  0.21247820446E+03  0.48502020644E+03  0.10263845349E+03 0.  0.
        -13    1    3    3    0    0 -0.11070545658E+02  0.61317719833E+02 -0.10452231406E+03  0.12168538894E+03  0.00000000000E+00 0.  1.
         14    1    3    3    0    0  0.12322786654E+03  0.27455577234E+03 -0.52834037517E+03  0.60803744231E+03  0.00000000000E+00 0. -1.
        -13    1    4    4    0    0  0.43574729585E+02 -0.61383922793E+02  0.54657127696E+02  0.93027655264E+02  0.00000000000E+00 0.  1.
         13    1    4    4    0    0  0.12881067027E+02 -0.35858715261E+03  0.15782107676E+03  0.39199255117E+03  0.00000000000E+00 0. -1.
         21    1    1    2  503  502 -0.41705136111E+02 -0.31845044666E+02  0.63424501288E+02  0.82317025040E+02  0.00000000000E+00 0. -1.
          1    1    1    2  501    0 -0.12690798138E+03  0.11594262790E+03  0.73350871515E+02  0.18689215889E+03  0.00000000000E+00 0. -1.
<scales pt_clust_5="13000.00000" pt_clust_6="13000.00000" pt_clust_7="13000.00000" pt_clust_8="13000.00000" pt_clust_9="52.47309" pt_clust_10="174.65942"></scales>
<clustering>
<clus scale="   52.473">  1  9  2 -1</clus>
<clus scale="   81.179">  5  6 -1 -1</clus>
<clus scale="  102.638">  7  8 -1 -1</clus>
<clus scale="  174.659">  1 10  2 -1</clus>
<clus scale="  367.130">  2  5  1 -1</clus>
<clus scale="   52.473">  1  5  2 -1</clus>
</clustering>
</event>
<event>
10    4  0.7204077E-005  0.4776677E+03  0.7546771E-02  0.1019778E+00
         21   -1    0    0  501  502  0.00000000000E+00  0.00000000000E+00  0.25882687748E+03  0.25882687748E+03  0.00000000000E+00 0. -1.
          2   -1    0    0  503    0 -0.00000000000E+00 -0.00000000000E+00 -0.17851239395E+04  0.17851239395E+04  0.00000000000E+00 0. -1.
         24    2    1    2    0    0 -0.86017585285E+02  0.25631346730E+03 -0.81159253647E+03  0.85891970359E+03  0.77233370140E+02 0.  0.
         23    2    1    2    0    0 -0.13506261620E+03  0.98519989437E+02 -0.50060059906E+03  0.53567479401E+03  0.91642929598E+02 0.  0.
        -13    1    3    3    0    0 -0.37891346502E+02  0.68688738524E+02 -0.14632051895E+03  0.16602286350E+03  0.00000000000E+00 0.  1.
         14    1    3    3    0    0 -0.48126238783E+02  0.18762472877E+03 -0.66527201752E+03  0.69289684009E+03  0.00000000000E+00 0. -1.
        -11    1    4    4    0    0 -0.22858500614E+02  0.69424757830E+02 -0.22873645926E+03  0.24013053917E+03  0.00000000000E+00 0.  1.
         11    1    4    4    0    0 -0.11220411558E+03  0.29095231608E+02 -0.27186413981E+03  0.29554425484E+03  0.00000000000E+00 0. -1.
         21    1    1    2  503  502 -0.72281957787E+01  0.22288994113E+02  0.10343402815E+03  0.10605491150E+03  0.00000000000E+00 0. -1.
          1    1    1    2  501    0  0.22830839726E+03 -0.37712245085E+03 -0.31753795468E+03  0.54330140793E+03  0.00000000000E+00 0. -1.
<scales pt_clust_5="13000.00000" pt_clust_6="13000.00000" pt_clust_7="13000.00000" pt_clust_8="13000.00000" pt_clust_9="23.43173" pt_clust_10="424.15405"></scales>
<clustering>
<clus scale="   23.432">  1  9  2 -1</clus>
<clus scale="   77.233">  5  6 -1 -1</clus>
<clus scale="   91.643">  7  8 -1 -1</clus>
<clus scale="  136.900">  5  7 -1 -1</clus>
<clus scale="  424.154">  1 10  2 -1</clus>
<clus scale="   23.432">  1  5  2 -1</clus>
</clustering>
</event>
<event>
10    4  0.7204077E-005  0.1031954E+03  0.7546771E-02  0.1280175E+00
          2   -1    0    0  503    0 -0.00000000000E+00  0.00000000000E+00  0.80692145384E+03  0.80692145384E+03  0.00000000000E+00 0. -1.
         21   -1    0    0  501  502  0.00000000000E+00 -0.00000000000E+00 -0.48135646854E+02  0.48135646854E+02  0.00000000000E+00 0. -1.
         24    2    1    2    0    0 -0.22719128671E+02 -0.39203490591E+02  0.57649592822E+03  0.58345981338E+03  0.77619109041E+02 0.  0.
         23    2    1    2    0    0  0.12431698969E+02  0.70934474426E+02  0.95163373108E+02  0.15032654005E+03  0.91409814910E+02 0.  0.
        -13    1    3    3    0    0  0.23078918122E+02  0.65153574955E+01  0.11727555684E+03  0.11970230816E+03  0.00000000000E+00 0.  1.
         14    1    3    3    0    0 -0.45798046793E+02 -0.45718848087E+02  0.45922037138E+03  0.46375750522E+03  0.00000000000E+00 0. -1.
        -13    1    4    4    0    0 -0.26906875754E+02  0.51411855519E+02  0.88616587989E+02  0.10592477764E+03  0.00000000000E+00 0.  1.
         13    1    4    4    0    0  0.39338574723E+02  0.19522618907E+02  0.65467851192E+01  0.44401762416E+02  0.00000000000E+00 0. -1.
         21    1    1    2  503  502  0.17780951783E+02 -0.10896531423E+02 -0.89371528795E+01  0.22688528929E+02  0.00000000000E+00 0. -1.
          1    1    1    2  501    0 -0.74935220811E+01 -0.20834452411E+02  0.96063658534E+02  0.98582218332E+02  0.00000000000E+00 0. -1.
<scales pt_clust_5="13000.00000" pt_clust_6="13000.00000" pt_clust_7="13000.00000" pt_clust_8="13000.00000" pt_clust_9="20.85418" pt_clust_10="22.32029"></scales>
<clustering>
<clus scale="   20.854">  2  9  1 -1</clus>
<clus scale="   22.320">  2 10  1 -1</clus>
<clus scale="   77.619">  5  6 -1 -1</clus>
<clus scale="   91.204">  1  5  2 -1</clus>
<clus scale="   91.410">  7  8 -1 -1</clus>
<clus scale="   20.854">  2  5  1 -1</clus>
</clustering>
</event>
<event>
10    4  0.7204077E-005  0.9510923E+02  0.7546771E-02  0.1297588E+00
         21   -1    0    0  501  502  0.00000000000E+00  0.00000000000E+00  0.23513906677E+03  0.23513906677E+03  0.00000000000E+00 0. -1.
          4   -1    0    0  503    0 -0.00000000000E+00 -0.00000000000E+00 -0.11136815868E+03  0.11136815868E+03  0.00000000000E+00 0. -1.
         23    2    1    2    0    0  0.50844696895E+02  0.12711631367E+02 -0.38453590139E+01  0.10581641915E+03  0.91845299285E+02 0.  0.
         24    2    1    2    0    0  0.11341239285E+02  0.90939628952E+01  0.45100504334E+02  0.93253557984E+02  0.80317163270E+02 0.  0.
        -13    1    4    4    0    0 -0.15899766998E+02  0.38396667818E+02  0.24683492224E+02  0.48336130156E+02  0.00000000000E+00 0.  1.
         14    1    4    4    0    0  0.27241006283E+02 -0.29302704923E+02  0.20417012110E+02  0.44917427827E+02  0.00000000000E+00 0. -1.
        -13    1    3    3    0    0  0.47692711793E+02  0.45289761386E+02 -0.20766270988E+02  0.68970974006E+02  0.00000000000E+00 0. -1.
         13    1    3    3    0    0  0.31519851013E+01 -0.32578130019E+02  0.16920911974E+02  0.36845445141E+02  0.00000000000E+00 0.  1.
         21    1    1    2  503  502 -0.22205803009E+02 -0.84141055413E+01  0.99267340817E+02  0.10206811359E+03  0.00000000000E+00 0. -1.
          3    1    1    2  501    0 -0.39980133171E+02 -0.13391488721E+02 -0.16751578049E+02  0.45369134725E+02  0.00000000000E+00 0. -1.
<scales pt_clust_5="13000.00000" pt_clust_6="13000.00000" pt_clust_7="13000.00000" pt_clust_8="13000.00000" pt_clust_9="23.74647" pt_clust_10="44.68831"></scales>
<clustering>
<clus scale="   23.746">  1  9  2 -1</clus>
<clus scale="   44.688">  1 10  2 -1</clus>
<clus scale="   80.317">  5  6 -1 -1</clus>
<clus scale="   84.030">  1  5  2 -1</clus>
<clus scale="   91.845">  7  8 -1 -1</clus>
<clus scale="   23.746">  1  5  2 -1</clus>
</clustering>
</event>
<event>
10    4  0.7204077E-005  0.1731405E+03  0.7546771E-02  0.1176104E+00
          2   -1    0    0  502    0 -0.00000000000E+00  0.00000000000E+00  0.78076934672E+03  0.78076934672E+03  0.00000000000E+00 0. -1.
         21   -1    0    0  503  502  0.00000000000E+00 -0.00000000000E+00 -0.20279210199E+03  0.20279210199E+03  0.00000000000E+00 0.  1.
         24    2    1    2    0    0  0.11976817872E+03 -0.71343735598E+01  0.14134765656E+03  0.20151814821E+03  0.78962574187E+02 0.  0.
         23    2    1    2    0    0 -0.25930260865E+03 -0.29564482827E+02  0.37097242342E+02  0.27871740049E+03  0.90527799303E+02 0.  0.
        -13    1    3    3    0    0  0.12439815416E+03 -0.23476325186E+02  0.12636682836E+03  0.17887038299E+03  0.00000000000E+00 0.  1.
         14    1    3    3    0    0 -0.46299754426E+01  0.16341951627E+02  0.14980828200E+02  0.22647765213E+02  0.00000000000E+00 0. -1.
        -13    1    4    4    0    0 -0.93710234780E+02  0.19710535677E+02  0.44918284425E+02  0.10577223452E+03  0.00000000000E+00 0.  1.
         13    1    4    4    0    0 -0.16559237387E+03 -0.49275018505E+02 -0.78210420823E+01  0.17294516597E+03  0.00000000000E+00 0. -1.
         21    1    1    2  503  501  0.36809738097E+02  0.19130327197E+02 -0.36350889619E+02  0.55157170101E+02  0.00000000000E+00 0. -1.
          1    1    1    2  501    0  0.10272469184E+03  0.17568529190E+02  0.43588323544E+03  0.44816872991E+03  0.00000000000E+00 0. -1.
<scales pt_clust_5="13000.00000" pt_clust_6="13000.00000" pt_clust_7="13000.00000" pt_clust_8="13000.00000" pt_clust_9="41.48405" pt_clust_10="105.76281"></scales>
<clustering>
<clus scale="   41.484">  2  9  1 -1</clus>
<clus scale="   78.963">  5  6 -1 -1</clus>
<clus scale="   90.528">  7  8 -1 -1</clus>
<clus scale="  105.763">  2 10  1 -1</clus>
<clus scale="  167.384">  1  5  2 -1</clus>
<clus scale="   41.484">  2  5  1 -1</clus>
</clustering>
</event>
<event>
10    4  0.7204077E-005  0.8310280E+02  0.7546771E-02  0.1320907E+00
          4   -1    0    0  502    0 -0.00000000000E+00  0.00000000000E+00  0.43659664572E+03  0.43659664572E+03  0.00000000000E+00 0. -1.
         21   -1    0    0  503  502  0.00000000000E+00 -0.00000000000E+00 -0.10961887078E+03  0.10961887078E+03  0.00000000000E+00 0. -1.
         24    2    1    2    0    0 -0.86590961534E+01  0.23694179877E+02  0.10715104527E+03  0.13691828574E+03  0.81417911790E+02 0.  0.
         23    2    1    2    0    0  0.61766431925E+01  0.34683815261E+02 -0.54606156732E+02  0.10365807987E+03  0.80759192709E+02 0.  0.
        -13    1    3    3    0    0 -0.43173363214E+02  0.22758924592E+02  0.76537977417E+02  0.90774280096E+02  0.00000000000E+00 0.  1.
         14    1    3    3    0    0  0.34514267061E+02  0.93525528526E+00  0.30613067851E+02  0.46144005639E+02  0.00000000000E+00 0. -1.
        -13    1    4    4    0    0  0.10063137994E+02  0.58191262047E+02 -0.53691531459E+02  0.79813972933E+02  0.00000000000E+00 0. -1.
         13    1    4    4    0    0 -0.38864948013E+01 -0.23507446786E+02 -0.91462527316E+00  0.23844106937E+02  0.00000000000E+00 0.  1.
         21    1    1    2  503  501  0.20860863280E+02  0.18028657216E+02  0.92893226273E+01  0.29094666396E+02  0.00000000000E+00 0. -1.
          3    1    1    2  501    0 -0.18378410319E+02 -0.76406652355E+02  0.26514356378E+03  0.27654448449E+03  0.00000000000E+00 0. -1.
<scales pt_clust_5="13000.00000" pt_clust_6="13000.00000" pt_clust_7="13000.00000" pt_clust_8="13000.00000" pt_clust_9="27.57187" pt_clust_10="77.31043"></scales>
<clustering>
<clus scale="   27.572">  2  9  1 -1</clus>
<clus scale="   77.310">  2 10  1 -1</clus>
<clus scale="   80.759">  7  8 -1 -1</clus>
<clus scale="   81.418">  5  6 -1 -1</clus>
<clus scale="   82.458">  2  7  1 -1</clus>
<clus scale="   27.572">  2  5  1 -1</clus>
</clustering>
</event>
<event>
10    4  0.7204077E-005  0.2319875E+03  0.7546771E-02  0.1153252E+00
         21   -1    0    0  501  502  0.00000000000E+00  0.00000000000E+00  0.68162495068E+02  0.68162495068E+02  0.00000000000E+00 0. -1.
          2   -1    0    0  503    0 -0.00000000000E+00 -0.00000000000E+00 -0.14350120069E+04  0.14350120069E+04  0.00000000000E+00 0. -1.
         24    2    1    2    0    0 -0.90222513469E+02  0.73957750659E+01 -0.28636153519E+03  0.31121275313E+03  0.81582163795E+02 0.  0.
         23    2    1    2    0    0 -0.96339505864E+02  0.17678528654E+03 -0.49220751549E+03  0.53958040097E+03  0.91347867437E+02 0.  0.
        -11    1    3    3    0    0 -0.85622170709E+02  0.28596033919E+02 -0.26798955114E+03  0.28278488077E+03  0.00000000000E+00 0.  1.
         12    1    3    3    0    0 -0.46003427597E+01 -0.21200258853E+02 -0.18371984050E+02  0.28427872359E+02  0.00000000000E+00 0. -1.
        -11    1    4    4    0    0 -0.99263547582E+02  0.89209604314E+02 -0.29784818365E+03  0.32638190190E+03  0.00000000000E+00 0.  1.
         11    1    4    4    0    0  0.29240417184E+01  0.87575682228E+02 -0.19435933184E+03  0.21319849908E+03  0.00000000000E+00 0. -1.
         21    1    1    2  503  502  0.24851691513E+02 -0.11517925292E+02 -0.12918189821E+02  0.30284464703E+02  0.00000000000E+00 0. -1.
          1    1    1    2  501    0  0.16171032782E+03 -0.17266313632E+03 -0.57536227136E+03  0.62209688319E+03  0.00000000000E+00 0. -1.
<scales pt_clust_5="13000.00000" pt_clust_6="13000.00000" pt_clust_7="13000.00000" pt_clust_8="13000.00000" pt_clust_9="27.39104" pt_clust_10="213.24593"></scales>
<clustering>
<clus scale="   27.391">  1  9  2 -1</clus>
<clus scale="   81.582">  5  6 -1 -1</clus>
<clus scale="   91.348">  7  8 -1 -1</clus>
<clus scale="  117.944">  2  5  1 -1</clus>
<clus scale="  213.246">  1 10  2 -1</clus>
<clus scale="   27.391">  1  5  2 -1</clus>
</clustering>
</event>
<event>
10    4  0.7204077E-005  0.3426592E+03  0.7546771E-02  0.1108823E+00
         21   -1    0    0  503  502  0.00000000000E+00  0.00000000000E+00  0.44206187867E+03  0.44206187867E+03  0.00000000000E+00 0. -1.
          2   -1    0    0  502    0 -0.00000000000E+00 -0.00000000000E+00 -0.50776312493E+03  0.50776312493E+03  0.00000000000E+00 0. -1.
         24    2    1    2    0    0 -0.63205502940E+02  0.43556365437E+02 -0.42406940750E+02  0.11919108526E+03  0.80722200224E+02 0.  0.
         23    2    1    2    0    0 -0.22963660337E+03 -0.21418054089E+03 -0.22659169776E+03  0.39797848386E+03  0.91852068101E+02 0.  0.
        -13    1    3    3    0    0 -0.17974281216E+02 -0.20960949677E+02  0.37629173437E+01  0.27867467476E+02  0.00000000000E+00 0.  1.
         14    1    3    3    0    0 -0.45231221723E+02  0.64517315114E+02 -0.46169858094E+02  0.91323617780E+02  0.00000000000E+00 0. -1.
        -11    1    4    4    0    0 -0.10368749166E+03 -0.79976924205E+02 -0.14866449211E+03  0.19811243158E+03  0.00000000000E+00 0.  1.
         11    1    4    4    0    0 -0.12594911171E+03 -0.13420361669E+03 -0.77927205649E+02  0.19986605228E+03  0.00000000000E+00 0. -1.
         21    1    1    2  503  501  0.26964420501E+02 -0.33854241256E+02  0.64869970925E+01  0.43763806453E+02  0.00000000000E+00 0.  1.
          1    1    1    2  501    0  0.26587768581E+03  0.20447841671E+03  0.19681039516E+03  0.38889162803E+03  0.00000000000E+00 0. -1.
<scales pt_clust_5="13000.00000" pt_clust_6="13000.00000" pt_clust_7="13000.00000" pt_clust_8="13000.00000" pt_clust_9="43.28036" pt_clust_10="330.11892"></scales>
<clustering>
<clus scale="   43.280">  1  9  2 -1</clus>
<clus scale="   80.722">  5  6 -1 -1</clus>
<clus scale="   91.852">  7  8 -1 -1</clus>
<clus scale="  108.805">  2  5  1 -1</clus>
<clus scale="  330.119">  1 10  2 -1</clus>
<clus scale="   43.280">  1  5  2 -1</clus>
</clustering>
</event>
<event>
10    4  0.7204077E-005  0.2506521E+03  0.7546771E-02  0.1148691E+00
          2   -1    0    0  503    0 -0.00000000000E+00  0.00000000000E+00  0.57093758844E+03  0.57093758844E+03  0.00000000000E+00 0. -1.
         21   -1    0    0  501  502  0.00000000000E+00 -0.00000000000E+00 -0.55578374076E+03  0.55578374076E+03  0.00000000000E+00 0. -1.
         23    2    1    2    0    0  0.27953908520E+02  0.50237565846E+02 -0.28533631316E+03  0.30589940517E+03  0.94087195993E+02 0.  0.
         24    2    1    2    0    0 -0.19522351954E+03  0.13496231671E+03  0.44084405096E+03  0.50748542863E+03  0.82891094205E+02 0.  0.
        -11    1    4    4    0    0 -0.85924336660E+02  0.10650776826E+03  0.21276342191E+03  0.25297266657E+03  0.00000000000E+00 0.  1.
         12    1    4    4    0    0 -0.10929918288E+03  0.28454548450E+02  0.22808062904E+03  0.25451276206E+03  0.00000000000E+00 0. -1.
        -13    1    3    3    0    0  0.49551384327E+02  0.65608603626E+02 -0.19180255099E+03  0.20868168852E+03  0.00000000000E+00 0.  1.
         13    1    3    3    0    0 -0.21597475807E+02 -0.15371037780E+02 -0.93533762175E+02  0.97217716648E+02  0.00000000000E+00 0. -1.
         21    1    1    2  503  502 -0.13216121113E+00 -0.25275261440E+02 -0.65201486057E+02  0.69929179113E+02  0.00000000000E+00 0.  1.
          1    1    1    2  501    0  0.16740177223E+03 -0.15992462111E+03 -0.75152404057E+02  0.24340731628E+03  0.00000000000E+00 0. -1.
<scales pt_clust_5="13000.00000" pt_clust_6="13000.00000" pt_clust_7="13000.00000" pt_clust_8="13000.00000" pt_clust_9="25.27561" pt_clust_10="236.54919"></scales>
<clustering>
<clus scale="   25.276">  2  9  1 -1</clus>
<clus scale="   82.891">  5  6 -1 -1</clus>
<clus scale="   94.087">  7  8 -1 -1</clus>
<clus scale="  104.162">  1  7  2 -1</clus>
<clus scale="  236.549">  2 10  1 -1</clus>
<clus scale="   25.276">  2  5  1 -1</clus>
</clustering>
</event>
<event>
10    4  0.7204077E-005  0.1162691E+03  0.7546771E-02  0.1253331E+00
          2   -1    0    0  503    0 -0.00000000000E+00  0.00000000000E+00  0.48496680713E+03  0.48496680713E+03  0.00000000000E+00 0. -1.
         21   -1    0    0  501  502  0.00000000000E+00 -0.00000000000E+00 -0.70596470647E+02  0.70596470647E+02  0.00000000000E+00 0. -1.
         23    2    1    2    0    0  0.51605528958E+02  0.53325471459E+02  0.15005471752E+03  0.19088000241E+03  0.91717067896E+02 0.  0.
         24    2    1    2    0    0 -0.74399709205E+02 -0.14263901823E+02  0.76982046957E+02  0.13456487457E+03  0.80266395771E+02 0.  0.
        -11    1    4    4    0    0  0.12365475153E+02 -0.19702199917E+02  0.19396258145E+02  0.30286902901E+02  0.00000000000E+00 0.  1.
         12    1    4    4    0    0 -0.86765184357E+02  0.54382980937E+01  0.57585788812E+02  0.10427797167E+03  0.00000000000E+00 0. -1.
        -13    1    3    3    0    0  0.66629006263E+02  0.39740133316E+02  0.58641961182E+02  0.97250101711E+02  0.00000000000E+00 0. -1.
         13    1    3    3    0    0 -0.15023477305E+02  0.13585338143E+02  0.91412756339E+02  0.93629900696E+02  0.00000000000E+00 0.  1.
         21    1    1    2  503  502 -0.38054200761E+02  0.22372952750E+02  0.41561434004E+02  0.60630223542E+02  0.00000000000E+00 0. -1.
          1    1    1    2  501    0  0.60848381007E+02 -0.61434522387E+02  0.14577213800E+03  0.16948817726E+03  0.00000000000E+00 0. -1.
<scales pt_clust_5="13000.00000" pt_clust_6="13000.00000" pt_clust_7="13000.00000" pt_clust_8="13000.00000" pt_clust_9="44.14376" pt_clust_10="78.21157"></scales>
<clustering>
<clus scale="   44.144">  2  9  1 -1</clus>
<clus scale="   78.212">  2 10  1 -1</clus>
<clus scale="   80.266">  5  6 -1 -1</clus>
<clus scale="   91.717">  7  8 -1 -1</clus>
<clus scale="  107.467">  2  5  1 -1</clus>
<clus scale="   44.144">  2  5  1 -1</clus>
</clustering>
</event>
<event>
10    4  0.7204077E-005  0.1012510E+03  0.7546771E-02  0.1280295E+00
         21   -1    0    0  503  502  0.00000000000E+00  0.00000000000E+00  0.52629055088E+03  0.52629055088E+03  0.00000000000E+00 0. -1.
          2   -1    0    0  502    0 -0.00000000000E+00 -0.00000000000E+00 -0.72254658322E+02  0.72254658322E+02  0.00000000000E+00 0. -1.
         23    2    1    2    0    0 -0.27766326738E+02 -0.35610760388E+02  0.97639071370E+02  0.13761587624E+03  0.85823341696E+02 0.  0.
         24    2    1    2    0    0 -0.27898113774E+02  0.83640944305E+02  0.18586107022E+03  0.22071185928E+03  0.79970463844E+02 0.  0.
        -13    1    4    4    0    0  0.22228084317E+02  0.20179576016E+02  0.92220725626E+02  0.96984355726E+02  0.00000000000E+00 0.  1.
         14    1    4    4    0    0 -0.50126198092E+02  0.63461368289E+02  0.93640344597E+02  0.12372750356E+03  0.00000000000E+00 0. -1.
        -11    1    3    3    0    0  0.27117948110E+02  0.58581393167E+01  0.22283925844E+02  0.35584747533E+02  0.00000000000E+00 0.  1.
         11    1    3    3    0    0 -0.54884274848E+02 -0.41468899705E+02  0.75355145526E+02  0.10203112871E+03  0.00000000000E+00 0. -1.
         21    1    1    2  503  501 -0.26997906367E+02 -0.13960524205E+02  0.14368516755E+03  0.14686459941E+03  0.00000000000E+00 0. -1.
          1    1    1    2  501    0  0.82662346879E+02 -0.34069659712E+02  0.26850583408E+02  0.93352874266E+02  0.00000000000E+00 0. -1.
<scales pt_clust_5="13000.00000" pt_clust_6="13000.00000" pt_clust_7="13000.00000" pt_clust_8="13000.00000" pt_clust_9="30.39380" pt_clust_10="86.38743"></scales>
<clustering>
<clus scale="   30.394">  1  9  2 -1</clus>
<clus scale="   79.970">  5  6 -1 -1</clus>
<clus scale="   85.823">  7  8 -1 -1</clus>
<clus scale="   86.387">  1 10  2 -1</clus>
<clus scale="   96.340">  1  5  2 -1</clus>
<clus scale="   30.394">  1  5  2 -1</clus>
</clustering>
</event>
<event>
10    4  0.7204077E-005  0.1667628E+03  0.7546771E-02  0.1205957E+00
         21   -1    0    0  503  502  0.00000000000E+00  0.00000000000E+00  0.27347466060E+03  0.27347466060E+03  0.00000000000E+00 0.  1.
          2   -1    0    0  502    0 -0.00000000000E+00 -0.00000000000E+00 -0.49788340905E+03  0.49788340905E+03  0.00000000000E+00 0. -1.
         23    2    1    2    0    0 -0.22824054560E+01 -0.34759387641E+02 -0.21116748198E+03  0.23222772900E+03  0.90136497968E+02 0.  0.
         24    2    1    2    0    0 -0.18746752224E+03  0.78866082026E+02  0.50411916488E+02  0.22521963363E+03  0.82574761634E+02 0.  0.
        -13    1    4    4    0    0 -0.13240757656E+03  0.42386810502E+02  0.70907121565E+02  0.15606481962E+03  0.00000000000E+00 0.  1.
         14    1    4    4    0    0 -0.55059945687E+02  0.36479271524E+02 -0.20495205077E+02  0.69154814013E+02  0.00000000000E+00 0. -1.
        -11    1    3    3    0    0  0.21878276964E+02 -0.54775931700E+02 -0.94347239281E+02  0.11126753011E+03  0.00000000000E+00 0.  1.
         11    1    3    3    0    0 -0.24160682420E+02  0.20016544059E+02 -0.11682024270E+03  0.12096019889E+03  0.00000000000E+00 0. -1.
         21    1    1    2  503  501  0.67092905054E+02 -0.15256610877E+02  0.91216331661E+02  0.11425690896E+03  0.00000000000E+00 0.  1.
          1    1    1    2  501    0  0.12265702265E+03 -0.28850083508E+02 -0.15486951462E+03  0.19965379806E+03  0.00000000000E+00 0. -1.
<scales pt_clust_5="13000.00000" pt_clust_6="13000.00000" pt_clust_7="13000.00000" pt_clust_8="13000.00000" pt_clust_9="68.80568" pt_clust_10="144.88360"></scales>
<clustering>
<clus scale="   68.806">  1  9  2 -1</clus>
<clus scale="   82.575">  5  6 -1 -1</clus>
<clus scale="   90.136">  7  8 -1 -1</clus>
<clus scale="   96.967">  2  7  1 -1</clus>
<clus scale="  144.884">  1 10  2 -1</clus>
<clus scale="   68.806">  1  5  2 -1</clus>
</clustering>
</event>
<event>
10    4  0.7204077E-005  0.1835886E+03  0.7546771E-02  0.1189339E+00
         21   -1    0    0  503  502  0.00000000000E+00  0.00000000000E+00  0.78825005586E+02  0.78825005586E+02  0.00000000000E+00 0.  1.
         -1   -1    0    0    0  501 -0.00000000000E+00 -0.00000000000E+00 -0.95192362861E+03  0.95192362861E+03  0.00000000000E+00 0.  1.
         23    2    1    2    0    0  0.49834767026E+02  0.15487885379E+02 -0.15555836909E+03  0.18768904659E+03  0.91133931198E+02 0.  0.
         24    2    1    2    0    0 -0.96564443602E+02 -0.14939075912E+03 -0.12625925739E+03  0.23191979387E+03  0.78759761518E+02 0.  0.
        -11    1    4    4    0    0 -0.58488768207E+02 -0.78811629619E+02 -0.22338316137E+02  0.10065390870E+03  0.00000000000E+00 0.  1.
         12    1    4    4    0    0 -0.38075675395E+02 -0.70579129498E+02 -0.10392094125E+03  0.13126588517E+03  0.00000000000E+00 0. -1.
        -11    1    3    3    0    0  0.46018502421E+02 -0.32842360635E+02 -0.84200459173E+02  0.10142011902E+03  0.00000000000E+00 0. -1.
         11    1    3    3    0    0  0.38162646054E+01  0.48330246013E+02 -0.71357909922E+02  0.86268927568E+02  0.00000000000E+00 0.  1.
         21    1    1    2  503  501 -0.13320398485E+02  0.18517954179E+02 -0.60637031235E+02  0.64785779302E+02  0.00000000000E+00 0.  1.
         -2    1    1    2    0  502  0.60050075061E+02  0.11538491956E+03 -0.53064396531E+03  0.54635401444E+03  0.00000000000E+00 0.  1.
<scales pt_clust_5="13000.00000" pt_clust_6="13000.00000" pt_clust_7="13000.00000" pt_clust_8="13000.00000" pt_clust_9="22.81113" pt_clust_10="165.83635"></scales>
<clustering>
<clus scale="   22.811">  2  9  1 -1</clus>
<clus scale="   78.760">  5  6 -1 -1</clus>
<clus scale="   91.134">  7  8 -1 -1</clus>
<clus scale="  104.416">  2  7  1 -1</clus>
<clus scale="  165.836">  1 10  2 -1</clus>
<clus scale="  165.836">  1  5  2 -1</clus>
</clustering>
</event>
<event>
10    4  0.7204077E-005  0.1041410E+03  0.7546771E-02  0.1279867E+00
          2   -1    0    0  502    0 -0.00000000000E+00  0.00000000000E+00  0.10048874831E+03  0.10048874831E+03  0.00000000000E+00 0. -1.
         21   -1    0    0  503  502  0.00000000000E+00 -0.00000000000E+00 -0.35636046082E+03  0.35636046082E+03  0.00000000000E+00 0.  1.
         23    2    1    2    0    0  0.12915868462E+02 -0.17353476156E+02 -0.13073585255E+01  0.98766582166E+02  0.96359565034E+02 0.  0.
         24    2    1    2    0    0 -0.41281910609E+02  0.69120373616E+02 -0.86247422085E+02  0.14257780834E+03  0.80049930813E+02 0.  0.
        -13    1    4    4    0    0 -0.54124343639E+02  0.80044757083E+02 -0.71951265318E+02  0.12047237149E+03  0.00000000000E+00 0.  1.
         14    1    4    4    0    0  0.12842433030E+02 -0.10924383467E+02 -0.14296156767E+02  0.22105436856E+02  0.00000000000E+00 0. -1.
        -13    1    3    3    0    0  0.38709563082E+02  0.86040340133E+00 -0.35282691881E+02  0.52383574853E+02  0.00000000000E+00 0.  1.
         13    1    3    3    0    0 -0.25793694620E+02 -0.18213879557E+02  0.33975333356E+02  0.46383007312E+02  0.00000000000E+00 0. -1.
         21    1    1    2  503  501 -0.45904355108E+00 -0.25633047143E+02 -0.17426821728E+03  0.17614390532E+03  0.00000000000E+00 0. -1.
          1    1    1    2  501    0  0.28825085698E+02 -0.26133850317E+02  0.59512853786E+01  0.39360913297E+02  0.00000000000E+00 0. -1.
<scales pt_clust_5="13000.00000" pt_clust_6="13000.00000" pt_clust_7="13000.00000" pt_clust_8="13000.00000" pt_clust_9="25.63716" pt_clust_10="40.50382"></scales>
<clustering>
<clus scale="   25.637">  2  9  1 -1</clus>
<clus scale="   40.504">  2 10  1 -1</clus>
<clus scale="   80.050">  5  6 -1 -1</clus>
<clus scale="   89.265">  2  5  1 -1</clus>
<clus scale="   96.360">  7  8 -1 -1</clus>
<clus scale="   25.637">  2  5  1 -1</clus>
</clustering>
</event>
<event>
10    4  0.7204077E-005  0.9394569E+02  0.7546771E-02  0.1300082E+00
          4   -1    0    0  502    0 -0.00000000000E+00  0.00000000000E+00  0.26681120448E+03  0.26681120448E+03  0.00000000000E+00 0. -1.
         21   -1    0    0  503  502  0.00000000000E+00 -0.00000000000E+00 -0.55799667261E+02  0.55799667261E+02  0.00000000000E+00 0. -1.
         23    2    1    2    0    0 -0.14254815227E+02 -0.32540133790E+02  0.11097161607E+03  0.14790643294E+03  0.91101884003E+02 0.  0.
         24    2    1    2    0    0 -0.83336060310E+01  0.90894791718E+01  0.42111697656E+02  0.91282274048E+02  0.80043680917E+02 0.  0.
        -13    1    4    4    0    0 -0.21168875914E+02  0.21352675094E+02  0.59353773404E+02  0.66535167080E+02  0.00000000000E+00 0.  1.
         14    1    4    4    0    0  0.12835269883E+02 -0.12263195922E+02 -0.17242075748E+02  0.24747106968E+02  0.00000000000E+00 0. -1.
        -11    1    3    3    0    0 -0.51039663884E+02 -0.17223017599E+02  0.42215247112E+02  0.68438342421E+02  0.00000000000E+00 0. -1.
         11    1    3    3    0    0  0.36784848657E+02 -0.15317116190E+02  0.68756368958E+02  0.79468090523E+02  0.00000000000E+00 0.  1.
         21    1    1    2  503  501  0.24399385875E+02 -0.46687882415E+01  0.80123480592E+01  0.26102209411E+02  0.00000000000E+00 0. -1.
          3    1    1    2  501    0 -0.18109646173E+01  0.28119442859E+02  0.49915875433E+02  0.57319955337E+02  0.00000000000E+00 0. -1.
<scales pt_clust_5="13000.00000" pt_clust_6="13000.00000" pt_clust_7="13000.00000" pt_clust_8="13000.00000" pt_clust_9="24.84205" pt_clust_10="27.75005"></scales>
<clustering>
<clus scale="   24.842">  2  9  1 -1</clus>
<clus scale="   27.750">  2 10  1 -1</clus>
<clus scale="   80.044">  5  6 -1 -1</clus>
<clus scale="   83.266">  2  5  1 -1</clus>
<clus scale="   91.102">  7  8 -1 -1</clus>
<clus scale="   24.842">  2  5  1 -1</clus>
</clustering>
</event>
<event>
10    4  0.7204077E-005  0.2824563E+03  0.7546771E-02  0.1119068E+00
         -1   -1    0    0    0  501 -0.00000000000E+00  0.00000000000E+00  0.58459224197E+03  0.58459224197E+03  0.00000000000E+00 0.  1.
         21   -1    0    0  503  502  0.00000000000E+00 -0.00000000000E+00 -0.88076618800E+03  0.88076618800E+03  0.00000000000E+00 0. -1.
         23    2    1    2    0    0  0.72568915981E+02 -0.89409364540E+02  0.36648242044E+03  0.39565385363E+03  0.94722359390E+02 0.  0.
         24    2    1    2    0    0  0.14956146380E+03  0.20562725519E+03 -0.25869738767E+03  0.37042289849E+03  0.75083858496E+02 0.  0.
        -13    1    4    4    0    0 -0.12710373134E+00  0.20897060000E+02 -0.27472647781E+01  0.21077256362E+02  0.00000000000E+00 0.  1.
         14    1    4    4    0    0  0.14968856754E+03  0.18473019519E+03 -0.25595012289E+03  0.34934564213E+03  0.00000000000E+00 0. -1.
        -13    1    3    3    0    0 -0.64507863480E+01 -0.65445462753E+02  0.18263815533E+03  0.19411701889E+03  0.00000000000E+00 0.  1.
         13    1    3    3    0    0  0.79019702329E+02 -0.23963901787E+02  0.18384426510E+03  0.20153683474E+03  0.00000000000E+00 0. -1.
         21    1    1    2  503  501  0.52969200216E+02 -0.17717652120E+01 -0.39774558014E+03  0.40126103953E+03  0.00000000000E+00 0. -1.
         -2    1    1    2    0  502 -0.27509958000E+03 -0.11444612544E+03 -0.62133986580E+01  0.29802063832E+03  0.00000000000E+00 0.  1.
<scales pt_clust_5="13000.00000" pt_clust_6="13000.00000" pt_clust_7="13000.00000" pt_clust_8="13000.00000" pt_clust_9="52.99882" pt_clust_10="272.29402"></scales>
<clustering>
<clus scale="   52.999">  2  9  1 -1</clus>
<clus scale="   75.084">  5  6 -1 -1</clus>
<clus scale="   94.722">  7  8 -1 -1</clus>
<clus scale="  149.926">  1  7  2 -1</clus>
<clus scale="  272.294">  2 10  1 -1</clus>
<clus scale="   52.999">  2  5  1 -1</clus>
</clustering>
</event>
<event>
10    4  0.7204077E-005  0.9519796E+02  0.7546771E-02  0.1297515E+00
          2   -1    0    0  502    0 -0.00000000000E+00  0.00000000000E+00  0.91307796973E+03  0.91307796973E+03  0.00000000000E+00 0. -1.
         21   -1    0    0  503  502  0.00000000000E+00 -0.00000000000E+00 -0.38105695725E+02  0.38105695725E+02  0.00000000000E+00 0. -1.
         24    2    1    2    0    0 -0.26956540711E+02  0.11669061527E+02  0.65565522280E+03  0.66117983191E+03  0.80076069190E+02 0.  0.
         23    2    1    2    0    0  0.13375190842E+02  0.41332138632E+02  0.15788281774E+03  0.18774587468E+03  0.91838379280E+02 0.  0.
        -13    1    3    3    0    0 -0.12548249256E+02 -0.15672108553E+02  0.40060280054E+02  0.44809592543E+02  0.00000000000E+00 0.  1.
         14    1    3    3    0    0 -0.14408291455E+02  0.27341170080E+02  0.61559494275E+03  0.61637023937E+03  0.00000000000E+00 0. -1.
        -13    1    4    4    0    0  0.66644926697E+00  0.59441306429E+02  0.50176040869E+02  0.77790411632E+02  0.00000000000E+00 0. -1.
         13    1    4    4    0    0  0.12708741575E+02 -0.18109167797E+02  0.10770677687E+03  0.10995546305E+03  0.00000000000E+00 0.  1.
         21    1    1    2  503  501  0.24986598888E+02  0.76532827717E+00  0.98155016840E+01  0.26856282779E+02  0.00000000000E+00 0.  1.
          1    1    1    2  501    0 -0.11405249019E+02 -0.53766528436E+02  0.51618731780E+02  0.75401676081E+02  0.00000000000E+00 0. -1.
<scales pt_clust_5="13000.00000" pt_clust_6="13000.00000" pt_clust_7="13000.00000" pt_clust_8="13000.00000" pt_clust_9="24.99832" pt_clust_10="53.47627"></scales>
<clustering>
<clus scale="   24.998">  2  9  1 -1</clus>
<clus scale="   53.476">  2 10  1 -1</clus>
<clus scale="   80.076">  5  6 -1 -1</clus>
<clus scale="   83.908">  1  5  2 -1</clus>
<clus scale="   91.838">  7  8 -1 -1</clus>
<clus scale="   24.998">  2  5  1 -1</clus>
</clustering>
</event>
